 Entering Gaussian System, Link 0=g16
 Input=a1b_tune_c4.gjf
 Output=a1b_tune_c4.log
 Initial command:
 /opt/ohpc/pub/libs/gaussian/g16-A.03/sandybridge/g16/l1.exe "/scratch/smgo234/Ocelot/test/a1b/tuning_a1b_acycle0/Gau-71909.inp" -scrdir="/scratch/smgo234/Ocelot/test/a1b/tuning_a1b_acycle0/"
 Entering Link 1 = /opt/ohpc/pub/libs/gaussian/g16-A.03/sandybridge/g16/l1.exe PID=     71910.
  
 Copyright (c) 1988,1990,1992,1993,1995,1998,2003,2009,2016,
            Gaussian, Inc.  All Rights Reserved.
  
 This is part of the Gaussian(R) 16 program.  It is based on
 the Gaussian(R) 09 system (copyright 2009, Gaussian, Inc.),
 the Gaussian(R) 03 system (copyright 2003, Gaussian, Inc.),
 the Gaussian(R) 98 system (copyright 1998, Gaussian, Inc.),
 the Gaussian(R) 94 system (copyright 1995, Gaussian, Inc.),
 the Gaussian 92(TM) system (copyright 1992, Gaussian, Inc.),
 the Gaussian 90(TM) system (copyright 1990, Gaussian, Inc.),
 the Gaussian 88(TM) system (copyright 1988, Gaussian, Inc.),
 the Gaussian 86(TM) system (copyright 1986, Carnegie Mellon
 University), and the Gaussian 82(TM) system (copyright 1983,
 Carnegie Mellon University). Gaussian is a federally registered
 trademark of Gaussian, Inc.
  
 This software contains proprietary and confidential information,
 including trade secrets, belonging to Gaussian, Inc.
  
 This software is provided under written license and may be
 used, copied, transmitted, or stored only in accord with that
 written license.
  
 The following legend is applicable only to US Government
 contracts under FAR:
  
                    RESTRICTED RIGHTS LEGEND
  
 Use, reproduction and disclosure by the US Government is
 subject to restrictions as set forth in subparagraphs (a)
 and (c) of the Commercial Computer Software - Restricted
 Rights clause in FAR 52.227-19.
  
 Gaussian, Inc.
 340 Quinnipiac St., Bldg. 40, Wallingford CT 06492
  
  
 ---------------------------------------------------------------
 Warning -- This program may not be used in any manner that
 competes with the business of Gaussian, Inc. or will provide
 assistance to any competitor of Gaussian, Inc.  The licensee
 of this program is prohibited from giving any competitor of
 Gaussian, Inc. access to this program.  By using this program,
 the user acknowledges that Gaussian, Inc. is engaged in the
 business of creating and licensing software in the field of
 computational chemistry and represents and warrants to the
 licensee that it is not a competitor of Gaussian, Inc. and that
 it will not use this program in any manner prohibited above.
 ---------------------------------------------------------------
  

 Cite this work as:
 Gaussian 16, Revision A.03,
 M. J. Frisch, G. W. Trucks, H. B. Schlegel, G. E. Scuseria, 
 M. A. Robb, J. R. Cheeseman, G. Scalmani, V. Barone, 
 G. A. Petersson, H. Nakatsuji, X. Li, M. Caricato, A. V. Marenich, 
 J. Bloino, B. G. Janesko, R. Gomperts, B. Mennucci, H. P. Hratchian, 
 J. V. Ortiz, A. F. Izmaylov, J. L. Sonnenberg, D. Williams-Young, 
 F. Ding, F. Lipparini, F. Egidi, J. Goings, B. Peng, A. Petrone, 
 T. Henderson, D. Ranasinghe, V. G. Zakrzewski, J. Gao, N. Rega, 
 G. Zheng, W. Liang, M. Hada, M. Ehara, K. Toyota, R. Fukuda, 
 J. Hasegawa, M. Ishida, T. Nakajima, Y. Honda, O. Kitao, H. Nakai, 
 T. Vreven, K. Throssell, J. A. Montgomery, Jr., J. E. Peralta, 
 F. Ogliaro, M. J. Bearpark, J. J. Heyd, E. N. Brothers, K. N. Kudin, 
 V. N. Staroverov, T. A. Keith, R. Kobayashi, J. Normand, 
 K. Raghavachari, A. P. Rendell, J. C. Burant, S. S. Iyengar, 
 J. Tomasi, M. Cossi, J. M. Millam, M. Klene, C. Adamo, R. Cammi, 
 J. W. Ochterski, R. L. Martin, K. Morokuma, O. Farkas, 
 J. B. Foresman, and D. J. Fox, Gaussian, Inc., Wallingford CT, 2016.
 
 ******************************************
 Gaussian 16:  EM64L-G16RevA.03 25-Dec-2016
                 5-Mar-2020 
 ******************************************
 %mem=50GB
 %nproc=16
 Will use up to   16 processors via shared memory.
 ----------------------------------------------------------------------
 #P uLC-wHPBE/6-31G iop(3/130=0287500000, 3/131=0287500000, 3/119=07125
 00000, 3/120=0712500000) scf=(conver=6,fermi,ndamp=35,noincfock,novara
 cc,vshift=500,xqc)
 ----------------------------------------------------------------------
 1/38=1,172=1/1;
 2/12=2,17=6,18=5,40=1/2;
 3/5=1,6=6,11=2,25=1,30=1,74=-71,116=2,119=712500000,120=712500000,130=287500000,131=287500000/1,2,3;
 4//1;
 5/5=100002,6=6,8=3,10=500,13=1,18=-1,22=13,38=1,93=35/2,8;
 6/7=2,8=2,9=2,10=2,28=1/1;
 99/5=1,9=1/99;
 Leave Link    1 at Thu Mar  5 12:43:11 2020, MaxMem=  6710886400 cpu:              19.3 elap:               1.3
 (Enter /opt/ohpc/pub/libs/gaussian/g16-A.03/sandybridge/g16/l101.exe)
 -----
 H6 C5
 -----
 Symbolic Z-matrix:
 Charge =  1 Multiplicity = 2
 C                    -1.20651   0.69658   0. 
 C                    -1.20651  -0.69658   0. 
 C                     0.       -1.39316   0. 
 C                     1.20651  -0.69658   0. 
 C                     1.20651   0.69658   0. 
 H                     0.        2.48268   0. 
 H                    -2.15007   1.24134   0. 
 H                    -2.15007  -1.24134   0. 
 H                     0.       -2.48268   0. 
 H                     2.15007  -1.24134   0. 
 H                     2.15007   1.24134   0. 
 
 ITRead=  0  0  0  0  0  0  0  0  0  0  0
 MicOpt= -1 -1 -1 -1 -1 -1 -1 -1 -1 -1 -1
 NAtoms=     11 NQM=       11 NQMF=       0 NMMI=      0 NMMIF=      0
                NMic=       0 NMicF=      0.
                    Isotopes and Nuclear Properties:
 (Nuclear quadrupole moments (NQMom) in fm**2, nuclear magnetic moments (NMagM)
  in nuclear magnetons)

  Atom         1           2           3           4           5           6           7           8           9          10
 IAtWgt=          12          12          12          12          12           1           1           1           1           1
 AtmWgt=  12.0000000  12.0000000  12.0000000  12.0000000  12.0000000   1.0078250   1.0078250   1.0078250   1.0078250   1.0078250
 NucSpn=           0           0           0           0           0           1           1           1           1           1
 AtZEff=  -0.0000000  -0.0000000  -0.0000000  -0.0000000  -0.0000000  -0.0000000  -0.0000000  -0.0000000  -0.0000000  -0.0000000
 NQMom=    0.0000000   0.0000000   0.0000000   0.0000000   0.0000000   0.0000000   0.0000000   0.0000000   0.0000000   0.0000000
 NMagM=    0.0000000   0.0000000   0.0000000   0.0000000   0.0000000   2.7928460   2.7928460   2.7928460   2.7928460   2.7928460
 AtZNuc=   6.0000000   6.0000000   6.0000000   6.0000000   6.0000000   1.0000000   1.0000000   1.0000000   1.0000000   1.0000000

  Atom        11
 IAtWgt=           1
 AtmWgt=   1.0078250
 NucSpn=           1
 AtZEff=  -0.0000000
 NQMom=    0.0000000
 NMagM=    2.7928460
 AtZNuc=   1.0000000
 Leave Link  101 at Thu Mar  5 12:43:12 2020, MaxMem=  6710886400 cpu:               3.1 elap:               0.2
 (Enter /opt/ohpc/pub/libs/gaussian/g16-A.03/sandybridge/g16/l202.exe)
                          Input orientation:                          
 ---------------------------------------------------------------------
 Center     Atomic      Atomic             Coordinates (Angstroms)
 Number     Number       Type             X           Y           Z
 ---------------------------------------------------------------------
      1          6           0       -1.206512    0.696580    0.000000
      2          6           0       -1.206512   -0.696580    0.000000
      3          6           0        0.000000   -1.393160    0.000000
      4          6           0        1.206512   -0.696580    0.000000
      5          6           0        1.206512    0.696580    0.000000
      6          1           0        0.000000    2.482681    0.000000
      7          1           0       -2.150065    1.241340    0.000000
      8          1           0       -2.150065   -1.241340    0.000000
      9          1           0        0.000000   -2.482681    0.000000
     10          1           0        2.150065   -1.241340    0.000000
     11          1           0        2.150065    1.241340    0.000000
 ---------------------------------------------------------------------
                    Distance matrix (angstroms):
                    1          2          3          4          5
     1  C    0.000000
     2  C    1.393160   0.000000
     3  C    2.413024   1.393160   0.000000
     4  C    2.786320   2.413024   1.393160   0.000000
     5  C    2.413024   2.786320   2.413024   1.393160   0.000000
     6  H    2.155418   3.400496   3.875841   3.400496   2.155418
     7  H    1.089521   2.155418   3.400496   3.875841   3.400496
     8  H    2.155418   1.089521   2.155418   3.400496   3.875841
     9  H    3.400496   2.155418   1.089521   2.155418   3.400496
    10  H    3.875841   3.400496   2.155418   1.089521   2.155418
    11  H    3.400496   3.875841   3.400496   2.155418   1.089521
                    6          7          8          9         10
     6  H    0.000000
     7  H    2.482681   0.000000
     8  H    4.300129   2.482680   0.000000
     9  H    4.965362   4.300129   2.482681   0.000000
    10  H    4.300129   4.965362   4.300130   2.482681   0.000000
    11  H    2.482681   4.300130   4.965362   4.300129   2.482680
                   11
    11  H    0.000000
 Stoichiometry    C5H6(1+,2)
 Framework group  C2V[C2(HCH),SGV(C4H4)]
 Deg. of freedom    10
 Full point group                 C2V     NOp   4
 Largest Abelian subgroup         C2V     NOp   4
 Largest concise Abelian subgroup C2      NOp   2
                         Standard orientation:                         
 ---------------------------------------------------------------------
 Center     Atomic      Atomic             Coordinates (Angstroms)
 Number     Number       Type             X           Y           Z
 ---------------------------------------------------------------------
      1          6           0       -0.000000    1.206512   -0.928773
      2          6           0       -0.000000    1.206512    0.464387
      3          6           0        0.000000    0.000000    1.160967
      4          6           0       -0.000000   -1.206512    0.464387
      5          6           0       -0.000000   -1.206512   -0.928773
      6          1           0       -0.000000   -0.000000   -2.714874
      7          1           0       -0.000000    2.150065   -1.473533
      8          1           0       -0.000000    2.150065    1.009147
      9          1           0        0.000000    0.000000    2.250488
     10          1           0       -0.000000   -2.150065    1.009147
     11          1           0       -0.000000   -2.150065   -1.473533
 ---------------------------------------------------------------------
 Rotational constants (GHZ):           8.2868568           5.7099792           3.3806054
 Leave Link  202 at Thu Mar  5 12:43:12 2020, MaxMem=  6710886400 cpu:               0.3 elap:               0.0
 (Enter /opt/ohpc/pub/libs/gaussian/g16-A.03/sandybridge/g16/l301.exe)
 Standard basis: 6-31G (6D, 7F)
 Ernie: Thresh=  0.10000D-02 Tol=  0.10000D-05 Strict=F.
 There are    27 symmetry adapted cartesian basis functions of A1  symmetry.
 There are     4 symmetry adapted cartesian basis functions of A2  symmetry.
 There are     6 symmetry adapted cartesian basis functions of B1  symmetry.
 There are    20 symmetry adapted cartesian basis functions of B2  symmetry.
 There are    27 symmetry adapted basis functions of A1  symmetry.
 There are     4 symmetry adapted basis functions of A2  symmetry.
 There are     6 symmetry adapted basis functions of B1  symmetry.
 There are    20 symmetry adapted basis functions of B2  symmetry.
    57 basis functions,   134 primitive gaussians,    57 cartesian basis functions
    18 alpha electrons       17 beta electrons
       nuclear repulsion energy       145.0218997931 Hartrees.
 IExCor=33909 DFT=T Ex+Corr=LC-wHPBE ExCW=0 ScaHFX=  1.000000
 ScaDFX=  1.000000  1.000000  1.000000  1.000000 ScalE2=  1.000000  1.000000
 IRadAn=      5 IRanWt=     -1 IRanGd=            0 ICorTp=0 IEmpDi=  4
 HFx  wShort=  0.000000 wLong=  0.400000 cFull=  0.000000 cShort=  0.000000 cLong=  0.712500
 DFx  wShort=  0.000000 wLong=  0.400000 cFull=  0.000000 cShort=  1.000000 cLong=  0.712500
 NAtoms=   11 NActive=   11 NUniq=    7 SFac= 2.47D+00 NAtFMM=   60 NAOKFM=F Big=F
 Integral buffers will be    131072 words long.
 Raffenetti 2 integral format.
 Two-electron integral symmetry is turned on.
 Leave Link  301 at Thu Mar  5 12:43:12 2020, MaxMem=  6710886400 cpu:               2.2 elap:               0.2
 (Enter /opt/ohpc/pub/libs/gaussian/g16-A.03/sandybridge/g16/l302.exe)
 NPDir=0 NMtPBC=     1 NCelOv=     1 NCel=       1 NClECP=     1 NCelD=      1
         NCelK=      1 NCelE2=     1 NClLst=     1 CellRange=     0.0.
 One-electron integrals computed using PRISM.
 One-electron integral symmetry used in STVInt
 NBasis=    57 RedAO= T EigKep=  2.88D-03  NBF=    27     4     6    20
 NBsUse=    57 1.00D-06 EigRej= -1.00D+00 NBFU=    27     4     6    20
 Precomputing XC quadrature grid using
 IXCGrd= 4 IRadAn=           5 IRanWt=          -1 IRanGd=           0 AccXCQ= 0.00D+00.
 Generated NRdTot=       0 NPtTot=           0 NUsed=           0 NTot=          32
 NSgBfM=    57    57    57    57    57 MxSgAt=    11 MxSgA2=    11.
 Leave Link  302 at Thu Mar  5 12:43:12 2020, MaxMem=  6710886400 cpu:               1.9 elap:               0.3
 (Enter /opt/ohpc/pub/libs/gaussian/g16-A.03/sandybridge/g16/l303.exe)
 DipDrv:  MaxL=1.
 Leave Link  303 at Thu Mar  5 12:43:13 2020, MaxMem=  6710886400 cpu:               0.7 elap:               0.1
 (Enter /opt/ohpc/pub/libs/gaussian/g16-A.03/sandybridge/g16/l401.exe)
 ExpMin= 1.61D-01 ExpMax= 3.05D+03 ExpMxC= 4.57D+02 IAcc=3 IRadAn=         5 AccDes= 0.00D+00
 Harris functional with IExCor=33909 and IRadAn=       5 diagonalized for initial guess.
 HarFok:  IExCor=33909 AccDes= 0.00D+00 IRadAn=         5 IDoV= 1 UseB2=F ITyADJ=14
 ICtDFT=  3500011 ScaDFX=  1.000000  1.000000  1.000000  1.000000
 FoFCou: FMM=F IPFlag=           0 FMFlag=      100000 FMFlg1=           0
         NFxFlg=           0 DoJE=T BraDBF=F KetDBF=T FulRan=T
         wScrn=  0.000000 ICntrl=       500 IOpCl=  0 I1Cent=   200000004 NGrid=           0
         NMat0=    1 NMatS0=      1 NMatT0=    0 NMatD0=    1 NMtDS0=    0 NMtDT0=    0
 Petite list used in FoFCou.
 Harris En= -191.426390868474    
 JPrj=0 DoOrth=F DoCkMO=F.
 Initial guess orbital symmetries:
 Alpha Orbitals:
       Occupied  (A1) (B2) (A1) (B2) (A1) (A1) (B2) (A1) (B2) (A1)
                 (A1) (B2) (B2) (A1) (B1) (A1) (A2) (B1)
       Virtual   (B2) (A1) (A2) (B1) (A1) (B2) (A1) (B2) (A1) (A1)
                 (B2) (A1) (B2) (B1) (B2) (A1) (B1) (A2) (A1) (B2)
                 (A1) (A2) (B1) (B2) (A1) (A1) (B2) (A1) (B2) (A1)
                 (A1) (B2) (A1) (A1) (B2) (B2) (A1) (A1) (B2)
 Beta  Orbitals:
       Occupied  (A1) (B2) (A1) (B2) (A1) (A1) (B2) (A1) (B2) (A1)
                 (A1) (B2) (B2) (A1) (B1) (A1) (A2)
       Virtual   (B1) (B2) (A1) (A2) (B1) (A1) (B2) (A1) (B2) (A1)
                 (A1) (B2) (A1) (B2) (B1) (B2) (A1) (B1) (A2) (A1)
                 (B2) (A1) (A2) (B1) (B2) (A1) (A1) (B2) (A1) (B2)
                 (A1) (A1) (B2) (A1) (A1) (B2) (B2) (A1) (A1) (B2)
 The electronic state of the initial guess is 2-B1.
 Initial guess <Sx>= 0.0000 <Sy>= 0.0000 <Sz>= 0.5000 <S**2>= 0.7500 S= 0.5000
 Leave Link  401 at Thu Mar  5 12:43:13 2020, MaxMem=  6710886400 cpu:               3.2 elap:               0.2
 (Enter /opt/ohpc/pub/libs/gaussian/g16-A.03/sandybridge/g16/l502.exe)
 Keep R1 and R2 ints in memory in symmetry-blocked form, NReq=16815659.
 FoFCou: FMM=F IPFlag=           0 FMFlag=           0 FMFlg1=           0
         NFxFlg=           0 DoJE=F BraDBF=F KetDBF=F FulRan=T
         wScrn=  0.000000 ICntrl=       600 IOpCl=  0 I1Cent=           0 NGrid=           0
         NMat0=    1 NMatS0=   1653 NMatT0=    0 NMatD0=    1 NMtDS0=    0 NMtDT0=    0
 Petite list used in FoFCou.
 UHF open shell SCF:
 Using DIIS extrapolation, IDIIS=    10.
 NGot=  6710886400 LenX=  6710059583 LenY=  6710055893
 Requested convergence on RMS density matrix=1.00D-06 within  32 cycles.
 Requested convergence on MAX density matrix=1.00D-04.
 Requested convergence on             energy=1.00D-04.
 Virtual orbitals will be shifted by   0.500 hartree.
 No special actions if energy rises.
 Dynamic level shift is on during FON iterations.

 Cycle   1  Pass 1  IDiag  1:
 E= -196.073639818155    
 DIIS: error= 5.92D-02 at cycle   1 NSaved=   1.
 NSaved= 1 IEnMin= 1 EnMin= -196.073639818155     IErMin= 1 ErrMin= 5.92D-02
 ErrMax= 5.92D-02  0.00D+00 EMaxC= 1.00D+00 BMatC= 2.94D-01 BMatP= 2.94D-01
 IDIUse=1 WtCom= 1.00D+00 WtEn= 0.00D+00
 Coeff-Com:  0.100D+01
 Coeff:      0.100D+01
 Gap=     0.033 Goal=   None    Shift=    0.500
 T= 1904. Gap= 0.490 NK=0 IS=   19 IE=   57 IFin=   18
          NO(<0.9)=   0  NV(>0.1)=   0     18.00e < EF      0.00e >EF  Err=0.0D+00
 Gap=     0.055 Goal=   None    Shift=    0.500
 T= 1904. Gap= 0.561 NK=0 IS=   18 IE=   57 IFin=   17
          NO(<0.9)=   0  NV(>0.1)=   0     17.00e < EF      0.00e >EF  Err=0.0D+00
 GapD=    0.033 DampG=0.250 DampE=0.500 DampFc=0.1250 IDamp=-1.
 Damping current iteration by 1.25D-01
 RMSDP=8.01D-03 MaxDP=6.42D-02              OVMax= 1.32D-01

 Cycle   2  Pass 1  IDiag  1:
 E= -196.093625741082     Delta-E=       -0.019985922927 Rises=F Damp=T
 DIIS: error= 5.14D-02 at cycle   2 NSaved=   2.
 NSaved= 2 IEnMin= 2 EnMin= -196.093625741082     IErMin= 2 ErrMin= 5.14D-02
 ErrMax= 5.14D-02  0.00D+00 EMaxC= 1.00D+00 BMatC= 2.11D-01 BMatP= 2.94D-01
 IDIUse=1 WtCom= 1.00D+00 WtEn= 0.00D+00
 Coeff-Com: -0.495D+01 0.595D+01
 Coeff:     -0.495D+01 0.595D+01
 Gap=     0.131 Goal=   None    Shift=    0.500
 T= 1877. Gap= 0.612 NK=4 IS=   19 IE=   24 IFin=   18
          NO(<0.9)=   0  NV(>0.1)=   0     18.00e < EF      0.00e >EF  Err=0.0D+00
 Gap=     0.161 Goal=   None    Shift=    0.500
 T= 1877. Gap= 0.663 NK=4 IS=   18 IE=   21 IFin=   17
          NO(<0.9)=   0  NV(>0.1)=   0     17.00e < EF      0.00e >EF  Err=0.0D+00
 GapD=    0.131 DampG=1.000 DampE=0.500 DampFc=0.5000 IDamp=-1.
 Damping current iteration by 5.00D-01
 RMSDP=7.49D-03 MaxDP=6.27D-02 DE=-2.00D-02 OVMax= 5.51D-02

 Cycle   3  Pass 1  IDiag  1:
 E= -196.151157425540     Delta-E=       -0.057531684458 Rises=F Damp=T
 DIIS: error= 2.76D-02 at cycle   3 NSaved=   3.
 NSaved= 3 IEnMin= 3 EnMin= -196.151157425540     IErMin= 3 ErrMin= 2.76D-02
 ErrMax= 2.76D-02  0.00D+00 EMaxC= 1.00D+00 BMatC= 4.50D-02 BMatP= 2.11D-01
 IDIUse=1 WtCom= 1.00D+00 WtEn= 0.00D+00
 Coeff-Com:  0.225D+01-0.378D+01 0.253D+01
 Coeff:      0.225D+01-0.378D+01 0.253D+01
 Gap=     0.163 Goal=   None    Shift=    0.500
 T= 1753. Gap= 0.663 NK=4 IS=   19 IE=   24 IFin=   18
          NO(<0.9)=   0  NV(>0.1)=   0     18.00e < EF      0.00e >EF  Err=0.0D+00
 Gap=     0.214 Goal=   None    Shift=    0.500
 T= 1753. Gap= 0.714 NK=4 IS=   18 IE=   21 IFin=   17
          NO(<0.9)=   0  NV(>0.1)=   0     17.00e < EF      0.00e >EF  Err=0.0D+00
 GapD=    0.163 DampG=1.000 DampE=0.500 DampFc=0.5000 IDamp=-1.
 Damping current iteration by 5.00D-01
 RMSDP=3.77D-03 MaxDP=3.23D-02 DE=-5.75D-02 OVMax= 2.30D-02

 Cycle   4  Pass 1  IDiag  1:
 E= -196.173689106723     Delta-E=       -0.022531681183 Rises=F Damp=T
 DIIS: error= 1.61D-02 at cycle   4 NSaved=   4.
 NSaved= 4 IEnMin= 4 EnMin= -196.173689106723     IErMin= 4 ErrMin= 1.61D-02
 ErrMax= 1.61D-02  0.00D+00 EMaxC= 1.00D+00 BMatC= 1.17D-02 BMatP= 4.50D-02
 IDIUse=1 WtCom= 1.00D+00 WtEn= 0.00D+00
 Coeff-Com:  0.803D+00-0.603D+00-0.213D+01 0.293D+01
 Coeff:      0.803D+00-0.603D+00-0.213D+01 0.293D+01
 Gap=     0.179 Goal=   None    Shift=    0.500
 T= 1529. Gap= 0.679 NK=4 IS=   19 IE=   24 IFin=   18
          NO(<0.9)=   0  NV(>0.1)=   0     18.00e < EF      0.00e >EF  Err=0.0D+00
 Gap=     0.228 Goal=   None    Shift=    0.500
 T= 1529. Gap= 0.728 NK=4 IS=   18 IE=   21 IFin=   17
          NO(<0.9)=   0  NV(>0.1)=   0     17.00e < EF      0.00e >EF  Err=0.0D+00
 GapD=    0.179 DampG=1.000 DampE=0.500 DampFc=0.5000 IDamp=-1.
 Damping current iteration by 5.00D-01
 RMSDP=2.09D-03 MaxDP=2.25D-02 DE=-2.25D-02 OVMax= 1.62D-02

 Cycle   5  Pass 1  IDiag  1:
 E= -196.184269618780     Delta-E=       -0.010580512057 Rises=F Damp=T
 DIIS: error= 1.06D-02 at cycle   5 NSaved=   5.
 NSaved= 5 IEnMin= 5 EnMin= -196.184269618780     IErMin= 5 ErrMin= 1.06D-02
 ErrMax= 1.06D-02  0.00D+00 EMaxC= 1.00D+00 BMatC= 3.96D-03 BMatP= 1.17D-02
 IDIUse=1 WtCom= 1.00D+00 WtEn= 0.00D+00
 Coeff-Com: -0.830D+00 0.123D+01 0.299D+00-0.405D+01 0.435D+01
 Coeff:     -0.830D+00 0.123D+01 0.299D+00-0.405D+01 0.435D+01
 Gap=     0.185 Goal=   None    Shift=    0.500
 T= 1193. Gap= 0.685 NK=4 IS=   19 IE=   24 IFin=   18
          NO(<0.9)=   0  NV(>0.1)=   0     18.00e < EF      0.00e >EF  Err=0.0D+00
 Gap=     0.231 Goal=   None    Shift=    0.500
 T= 1193. Gap= 0.732 NK=4 IS=   18 IE=   21 IFin=   17
          NO(<0.9)=   0  NV(>0.1)=   0     17.00e < EF      0.00e >EF  Err=0.0D+00
 GapD=    0.185 DampG=1.000 DampE=0.500 DampFc=0.5000 IDamp=-1.
 Damping current iteration by 5.00D-01
 RMSDP=1.47D-03 MaxDP=1.94D-02 DE=-1.06D-02 OVMax= 1.99D-02

 Cycle   6  Pass 1  IDiag  1:
 E= -196.189874972719     Delta-E=       -0.005605353939 Rises=F Damp=T
 DIIS: error= 7.44D-03 at cycle   6 NSaved=   6.
 NSaved= 6 IEnMin= 6 EnMin= -196.189874972719     IErMin= 6 ErrMin= 7.44D-03
 ErrMax= 7.44D-03  0.00D+00 EMaxC= 1.00D+00 BMatC= 1.61D-03 BMatP= 3.96D-03
 IDIUse=1 WtCom= 1.00D+00 WtEn= 0.00D+00
 Coeff-Com:  0.295D+00-0.518D+00 0.436D+00 0.122D+01-0.527D+01 0.484D+01
 Coeff:      0.295D+00-0.518D+00 0.436D+00 0.122D+01-0.527D+01 0.484D+01
 Gap=     0.188 Goal=   None    Shift=    0.500
 T=  915. Gap= 0.688 NK=4 IS=   19 IE=   24 IFin=   18
          NO(<0.9)=   0  NV(>0.1)=   0     18.00e < EF      0.00e >EF  Err=0.0D+00
 Gap=     0.231 Goal=   None    Shift=    0.500
 T=  915. Gap= 0.732 NK=4 IS=   18 IE=   21 IFin=   17
          NO(<0.9)=   0  NV(>0.1)=   0     17.00e < EF      0.00e >EF  Err=0.0D+00
 GapD=    0.188 DampG=1.000 DampE=1.000 DampFc=1.0000 IDamp=-1.
 RMSDP=1.12D-03 MaxDP=1.61D-02 DE=-5.61D-03 OVMax= 1.80D-02

 Cycle   7  Pass 1  IDiag  1:
 E= -196.196837425447     Delta-E=       -0.006962452727 Rises=F Damp=F
 DIIS: error= 3.31D-03 at cycle   7 NSaved=   7.
 NSaved= 7 IEnMin= 7 EnMin= -196.196837425447     IErMin= 7 ErrMin= 3.31D-03
 ErrMax= 3.31D-03  0.00D+00 EMaxC= 1.00D+00 BMatC= 2.59D-04 BMatP= 1.61D-03
 IDIUse=1 WtCom= 1.00D+00 WtEn= 0.00D+00
 Coeff-Com:  0.148D+00-0.188D+00-0.313D+00 0.102D+01 0.133D+01-0.393D+01
 Coeff-Com:  0.292D+01
 Coeff:      0.148D+00-0.188D+00-0.313D+00 0.102D+01 0.133D+01-0.393D+01
 Coeff:      0.292D+01
 Gap=     0.191 Goal=   None    Shift=    0.500
 T=  634. Gap= 0.691 NK=4 IS=   19 IE=   24 IFin=   18
          NO(<0.9)=   0  NV(>0.1)=   0     18.00e < EF      0.00e >EF  Err=0.0D+00
 Gap=     0.231 Goal=   None    Shift=    0.500
 T=  634. Gap= 0.731 NK=4 IS=   18 IE=   21 IFin=   17
          NO(<0.9)=   0  NV(>0.1)=   0     17.00e < EF      0.00e >EF  Err=0.0D+00
 GapD=    0.191 DampG=1.000 DampE=1.000 DampFc=1.0000 IDamp=-1.
 RMSDP=3.89D-04 MaxDP=5.96D-03 DE=-6.96D-03 OVMax= 1.62D-02

 Cycle   8  Pass 1  IDiag  1:
 E= -196.197369130482     Delta-E=       -0.000531705035 Rises=F Damp=F
 DIIS: error= 2.35D-03 at cycle   8 NSaved=   8.
 NSaved= 8 IEnMin= 8 EnMin= -196.197369130482     IErMin= 8 ErrMin= 2.35D-03
 ErrMax= 2.35D-03  0.00D+00 EMaxC= 1.00D+00 BMatC= 1.51D-04 BMatP= 2.59D-04
 IDIUse=1 WtCom= 1.00D+00 WtEn= 0.00D+00
 Coeff-Com: -0.483D-01 0.972D-01-0.151D+00-0.275D+00 0.231D+01-0.298D+01
 Coeff-Com:  0.603D+00 0.144D+01
 Coeff:     -0.483D-01 0.972D-01-0.151D+00-0.275D+00 0.231D+01-0.298D+01
 Coeff:      0.603D+00 0.144D+01
 Gap=     0.193 Goal=   None    Shift=    0.500
 T=  339. Gap= 0.693 NK=4 IS=   19 IE=   24 IFin=   18
          NO(<0.9)=   0  NV(>0.1)=   0     18.00e < EF      0.00e >EF  Err=0.0D+00
 Gap=     0.230 Goal=   None    Shift=    0.500
 T=  339. Gap= 0.731 NK=4 IS=   18 IE=   21 IFin=   17
          NO(<0.9)=   0  NV(>0.1)=   0     17.00e < EF      0.00e >EF  Err=0.0D+00
 GapD=    0.193 DampG=1.000 DampE=1.000 DampFc=1.0000 IDamp=-1.
 RMSDP=2.59D-04 MaxDP=3.41D-03 DE=-5.32D-04 OVMax= 1.08D-02

 Cycle   9  Pass 1  IDiag  1:
 E= -196.197655835622     Delta-E=       -0.000286705140 Rises=F Damp=F
 DIIS: error= 1.88D-03 at cycle   9 NSaved=   9.
 NSaved= 9 IEnMin= 9 EnMin= -196.197655835622     IErMin= 9 ErrMin= 1.88D-03
 ErrMax= 1.88D-03  0.00D+00 EMaxC= 1.00D+00 BMatC= 1.03D-04 BMatP= 1.51D-04
 IDIUse=1 WtCom= 1.00D+00 WtEn= 0.00D+00
 Coeff-Com: -0.924D-01 0.103D+00 0.378D+00-0.115D+01-0.725D+00 0.303D+01
 Coeff-Com: -0.246D+01-0.164D+01 0.355D+01
 Coeff:     -0.924D-01 0.103D+00 0.378D+00-0.115D+01-0.725D+00 0.303D+01
 Coeff:     -0.246D+01-0.164D+01 0.355D+01
 Gap=     0.196 Goal=   None    Shift=    0.500
 T=    8. Gap= 0.696 NK=4 IS=   19 IE=   24 IFin=   18
          NO(<0.9)=   0  NV(>0.1)=   0     18.00e < EF      0.00e >EF  Err=0.0D+00
 Gap=     0.229 Goal=   None    Shift=    0.500
 T=    8. Gap= 0.729 NK=4 IS=   18 IE=   21 IFin=   17
          NO(<0.9)=   0  NV(>0.1)=   0     17.00e < EF      0.00e >EF  Err=0.0D+00
 GapD=    0.196 DampG=1.000 DampE=1.000 DampFc=1.0000 IDamp=-1.
 RMSDP=2.85D-04 MaxDP=4.28D-03 DE=-2.87D-04 OVMax= 1.24D-02

 Cycle  10  Pass 1  IDiag  1:
 E= -196.197937489199     Delta-E=       -0.000281653577 Rises=F Damp=F
 DIIS: error= 1.79D-03 at cycle  10 NSaved=  10.
 NSaved=10 IEnMin=10 EnMin= -196.197937489199     IErMin=10 ErrMin= 1.79D-03
 ErrMax= 1.79D-03  0.00D+00 EMaxC= 1.00D+00 BMatC= 7.77D-05 BMatP= 1.03D-04
 IDIUse=1 WtCom= 1.00D+00 WtEn= 0.00D+00
 Coeff-Com: -0.283D-01 0.332D-01 0.133D+00-0.405D+00-0.342D+00 0.121D+01
 Coeff-Com: -0.783D+00-0.906D+00 0.556D+00 0.153D+01
 Coeff:     -0.283D-01 0.332D-01 0.133D+00-0.405D+00-0.342D+00 0.121D+01
 Coeff:     -0.783D+00-0.906D+00 0.556D+00 0.153D+01
 Gap=     0.198 Goal=   None    Shift=    0.500
 Gap=     0.228 Goal=   None    Shift=    0.500
 GapD=    0.198 DampG=1.000 DampE=1.000 DampFc=1.0000 IDamp=-1.
 RMSDP=2.01D-04 MaxDP=3.56D-03 DE=-2.82D-04 OVMax= 9.96D-03

 Cycle  11  Pass 1  IDiag  1:
 E= -196.198126844030     Delta-E=       -0.000189354831 Rises=F Damp=F
 DIIS: error= 1.72D-03 at cycle  11 NSaved=  11.
 NSaved=11 IEnMin=11 EnMin= -196.198126844030     IErMin=11 ErrMin= 1.72D-03
 ErrMax= 1.72D-03  0.00D+00 EMaxC= 1.00D+00 BMatC= 6.84D-05 BMatP= 7.77D-05
 IDIUse=1 WtCom= 1.00D+00 WtEn= 0.00D+00
 Coeff-Com: -0.119D-01 0.115D-01 0.180D-01-0.349D-01 0.247D-02 0.331D-01
 Coeff-Com: -0.801D-01-0.825D-01 0.120D+01-0.357D+01 0.352D+01
 Coeff:     -0.119D-01 0.115D-01 0.180D-01-0.349D-01 0.247D-02 0.331D-01
 Coeff:     -0.801D-01-0.825D-01 0.120D+01-0.357D+01 0.352D+01
 Gap=     0.200 Goal=   None    Shift=    0.500
 Gap=     0.227 Goal=   None    Shift=    0.500
 GapD=    0.200 DampG=1.000 DampE=1.000 DampFc=1.0000 IDamp=-1.
 RMSDP=1.86D-04 MaxDP=3.59D-03 DE=-1.89D-04 OVMax= 1.00D-02

 Cycle  12  Pass 1  IDiag  1:
 E= -196.198301526300     Delta-E=       -0.000174682270 Rises=F Damp=F
 DIIS: error= 1.70D-03 at cycle  12 NSaved=  12.
 NSaved=12 IEnMin=12 EnMin= -196.198301526300     IErMin=12 ErrMin= 1.70D-03
 ErrMax= 1.70D-03  0.00D+00 EMaxC= 1.00D+00 BMatC= 6.56D-05 BMatP= 6.84D-05
 IDIUse=1 WtCom= 1.00D+00 WtEn= 0.00D+00
 Large coefficients: NSaved= 12 BigCof=   11.69 CofMax=   10.00 Det=-8.72D-09
 Inversion failed.  Reducing to 11 matrices.
 Large coefficients: NSaved= 11 BigCof=   11.73 CofMax=   10.00 Det=-8.73D-09
 Inversion failed.  Reducing to 10 matrices.
 Large coefficients: NSaved= 10 BigCof=   11.55 CofMax=   10.00 Det=-8.78D-09
 Inversion failed.  Reducing to  9 matrices.
 Coeff-Com:  0.346D-01-0.225D+00 0.315D+00-0.194D+00-0.259D+00 0.195D+01
 Coeff-Com: -0.639D+01 0.834D+01-0.257D+01
 Coeff:      0.346D-01-0.225D+00 0.315D+00-0.194D+00-0.259D+00 0.195D+01
 Coeff:     -0.639D+01 0.834D+01-0.257D+01
 Gap=     0.198 Goal=   None    Shift=    0.500
 Gap=     0.229 Goal=   None    Shift=    0.500
 GapD=    0.198 DampG=1.000 DampE=1.000 DampFc=1.0000 IDamp=-1.
 RMSDP=5.63D-05 MaxDP=1.23D-03 DE=-1.75D-04 OVMax= 2.38D-03

 Cycle  13  Pass 1  IDiag  1:
 E= -196.198339411938     Delta-E=       -0.000037885638 Rises=F Damp=F
 DIIS: error= 1.63D-03 at cycle  13 NSaved=  10.
 NSaved=10 IEnMin=10 EnMin= -196.198339411938     IErMin=10 ErrMin= 1.63D-03
 ErrMax= 1.63D-03  0.00D+00 EMaxC= 1.00D+00 BMatC= 6.43D-05 BMatP= 6.56D-05
 IDIUse=1 WtCom= 1.00D+00 WtEn= 0.00D+00
 Coeff-Com:  0.333D-01-0.201D+00 0.273D+00-0.134D+00-0.256D+00 0.137D+01
 Coeff-Com: -0.472D+01 0.673D+01-0.244D+01 0.346D+00
 Coeff:      0.333D-01-0.201D+00 0.273D+00-0.134D+00-0.256D+00 0.137D+01
 Coeff:     -0.472D+01 0.673D+01-0.244D+01 0.346D+00
 Gap=     0.198 Goal=   None    Shift=    0.500
 Gap=     0.228 Goal=   None    Shift=    0.500
 GapD=    0.198 DampG=1.000 DampE=1.000 DampFc=1.0000 IDamp=-1.
 RMSDP=3.20D-05 MaxDP=6.87D-04 DE=-3.79D-05 OVMax= 1.55D-03

 Cycle  14  Pass 1  IDiag  1:
 E= -196.198362632116     Delta-E=       -0.000023220178 Rises=F Damp=F
 DIIS: error= 1.61D-03 at cycle  14 NSaved=  11.
 NSaved=11 IEnMin=11 EnMin= -196.198362632116     IErMin=11 ErrMin= 1.61D-03
 ErrMax= 1.61D-03  0.00D+00 EMaxC= 1.00D+00 BMatC= 6.46D-05 BMatP= 6.43D-05
 IDIUse=1 WtCom= 1.00D+00 WtEn= 0.00D+00
 Coeff-Com:  0.695D-01-0.429D+00 0.586D+00-0.290D+00-0.385D+00 0.171D+01
 Coeff-Com: -0.526D+01 0.786D+01-0.886D+00-0.755D+01 0.557D+01
 Coeff:      0.695D-01-0.429D+00 0.586D+00-0.290D+00-0.385D+00 0.171D+01
 Coeff:     -0.526D+01 0.786D+01-0.886D+00-0.755D+01 0.557D+01
 Gap=     0.198 Goal=   None    Shift=    0.500
 Gap=     0.229 Goal=   None    Shift=    0.500
 GapD=    0.198 DampG=1.000 DampE=1.000 DampFc=1.0000 IDamp=-1.
 RMSDP=1.60D-05 MaxDP=1.57D-04 DE=-2.32D-05 OVMax= 4.52D-04

 Cycle  15  Pass 1  IDiag  1:
 E= -196.198358333356     Delta-E=        0.000004298760 Rises=F Damp=F
 DIIS: error= 1.61D-03 at cycle  15 NSaved=  12.
 NSaved=12 IEnMin=11 EnMin= -196.198362632116     IErMin=12 ErrMin= 1.61D-03
 ErrMax= 1.61D-03  0.00D+00 EMaxC= 1.00D+00 BMatC= 6.53D-05 BMatP= 6.43D-05
 IDIUse=1 WtCom= 1.00D+00 WtEn= 0.00D+00
 Coeff-Com:  0.437D-01-0.265D+00 0.360D+00-0.187D+00-0.340D+00 0.214D+01
 Coeff-Com: -0.712D+01 0.955D+01-0.161D+01-0.165D+01-0.472D+01 0.481D+01
 Coeff:      0.437D-01-0.265D+00 0.360D+00-0.187D+00-0.340D+00 0.214D+01
 Coeff:     -0.712D+01 0.955D+01-0.161D+01-0.165D+01-0.472D+01 0.481D+01
 Gap=     0.197 Goal=   None    Shift=    0.000
 Gap=     0.229 Goal=   None    Shift=    0.000
 GapD=    0.197 DampG=1.000 DampE=1.000 DampFc=1.0000 IDamp=-1.
 RMSDP=7.14D-05 MaxDP=1.31D-03 DE= 4.30D-06 OVMax= 4.21D-03

 Cycle  16  Pass 1  IDiag  1:
 E= -196.198293144935     Delta-E=        0.000065188421 Rises=F Damp=F
 DIIS: error= 1.61D-03 at cycle  16 NSaved=  13.
 NSaved=13 IEnMin=11 EnMin= -196.198362632116     IErMin=12 ErrMin= 1.61D-03
 ErrMax= 1.61D-03  0.00D+00 EMaxC= 1.00D+00 BMatC= 6.50D-05 BMatP= 6.43D-05
 IDIUse=1 WtCom= 1.00D+00 WtEn= 0.00D+00
 Large coefficients: NSaved= 13 BigCof=   52.18 CofMax=   10.00 Det=-1.73D-09
 Inversion failed.  Reducing to 12 matrices.
 Large coefficients: NSaved= 12 BigCof=   47.47 CofMax=   10.00 Det=-1.90D-09
 Inversion failed.  Reducing to 11 matrices.
 Large coefficients: NSaved= 11 BigCof=   45.56 CofMax=   10.00 Det=-1.98D-09
 Inversion failed.  Reducing to 10 matrices.
 Large coefficients: NSaved= 10 BigCof=   42.15 CofMax=   10.00 Det=-2.11D-09
 Inversion failed.  Reducing to  9 matrices.
 Large coefficients: NSaved=  9 BigCof=   41.80 CofMax=   10.00 Det=-2.14D-09
 Inversion failed.  Reducing to  8 matrices.
 Large coefficients: NSaved=  8 BigCof=   32.67 CofMax=   10.00 Det=-2.55D-09
 Inversion failed.  Reducing to  7 matrices.
 Large coefficients: NSaved=  7 BigCof=   29.44 CofMax=   10.00 Det=-2.65D-09
 Inversion failed.  Reducing to  6 matrices.
 Large coefficients: NSaved=  6 BigCof=   29.16 CofMax=   10.00 Det=-2.67D-09
 Inversion failed.  Reducing to  5 matrices.
 Large coefficients: NSaved=  5 BigCof=   29.13 CofMax=   10.00 Det=-3.07D-09
 Inversion failed.  Reducing to  4 matrices.
 Coeff-Com:  0.288D+01 0.126D+00-0.800D+01 0.599D+01
 Coeff:      0.288D+01 0.126D+00-0.800D+01 0.599D+01
 Gap=     0.195 Goal=   None    Shift=    0.000
 Gap=     0.230 Goal=   None    Shift=    0.000
 GapD=    0.195 DampG=1.000 DampE=1.000 DampFc=1.0000 IDamp=-1.
 RMSDP=2.11D-04 MaxDP=4.28D-03 DE= 6.52D-05 OVMax= 1.20D-02

 Cycle  17  Pass 1  IDiag  1:
 E= -196.198098995525     Delta-E=        0.000194149411 Rises=F Damp=F
 DIIS: error= 1.53D-03 at cycle  17 NSaved=   5.
 NSaved= 5 IEnMin= 2 EnMin= -196.198362632116     IErMin= 5 ErrMin= 1.53D-03
 ErrMax= 1.53D-03  0.00D+00 EMaxC= 1.00D+00 BMatC= 6.25D-05 BMatP= 6.43D-05
 IDIUse=1 WtCom= 1.00D+00 WtEn= 0.00D+00
 Large coefficients: NSaved=  5 BigCof=   24.22 CofMax=   10.00 Det=-4.21D-09
 Inversion failed.  Reducing to  4 matrices.
 Large coefficients: NSaved=  4 BigCof=   12.89 CofMax=   10.00 Det=-2.65D-08
 Inversion failed.  Reducing to  3 matrices.
 Coeff-Com:  0.484D+00-0.211D+01 0.262D+01
 Coeff:      0.484D+00-0.211D+01 0.262D+01
 Gap=     0.193 Goal=   None    Shift=    0.000
 Gap=     0.231 Goal=   None    Shift=    0.000
 GapD=    0.193 DampG=1.000 DampE=1.000 DampFc=1.0000 IDamp=-1.
 RMSDP=1.22D-04 MaxDP=2.19D-03 DE= 1.94D-04 OVMax= 7.43D-03

 Cycle  18  Pass 1  IDiag  1:
 E= -196.197989586979     Delta-E=        0.000109408545 Rises=F Damp=F
 DIIS: error= 1.62D-03 at cycle  18 NSaved=   4.
 NSaved= 4 IEnMin= 1 EnMin= -196.198362632116     IErMin= 3 ErrMin= 1.53D-03
 ErrMax= 1.62D-03  0.00D+00 EMaxC= 1.00D+00 BMatC= 6.55D-05 BMatP= 6.25D-05
 IDIUse=1 WtCom= 1.00D+00 WtEn= 0.00D+00
 Coeff-Com:  0.210D+01-0.913D+01 0.580D+01 0.222D+01
 Coeff:      0.210D+01-0.913D+01 0.580D+01 0.222D+01
 Gap=     0.178 Goal=   None    Shift=    0.000
 Gap=     0.238 Goal=   None    Shift=    0.000
 GapD=    0.178 DampG=1.000 DampE=1.000 DampFc=1.0000 IDamp=-1.
 RMSDP=1.32D-03 MaxDP=2.57D-02 DE= 1.09D-04 OVMax= 7.88D-02

 Cycle  19  Pass 1  IDiag  1:
 E= -196.196915321456     Delta-E=        0.001074265523 Rises=F Damp=F
 DIIS: error= 1.97D-03 at cycle  19 NSaved=   5.
 NSaved= 5 IEnMin= 1 EnMin= -196.198362632116     IErMin= 3 ErrMin= 1.53D-03
 ErrMax= 1.97D-03  0.00D+00 EMaxC= 1.00D+00 BMatC= 6.50D-05 BMatP= 6.25D-05
 IDIUse=1 WtCom= 1.00D+00 WtEn= 0.00D+00
 Large coefficients: NSaved=  5 BigCof=   10.16 CofMax=   10.00 Det=-1.24D-07
 Inversion failed.  Reducing to  4 matrices.
 Coeff-Com:  0.222D+01-0.198D+01 0.164D+00 0.599D+00
 Coeff:      0.222D+01-0.198D+01 0.164D+00 0.599D+00
 Gap=     0.189 Goal=   None    Shift=    0.000
 Gap=     0.234 Goal=   None    Shift=    0.000
 RMSDP=9.56D-04 MaxDP=1.99D-02 DE= 1.07D-03 OVMax= 6.06D-02

 Cycle  20  Pass 1  IDiag  1:
 E= -196.197662636108     Delta-E=       -0.000747314651 Rises=F Damp=F
 DIIS: error= 1.91D-03 at cycle  20 NSaved=   5.
 NSaved= 5 IEnMin= 1 EnMin= -196.198362632116     IErMin= 1 ErrMin= 1.61D-03
 ErrMax= 1.91D-03  0.00D+00 EMaxC= 1.00D+00 BMatC= 6.78D-05 BMatP= 6.46D-05
 IDIUse=1 WtCom= 1.00D+00 WtEn= 0.00D+00
 Coeff-Com:  0.122D+01-0.441D+01 0.852D+00 0.150D+01 0.184D+01
 Coeff:      0.122D+01-0.441D+01 0.852D+00 0.150D+01 0.184D+01
 Gap=     0.158 Goal=   None    Shift=    0.000
 Gap=     0.256 Goal=   None    Shift=    0.000
 GapD=    0.158 DampG=1.000 DampE=1.000 DampFc=1.0000 IDamp=-1.
 RMSDP=3.08D-03 MaxDP=6.56D-02 DE=-7.47D-04 OVMax= 1.87D-01

 Cycle  21  Pass 1  IDiag  1:
 E= -196.195478358497     Delta-E=        0.002184277611 Rises=F Damp=F
 DIIS: error= 3.70D-03 at cycle  21 NSaved=   6.
 NSaved= 6 IEnMin= 1 EnMin= -196.198362632116     IErMin= 1 ErrMin= 1.61D-03
 ErrMax= 3.70D-03  0.00D+00 EMaxC= 1.00D+00 BMatC= 3.09D-04 BMatP= 6.46D-05
 IDIUse=1 WtCom= 1.00D+00 WtEn= 0.00D+00
 Coeff-Com:  0.129D+01-0.466D+01 0.115D+01 0.201D+01 0.148D+01-0.270D+00
 Coeff:      0.129D+01-0.466D+01 0.115D+01 0.201D+01 0.148D+01-0.270D+00
 Gap=     0.171 Goal=   None    Shift=    0.000
 Gap=     0.259 Goal=   None    Shift=    0.000
 GapD=    0.171 DampG=1.000 DampE=1.000 DampFc=1.0000 IDamp=-1.
 RMSDP=3.29D-04 MaxDP=6.47D-03 DE= 2.18D-03 OVMax= 1.94D-02

 Cycle  22  Pass 1  IDiag  1:
 E= -196.195648533874     Delta-E=       -0.000170175377 Rises=F Damp=F
 DIIS: error= 3.72D-03 at cycle  22 NSaved=   7.
 NSaved= 7 IEnMin= 1 EnMin= -196.198362632116     IErMin= 1 ErrMin= 1.61D-03
 ErrMax= 3.72D-03  0.00D+00 EMaxC= 1.00D+00 BMatC= 3.29D-04 BMatP= 6.46D-05
 IDIUse=1 WtCom= 1.00D+00 WtEn= 0.00D+00
 Coeff-Com:  0.123D+01-0.378D+01 0.503D+00 0.226D+01 0.125D+01-0.295D+01
 Coeff-Com:  0.249D+01
 Coeff:      0.123D+01-0.378D+01 0.503D+00 0.226D+01 0.125D+01-0.295D+01
 Coeff:      0.249D+01
 Gap=     0.176 Goal=   None    Shift=    0.000
 Gap=     0.240 Goal=   None    Shift=    0.000
 GapD=    0.176 DampG=1.000 DampE=1.000 DampFc=1.0000 IDamp=-1.
 RMSDP=1.46D-03 MaxDP=2.91D-02 DE=-1.70D-04 OVMax= 8.54D-02

 Cycle  23  Pass 1  IDiag  1:
 E= -196.196468396088     Delta-E=       -0.000819862214 Rises=F Damp=F
 DIIS: error= 3.96D-03 at cycle  23 NSaved=   8.
 NSaved= 8 IEnMin= 1 EnMin= -196.198362632116     IErMin= 1 ErrMin= 1.61D-03
 ErrMax= 3.96D-03  0.00D+00 EMaxC= 1.00D+00 BMatC= 3.56D-04 BMatP= 6.46D-05
 IDIUse=1 WtCom= 1.00D+00 WtEn= 0.00D+00
 Coeff-Com:  0.147D+01-0.359D+01 0.529D+00 0.264D+01 0.631D+00-0.325D+01
 Coeff-Com:  0.353D+01-0.958D+00
 Coeff:      0.147D+01-0.359D+01 0.529D+00 0.264D+01 0.631D+00-0.325D+01
 Coeff:      0.353D+01-0.958D+00
 Gap=     0.174 Goal=   None    Shift=    0.000
 Gap=     0.250 Goal=   None    Shift=    0.000
 GapD=    0.174 DampG=1.000 DampE=1.000 DampFc=1.0000 IDamp=-1.
 RMSDP=7.35D-04 MaxDP=1.39D-02 DE=-8.20D-04 OVMax= 4.48D-02

 Cycle  24  Pass 1  IDiag  1:
 E= -196.196102162078     Delta-E=        0.000366234010 Rises=F Damp=F
 DIIS: error= 3.36D-03 at cycle  24 NSaved=   9.
 NSaved= 9 IEnMin= 1 EnMin= -196.198362632116     IErMin= 1 ErrMin= 1.61D-03
 ErrMax= 3.36D-03  0.00D+00 EMaxC= 1.00D+00 BMatC= 2.55D-04 BMatP= 6.46D-05
 IDIUse=1 WtCom= 1.00D+00 WtEn= 0.00D+00
 Coeff-Com:  0.146D+01-0.276D+00-0.136D+01 0.185D+01-0.588D+00-0.506D+01
 Coeff-Com:  0.508D+01-0.401D+01 0.391D+01
 Coeff:      0.146D+01-0.276D+00-0.136D+01 0.185D+01-0.588D+00-0.506D+01
 Coeff:      0.508D+01-0.401D+01 0.391D+01
 Gap=     0.172 Goal=   None    Shift=    0.000
 Gap=     0.256 Goal=   None    Shift=    0.000
 GapD=    0.172 DampG=1.000 DampE=1.000 DampFc=1.0000 IDamp=-1.
 RMSDP=3.88D-04 MaxDP=8.08D-03 DE= 3.66D-04 OVMax= 2.74D-02

 Cycle  25  Pass 1  IDiag  1:
 E= -196.196035959651     Delta-E=        0.000066202428 Rises=F Damp=F
 DIIS: error= 2.04D-03 at cycle  25 NSaved=  10.
 NSaved=10 IEnMin= 1 EnMin= -196.198362632116     IErMin= 1 ErrMin= 1.61D-03
 ErrMax= 2.04D-03  0.00D+00 EMaxC= 1.00D+00 BMatC= 8.09D-05 BMatP= 6.46D-05
 IDIUse=1 WtCom= 1.00D+00 WtEn= 0.00D+00
 Coeff-Com: -0.176D+00-0.107D+01-0.679D+00 0.363D-01 0.914D+00 0.345D+00
 Coeff-Com: -0.122D+01-0.421D+00 0.397D+00 0.287D+01
 Coeff:     -0.176D+00-0.107D+01-0.679D+00 0.363D-01 0.914D+00 0.345D+00
 Coeff:     -0.122D+01-0.421D+00 0.397D+00 0.287D+01
 Gap=     0.156 Goal=   None    Shift=    0.000
 Gap=     0.245 Goal=   None    Shift=    0.000
 GapD=    0.156 DampG=1.000 DampE=1.000 DampFc=1.0000 IDamp=-1.
 RMSDP=3.15D-03 MaxDP=6.79D-02 DE= 6.62D-05 OVMax= 1.60D-01

 Cycle  26  Pass 1  IDiag  1:
 E= -196.192398565782     Delta-E=        0.003637393869 Rises=F Damp=F
 DIIS: error= 7.97D-03 at cycle  26 NSaved=  11.
 NSaved=11 IEnMin= 1 EnMin= -196.198362632116     IErMin= 1 ErrMin= 1.61D-03
 ErrMax= 7.97D-03  0.00D+00 EMaxC= 1.00D+00 BMatC= 1.30D-03 BMatP= 6.46D-05
 IDIUse=1 WtCom= 1.00D+00 WtEn= 0.00D+00
 Coeff-Com: -0.582D+00 0.176D+01-0.960D+00-0.601D+00-0.185D+00 0.127D+01
 Coeff-Com: -0.598D+00-0.158D+01 0.129D+01 0.151D+01-0.327D+00
 Coeff:     -0.582D+00 0.176D+01-0.960D+00-0.601D+00-0.185D+00 0.127D+01
 Coeff:     -0.598D+00-0.158D+01 0.129D+01 0.151D+01-0.327D+00
 Gap=     0.163 Goal=   None    Shift=    0.000
 Gap=     0.256 Goal=   None    Shift=    0.000
 GapD=    0.163 DampG=1.000 DampE=1.000 DampFc=1.0000 IDamp=-1.
 RMSDP=2.02D-03 MaxDP=4.46D-02 DE= 3.64D-03 OVMax= 1.25D-01

 Cycle  27  Pass 1  IDiag  1:
 E= -196.195366921759     Delta-E=       -0.002968355977 Rises=F Damp=F
 DIIS: error= 2.35D-03 at cycle  27 NSaved=  12.
 NSaved=12 IEnMin= 1 EnMin= -196.198362632116     IErMin= 1 ErrMin= 1.61D-03
 ErrMax= 2.35D-03  0.00D+00 EMaxC= 1.00D+00 BMatC= 9.60D-05 BMatP= 6.46D-05
 IDIUse=1 WtCom= 1.00D+00 WtEn= 0.00D+00
 Coeff-Com: -0.416D+00-0.122D-01-0.450D+00 0.121D+00 0.856D-01-0.216D+00
 Coeff-Com:  0.406D+00-0.115D+01 0.757D+00 0.133D+00-0.344D+00 0.209D+01
 Coeff:     -0.416D+00-0.122D-01-0.450D+00 0.121D+00 0.856D-01-0.216D+00
 Coeff:      0.406D+00-0.115D+01 0.757D+00 0.133D+00-0.344D+00 0.209D+01
 Gap=     0.161 Goal=   None    Shift=    0.000
 Gap=     0.241 Goal=   None    Shift=    0.000
 GapD=    0.161 DampG=1.000 DampE=1.000 DampFc=1.0000 IDamp=-1.
 RMSDP=2.79D-03 MaxDP=5.87D-02 DE=-2.97D-03 OVMax= 1.52D-01

 Cycle  28  Pass 1  IDiag  1:
 E= -196.190644271936     Delta-E=        0.004722649823 Rises=F Damp=F
 DIIS: error= 9.40D-03 at cycle  28 NSaved=  13.
 NSaved=13 IEnMin= 1 EnMin= -196.198362632116     IErMin= 1 ErrMin= 1.61D-03
 ErrMax= 9.40D-03  0.00D+00 EMaxC= 1.00D+00 BMatC= 1.72D-03 BMatP= 6.46D-05
 IDIUse=1 WtCom= 1.00D+00 WtEn= 0.00D+00
 Coeff-Com: -0.410D+00-0.614D-01-0.422D+00 0.133D+00 0.992D-01-0.222D+00
 Coeff-Com:  0.400D+00-0.113D+01 0.722D+00 0.111D+00-0.320D+00 0.211D+01
 Coeff-Com: -0.161D-01
 Coeff:     -0.410D+00-0.614D-01-0.422D+00 0.133D+00 0.992D-01-0.222D+00
 Coeff:      0.400D+00-0.113D+01 0.722D+00 0.111D+00-0.320D+00 0.211D+01
 Coeff:     -0.161D-01
 Gap=     0.172 Goal=   None    Shift=    0.000
 Gap=     0.241 Goal=   None    Shift=    0.000
 GapD=    0.172 DampG=1.000 DampE=1.000 DampFc=1.0000 IDamp=-1.
 RMSDP=1.85D-05 MaxDP=3.86D-04 DE= 4.72D-03 OVMax= 1.00D-03

 Cycle  29  Pass 1  IDiag  1:
 E= -196.190586770703     Delta-E=        0.000057501233 Rises=F Damp=F
 DIIS: error= 9.46D-03 at cycle  29 NSaved=  14.
 NSaved=14 IEnMin= 1 EnMin= -196.198362632116     IErMin= 1 ErrMin= 1.61D-03
 ErrMax= 9.46D-03  0.00D+00 EMaxC= 1.00D+00 BMatC= 1.75D-03 BMatP= 6.46D-05
 IDIUse=1 WtCom= 1.00D+00 WtEn= 0.00D+00
 Large coefficients: NSaved= 14 BigCof=   27.89 CofMax=   10.00 Det=-1.72D-10
 Inversion failed.  Reducing to 13 matrices.
 Large coefficients: NSaved= 13 BigCof=   30.00 CofMax=   10.00 Det=-1.91D-10
 Inversion failed.  Reducing to 12 matrices.
 Coeff-Com: -0.518D+00 0.103D+01-0.626D+00-0.459D+00 0.974D-01 0.133D+01
 Coeff-Com: -0.919D+00-0.121D+01 0.795D+00 0.162D+01 0.643D+01-0.656D+01
 Coeff:     -0.518D+00 0.103D+01-0.626D+00-0.459D+00 0.974D-01 0.133D+01
 Coeff:     -0.919D+00-0.121D+01 0.795D+00 0.162D+01 0.643D+01-0.656D+01
 Gap=     0.160 Goal=   None    Shift=    0.000
 Gap=     0.254 Goal=   None    Shift=    0.000
 GapD=    0.160 DampG=1.000 DampE=1.000 DampFc=1.0000 IDamp=-1.
 RMSDP=2.45D-03 MaxDP=5.10D-02 DE= 5.75D-05 OVMax= 1.45D-01

 Cycle  30  Pass 1  IDiag  1:
 E= -196.195059508477     Delta-E=       -0.004472737775 Rises=F Damp=F
 DIIS: error= 3.10D-03 at cycle  30 NSaved=  13.
 NSaved=13 IEnMin= 1 EnMin= -196.198362632116     IErMin= 1 ErrMin= 1.61D-03
 ErrMax= 3.10D-03  0.00D+00 EMaxC= 1.00D+00 BMatC= 1.76D-04 BMatP= 6.46D-05
 IDIUse=1 WtCom= 1.00D+00 WtEn= 0.00D+00
 Large coefficients: NSaved= 13 BigCof=   42.36 CofMax=   10.00 Det=-1.48D-10
 Inversion failed.  Reducing to 12 matrices.
 Coeff-Com: -0.397D+00-0.826D+00 0.776D-01 0.266D+00 0.544D+00 0.243D+00
 Coeff-Com: -0.235D+00-0.801D+00 0.819D-01 0.286D+00-0.359D+00 0.212D+01
 Coeff:     -0.397D+00-0.826D+00 0.776D-01 0.266D+00 0.544D+00 0.243D+00
 Coeff:     -0.235D+00-0.801D+00 0.819D-01 0.286D+00-0.359D+00 0.212D+01
 Gap=     0.164 Goal=   None    Shift=    0.000
 Gap=     0.240 Goal=   None    Shift=    0.000
 GapD=    0.164 DampG=1.000 DampE=1.000 DampFc=1.0000 IDamp=-1.
 RMSDP=2.51D-03 MaxDP=5.22D-02 DE=-4.47D-03 OVMax= 1.38D-01

 Cycle  31  Pass 1  IDiag  1:
 E= -196.190387000958     Delta-E=        0.004672507519 Rises=F Damp=F
 DIIS: error= 9.67D-03 at cycle  31 NSaved=  13.
 NSaved=13 IEnMin= 1 EnMin= -196.198362632116     IErMin= 1 ErrMin= 1.61D-03
 ErrMax= 9.67D-03  0.00D+00 EMaxC= 1.00D+00 BMatC= 1.84D-03 BMatP= 6.46D-05
 IDIUse=1 WtCom= 1.00D+00 WtEn= 0.00D+00
 Coeff-Com: -0.274D+00-0.857D+00-0.144D+00 0.265D+00 0.415D+00 0.618D-01
 Coeff-Com: -0.397D+00-0.908D+00 0.284D+00 0.149D+01 0.426D+01 0.112D+01
 Coeff-Com: -0.431D+01
 Coeff:     -0.274D+00-0.857D+00-0.144D+00 0.265D+00 0.415D+00 0.618D-01
 Coeff:     -0.397D+00-0.908D+00 0.284D+00 0.149D+01 0.426D+01 0.112D+01
 Coeff:     -0.431D+01
 Gap=     0.172 Goal=   None    Shift=    0.000
 Gap=     0.241 Goal=   None    Shift=    0.000
 GapD=    0.172 DampG=1.000 DampE=1.000 DampFc=1.0000 IDamp=-1.
 RMSDP=9.36D-05 MaxDP=1.20D-03 DE= 4.67D-03 OVMax= 4.93D-03

 Cycle  32  Pass 1  IDiag  1:
 E= -196.190556932252     Delta-E=       -0.000169931294 Rises=F Damp=F
 DIIS: error= 9.68D-03 at cycle  32 NSaved=  14.
 NSaved=14 IEnMin= 1 EnMin= -196.198362632116     IErMin= 1 ErrMin= 1.61D-03
 ErrMax= 9.68D-03  0.00D+00 EMaxC= 1.00D+00 BMatC= 1.85D-03 BMatP= 6.46D-05
 IDIUse=1 WtCom= 1.00D+00 WtEn= 0.00D+00
 Coeff-Com: -0.222D+00-0.101D+01 0.303D+00 0.183D+00 0.515D+00 0.320D+00
 Coeff-Com: -0.555D+00-0.488D+00-0.206D+00 0.107D+01 0.730D+00 0.127D+01
 Coeff-Com: -0.273D+01 0.182D+01
 Coeff:     -0.222D+00-0.101D+01 0.303D+00 0.183D+00 0.515D+00 0.320D+00
 Coeff:     -0.555D+00-0.488D+00-0.206D+00 0.107D+01 0.730D+00 0.127D+01
 Coeff:     -0.273D+01 0.182D+01
 Gap=     0.166 Goal=   None    Shift=    0.000
 Gap=     0.247 Goal=   None    Shift=    0.000
 GapD=    0.166 DampG=1.000 DampE=1.000 DampFc=1.0000 IDamp=-1.
 RMSDP=1.12D-03 MaxDP=2.25D-02 DE=-1.70D-04 OVMax= 6.17D-02

 >>>>>>>>>> Convergence criterion not met.
 SCF Done:  E(ULC-wHPBE) =  -196.190556932     A.U. after   33 cycles
            NFock= 32  Conv=0.11D-02     -V/T= 2.0215
 <Sx>= 0.0000 <Sy>= 0.0000 <Sz>= 0.5000 <S**2>= 1.1177 S= 0.6695
 <L.S>= 0.000000000000E+00
 KE= 1.920545335009D+02 PE=-7.303826939322D+02 EE= 1.971157037059D+02
 Annihilation of the first spin contaminant:
 S**2 before annihilation     1.1177,   after     0.8246
 Leave Link  502 at Thu Mar  5 12:43:16 2020, MaxMem=  6710886400 cpu:              52.1 elap:               3.3
 (Enter /opt/ohpc/pub/libs/gaussian/g16-A.03/sandybridge/g16/l508.exe)
 Keep R1 and R2 ints in memory in symmetry-blocked form, NReq=16816059.
 FoFCou: FMM=F IPFlag=           0 FMFlag=           0 FMFlg1=           0
         NFxFlg=           0 DoJE=F BraDBF=F KetDBF=F FulRan=T
         wScrn=  0.000000 ICntrl=       600 IOpCl=  0 I1Cent=           0 NGrid=           0
         NMat0=    1 NMatS0=   1653 NMatT0=    0 NMatD0=    1 NMtDS0=    0 NMtDT0=    0
 Petite list used in FoFCou.
 Tight linear equation convergence will be used.
 ULC-wHPBE wavefunction.
 Quadratic Convergence SCF Method.
 Line search only if initial step raises energy.
 Iteration   1 EE= -196.193269899159                                    Grad=1.997D-02 Max rot=    0.7611 deg.
 Gradient too large for Newton-Raphson -- use scaled steepest descent instead.
     ILin= 1 X=0.000D+00 Y=-1.961932698992D+02 DE= 0.00D+00 F= -7.80D-04
     ILin= 2 X=3.000D-01 Y=-1.961934844508D+02 DE=-2.15D-04 F= -6.51D-04
     ILin= 3 X=6.000D-01 Y=-1.961936603616D+02 DE=-3.90D-04 F= -5.22D-04
     ILin= 4 X=1.200D+00 Y=-1.961938961693D+02 DE=-6.26D-04 F= -2.64D-04
     ILin= 5 X=2.400D+00 Y=-1.961939036375D+02 DE=-6.34D-04 F=  2.51D-04
     Accept linear search using points  4 and  5.
     An  expanding polynomial of degree  5 produced  1.8187
 Iteration   2 EE= -196.193977277694     Delta-E=       -0.000707378535 Grad=1.550D-02 Max rot=    0.3533 deg.
 Gradient too large for Newton-Raphson -- use scaled steepest descent instead.
     ILin= 1 X=0.000D+00 Y=-1.961939772777D+02 DE= 0.00D+00 F= -3.73D-04
     ILin= 2 X=7.000D-01 Y=-1.961941768538D+02 DE=-2.00D-04 F= -1.98D-04
     ILin= 3 X=1.500D+00 Y=-1.961942549838D+02 DE=-2.78D-04 F=  2.24D-06
     Accept linear search using points  2 and  3.
     An  expanding polynomial of degree  3 produced  1.4814
     Minimum is close to point  3 DX= -1.86D-02 DF= -2.62D-08 DXR=  1.26D-02 DFR=  9.43D-05 which will be used.
 Iteration   3 EE= -196.194254983830     Delta-E=       -0.000277706136 Grad=1.247D-02 Max rot=    0.3293 deg.
 Gradient too large for Newton-Raphson -- use scaled steepest descent instead.
     ILin= 1 X=0.000D+00 Y=-1.961942549838D+02 DE= 0.00D+00 F= -2.63D-04
     ILin= 2 X=1.600D+00 Y=-1.961944517026D+02 DE=-1.97D-04 F=  1.75D-05
     Accept linear search using points  1 and  2.
     An  expanding polynomial of degree  2 produced  1.5678
     Minimum is close to point  2 DX= -3.22D-02 DF= -1.75D-07 DXR=  2.06D-02 DFR=  8.89D-04 which will be used.
 Iteration   4 EE= -196.194451702556     Delta-E=       -0.000196718725 Grad=1.277D-02 Max rot=    0.3024 deg.
 Gradient too large for Newton-Raphson -- use scaled steepest descent instead.
     ILin= 1 X=0.000D+00 Y=-1.961944517026D+02 DE= 0.00D+00 F= -2.59D-04
     ILin= 2 X=1.500D+00 Y=-1.961946080481D+02 DE=-1.56D-04 F=  5.08D-05
     Accept linear search using points  1 and  2.
     An  expanding polynomial of degree  2 produced  1.3814
     Minimum is close to point  2 DX= -1.19D-01 DF= -1.97D-06 DXR=  8.58D-02 DFR=  1.26D-02 which will be used.
 Iteration   5 EE= -196.194608048124     Delta-E=       -0.000156345569 Grad=1.249D-02 Max rot=    0.2508 deg.
 Gradient too large for Newton-Raphson -- use scaled steepest descent instead.
     ILin= 1 X=0.000D+00 Y=-1.961946080481D+02 DE= 0.00D+00 F= -2.47D-04
     ILin= 2 X=1.500D+00 Y=-1.961947372041D+02 DE=-1.29D-04 F=  7.50D-05
     Accept linear search using points  1 and  2.
     An  expanding polynomial of degree  2 produced  1.3026
 Iteration   6 EE= -196.194747827312     Delta-E=       -0.000139779188 Grad=1.030D-02 Max rot=    0.2561 deg.
 Gradient too large for Newton-Raphson -- use scaled steepest descent instead.
     ILin= 1 X=0.000D+00 Y=-1.961947478273D+02 DE= 0.00D+00 F= -1.75D-04
     ILin= 2 X=1.300D+00 Y=-1.961948639927D+02 DE=-1.16D-04 F= -3.41D-06
     Reject lnstep minimum 1.312D+00 FVal=-1.961948640088D+02 Lims=  0.00D+00  1.30D+00
     ILin= 3 X=2.700D+00 Y=-1.961947394063D+02 DE= 8.42D-06 F=  1.81D-04
     An  expanding polynomial of degree  3 produced  1.3264
     Minimum is close to point  2 DX=  2.64D-02 DF= -4.60D-08 DXR=  1.99D-02 DFR=  3.96D-04 which will be used.
 Iteration   7 EE= -196.194863992724     Delta-E=       -0.000116165412 Grad=8.672D-03 Max rot=    0.2110 deg.
 QCNR:  CnvC1=8.67D-08 CnvC2=8.67D-07
 LinEq1:  Iter=  0 NonCon=     1 RMS=4.96D-04 Max=1.21D-02 NDo=     1
 AX will form     1 AO Fock derivatives at one time.
 LinEq1:  Iter=  1 NonCon=     1 RMS=4.89D-04 Max=7.82D-03 NDo=     1
 LinEq1:  Iter=  2 NonCon=     1 RMS=5.58D-05 Max=9.98D-04 NDo=     1
 LinEq1:  Iter=  3 NonCon=     1 RMS=1.67D-05 Max=2.84D-04 NDo=     1
 LinEq1:  Iter=  4 NonCon=     1 RMS=6.28D-06 Max=8.34D-05 NDo=     1
 LinEq1:  Iter=  5 NonCon=     1 RMS=2.98D-06 Max=4.64D-05 NDo=     1
 LinEq1:  Iter=  6 NonCon=     1 RMS=7.64D-07 Max=9.23D-06 NDo=     1
 LinEq1:  Iter=  7 NonCon=     1 RMS=3.87D-07 Max=4.26D-06 NDo=     1
 LinEq1:  Iter=  8 NonCon=     1 RMS=1.56D-07 Max=1.89D-06 NDo=     1
 LinEq1:  Iter=  9 NonCon=     0 RMS=3.09D-08 Max=5.61D-07 NDo=     1
 Linear equations converged to 8.672D-08 8.672D-07 after     9 iterations.
 Angle between quadratic step and gradient=  48.64 degrees.
     ILin= 1 X=0.000D+00 Y=-1.961948639927D+02 DE= 0.00D+00 F= -1.78D-03
     ILin= 2 X=1.000D+00 Y=-1.961961040178D+02 DE=-1.24D-03 F= -9.94D-04
     Reject lnstep minimum 2.656D+00 FVal=-1.961973973888D+02 Lims=  0.00D+00  1.00D+00
     ILin= 3 X=1.600D+00 Y=-1.961967297523D+02 DE=-1.87D-03 F= -1.13D-03
     ILin= 4 X=2.400D+00 Y=-1.961977650755D+02 DE=-2.90D-03 F= -1.43D-03
     ILin= 5 X=3.800D+00 Y=-1.961994877985D+02 DE=-4.62D-03 F= -5.28D-04
     ILin= 6 X=5.900D+00 Y=-1.961924116214D+02 DE= 2.45D-03 F=  9.29D-03
     An  expanding polynomial of degree  6 produced  4.0548
     Minimum is close to point  5 DX=  2.55D-01 DF= -7.26D-05 DXR=  6.28D-02 DFR=  1.57D-02 which will be used.
 Iteration   8 EE= -196.199487798503     Delta-E=       -0.004623805778 Grad=2.294D-02 Max rot=    0.4335 deg.
 Gradient too large for Newton-Raphson -- use scaled steepest descent instead.
     ILin= 1 X=0.000D+00 Y=-1.961994877985D+02 DE= 0.00D+00 F= -7.97D-04
     ILin= 2 X=1.300D+00 Y=-1.962000171835D+02 DE=-5.29D-04 F= -1.71D-05
     Reject lnstep minimum 1.314D+00 FVal=-1.962000172728D+02 Lims=  0.00D+00  1.30D+00
     ILin= 3 X=2.600D+00 Y=-1.961995326112D+02 DE=-4.48D-05 F=  7.63D-04
     An  expanding polynomial of degree  3 produced  1.3287
     Minimum is close to point  2 DX=  2.87D-02 DF= -2.48D-07 DXR=  2.16D-02 DFR=  4.68D-04 which will be used.
 Iteration   9 EE= -196.200017183463     Delta-E=       -0.000529384960 Grad=1.226D-02 Max rot=    0.2187 deg.
 Gradient too large for Newton-Raphson -- use scaled steepest descent instead.
     ILin= 1 X=0.000D+00 Y=-1.962000171835D+02 DE= 0.00D+00 F= -2.20D-04
     ILin= 2 X=1.300D+00 Y=-1.962001498636D+02 DE=-1.33D-04 F=  1.62D-05
     Accept linear search using points  1 and  2.
     An  expanding polynomial of degree  2 produced  1.2518
     Minimum is close to point  2 DX= -4.82D-02 DF= -2.97D-07 DXR=  3.85D-02 DFR=  2.24D-03 which will be used.
 Iteration  10 EE= -196.200149863615     Delta-E=       -0.000132680152 Grad=8.405D-03 Max rot=    0.1760 deg.
 QCNR:  CnvC1=8.41D-08 CnvC2=8.41D-07
 LinEq1:  Iter=  0 NonCon=     1 RMS=3.84D-04 Max=9.11D-03 NDo=     1
 LinEq1:  Iter=  1 NonCon=     1 RMS=4.00D-04 Max=6.03D-03 NDo=     1
 LinEq1:  Iter=  2 NonCon=     1 RMS=1.71D-04 Max=4.10D-03 NDo=     1
 LinEq1:  Iter=  3 NonCon=     1 RMS=7.84D-05 Max=1.19D-03 NDo=     1
 LinEq1:  Iter=  4 NonCon=     1 RMS=2.36D-05 Max=3.75D-04 NDo=     1
 LinEq1:  Iter=  5 NonCon=     1 RMS=9.14D-06 Max=1.22D-04 NDo=     1
 LinEq1:  Iter=  6 NonCon=     1 RMS=4.99D-06 Max=6.30D-05 NDo=     1
 LinEq1:  Iter=  7 NonCon=     1 RMS=1.23D-06 Max=1.38D-05 NDo=     1
 LinEq1:  Iter=  8 NonCon=     1 RMS=2.74D-07 Max=3.55D-06 NDo=     1
 LinEq1:  Iter=  9 NonCon=     1 RMS=5.40D-08 Max=1.15D-06 NDo=     1
 LinEq1:  Iter= 10 NonCon=     0 RMS=8.72D-09 Max=8.38D-08 NDo=     1
 Linear equations converged to 8.405D-08 8.405D-07 after    10 iterations.
 Angle between quadratic step and gradient=  61.86 degrees.
     ILin= 1 X=0.000D+00 Y=-1.962001498636D+02 DE= 0.00D+00 F= -7.56D-04
     ILin= 2 X=1.000D+00 Y=-1.962004344706D+02 DE=-2.85D-04 F=  2.85D-04
     Accept linear search using points  1 and  2.
     An  expanding polynomial of degree  2 produced  0.7766
 Iteration  11 EE= -196.200465789283     Delta-E=       -0.000315925668 Grad=1.739D-03 Max rot=    0.0225 deg.
 QCNR:  CnvC1=1.74D-08 CnvC2=1.74D-07
 LinEq1:  Iter=  0 NonCon=     1 RMS=6.86D-05 Max=9.75D-04 NDo=     1
 LinEq1:  Iter=  1 NonCon=     1 RMS=5.86D-05 Max=1.05D-03 NDo=     1
 LinEq1:  Iter=  2 NonCon=     1 RMS=2.57D-05 Max=5.86D-04 NDo=     1
 LinEq1:  Iter=  3 NonCon=     1 RMS=1.42D-05 Max=2.26D-04 NDo=     1
 LinEq1:  Iter=  4 NonCon=     1 RMS=4.22D-06 Max=9.11D-05 NDo=     1
 LinEq1:  Iter=  5 NonCon=     1 RMS=1.91D-06 Max=2.63D-05 NDo=     1
 LinEq1:  Iter=  6 NonCon=     1 RMS=1.04D-06 Max=1.78D-05 NDo=     1
 LinEq1:  Iter=  7 NonCon=     1 RMS=3.38D-07 Max=4.90D-06 NDo=     1
 LinEq1:  Iter=  8 NonCon=     1 RMS=7.71D-08 Max=9.95D-07 NDo=     1
 LinEq1:  Iter=  9 NonCon=     1 RMS=1.93D-08 Max=3.34D-07 NDo=     1
 LinEq1:  Iter= 10 NonCon=     0 RMS=3.67D-09 Max=6.53D-08 NDo=     1
 Linear equations converged to 1.739D-08 1.739D-07 after    10 iterations.
 Angle between quadratic step and gradient=  57.68 degrees.
     ILin= 1 X=0.000D+00 Y=-1.962004657893D+02 DE= 0.00D+00 F= -7.29D-06
     ILin= 2 X=1.000D+00 Y=-1.962004694358D+02 DE=-3.65D-06
 Iteration  12 EE= -196.200469435820     Delta-E=       -0.000003646537 Grad=2.448D-06 Max rot=    0.0001 deg.
 Rotation gradient small -- convergence achieved.
 Orbital symmetries in SymMO:
    1=1    2=4    3=4    4=1    5=1    6=1    7=4    8=1    9=4   10=1
   11=1   12=4   13=4   14=1   15=3   16=1   17=2   18=3   19=4   20=1
   21=2   22=3   23=1   24=4   25=1   26=4   27=1   28=1   29=4   30=1
   31=4   32=3   33=4   34=3   35=2   36=1   37=1   38=4   39=1   40=2
   41=1   42=4   43=3   44=1   45=4   46=1   47=4   48=1   49=1   50=1
   51=4   52=1   53=4   54=4   55=1   56=1   57=4
 Orbital symmetries in SymMO:
    1=4    2=1    3=4    4=1    5=1    6=1    7=4    8=1    9=4   10=1
   11=1   12=4   13=4   14=1   15=1   16=3   17=2   18=1   19=3   20=4
   21=2   22=3   23=1   24=4   25=1   26=4   27=1   28=1   29=4   30=1
   31=4   32=3   33=4   34=1   35=2   36=3   37=1   38=4   39=1   40=2
   41=1   42=4   43=3   44=1   45=4   46=1   47=4   48=1   49=1   50=1
   51=4   52=1   53=4   54=4   55=1   56=1   57=4
 SCF Done:  E(ULC-wHPBE) =  -196.200469436     a.u. after   12 cycles
            Convg  =    0.2448D-05                    54 Fock formations.
              S**2 =  1.1257                  -V/T =  2.0214
 <Sx>= 0.0000 <Sy>= 0.0000 <Sz>= 0.5000 <S**2>= 1.1257 S= 0.6729
 <L.S>= 0.000000000000E+00
 Annihilation of the first spin contaminant:
 S**2 before annihilation     1.1257,   after     0.8473
 Leave Link  508 at Thu Mar  5 12:43:32 2020, MaxMem=  6710886400 cpu:             247.8 elap:              15.6
 (Enter /opt/ohpc/pub/libs/gaussian/g16-A.03/sandybridge/g16/l601.exe)
 Copying SCF densities to generalized density rwf, IOpCl= 1 IROHF=0.

 **********************************************************************

            Population analysis using the SCF density.

 **********************************************************************

 Orbital symmetries:
 Alpha Orbitals:
       Occupied  (A1) (B2) (B2) (A1) (A1) (A1) (B2) (A1) (B2) (A1)
                 (A1) (B2) (B2) (A1) (B1) (A1) (A2) (B1)
       Virtual   (B2) (A1) (A2) (B1) (A1) (B2) (A1) (B2) (A1) (A1)
                 (B2) (A1) (B2) (B1) (B2) (B1) (A2) (A1) (A1) (B2)
                 (A1) (A2) (A1) (B2) (B1) (A1) (B2) (A1) (B2) (A1)
                 (A1) (A1) (B2) (A1) (B2) (B2) (A1) (A1) (B2)
 Beta  Orbitals:
       Occupied  (B2) (A1) (B2) (A1) (A1) (A1) (B2) (A1) (B2) (A1)
                 (A1) (B2) (B2) (A1) (A1) (B1) (A2)
       Virtual   (A1) (B1) (B2) (A2) (B1) (A1) (B2) (A1) (B2) (A1)
                 (A1) (B2) (A1) (B2) (B1) (B2) (A1) (A2) (B1) (A1)
                 (B2) (A1) (A2) (A1) (B2) (B1) (A1) (B2) (A1) (B2)
                 (A1) (A1) (A1) (B2) (A1) (B2) (B2) (A1) (A1) (B2)
 The electronic state is 2-B1.
 Alpha  occ. eigenvalues --  -10.44067 -10.44066 -10.36255 -10.36255 -10.35503
 Alpha  occ. eigenvalues --   -1.21774  -1.12879  -1.06423  -0.95410  -0.88191
 Alpha  occ. eigenvalues --   -0.87721  -0.80644  -0.75815  -0.73710  -0.72624
 Alpha  occ. eigenvalues --   -0.69198  -0.63636  -0.56770
 Alpha virt. eigenvalues --   -0.37621  -0.31764  -0.23428  -0.12463  -0.08045
 Alpha virt. eigenvalues --   -0.04114  -0.00643   0.00881   0.02202   0.09804
 Alpha virt. eigenvalues --    0.11254   0.19325   0.20720   0.29253   0.32021
 Alpha virt. eigenvalues --    0.39449   0.39502   0.39572   0.41809   0.43072
 Alpha virt. eigenvalues --    0.44970   0.47052   0.47652   0.49654   0.49784
 Alpha virt. eigenvalues --    0.62231   0.64605   0.67305   0.70144   0.70156
 Alpha virt. eigenvalues --    0.75497   0.77427   0.79062   0.85132   0.92200
 Alpha virt. eigenvalues --    0.96733   1.01594   1.24236   1.24712
  Beta  occ. eigenvalues --  -10.42884 -10.42881 -10.36719 -10.36717 -10.34619
  Beta  occ. eigenvalues --   -1.20704  -1.12076  -1.03264  -0.94241  -0.87607
  Beta  occ. eigenvalues --   -0.86760  -0.80048  -0.75486  -0.73031  -0.70493
  Beta  occ. eigenvalues --   -0.69261  -0.60697
  Beta virt. eigenvalues --   -0.38537  -0.31821  -0.31567  -0.20264  -0.09883
  Beta virt. eigenvalues --   -0.07727  -0.03722  -0.00037   0.00951   0.02672
  Beta virt. eigenvalues --    0.10478   0.11815   0.20003   0.20930   0.32605
  Beta virt. eigenvalues --    0.32715   0.40054   0.41186   0.41793   0.42482
  Beta virt. eigenvalues --    0.43635   0.45223   0.47689   0.50068   0.50665
  Beta virt. eigenvalues --    0.51140   0.56491   0.65109   0.65768   0.70255
  Beta virt. eigenvalues --    0.71183   0.76061   0.77377   0.79527   0.86451
  Beta virt. eigenvalues --    0.92340   0.97505   1.02137   1.25044   1.26273
          Condensed to atoms (all electrons):
               1          2          3          4          5          6
     1  C    5.206530   0.497334  -0.060663  -0.041480   0.139488   0.086609
     2  C    0.497334   4.983562   0.482941  -0.056837  -0.041480  -0.002638
     3  C   -0.060663   0.482941   4.880403   0.482941  -0.060663   0.000449
     4  C   -0.041480  -0.056837   0.482941   4.983562   0.497334  -0.002638
     5  C    0.139488  -0.041480  -0.060663   0.497334   5.206530   0.086609
     6  H    0.086609  -0.002638   0.000449  -0.002638   0.086609   0.574871
     7  H    0.346555  -0.027679   0.002246   0.000627  -0.002291  -0.005047
     8  H   -0.022374   0.352688  -0.010272   0.002880   0.000394   0.000079
     9  H    0.003682  -0.026908   0.367797  -0.026908   0.003682  -0.000000
    10  H    0.000394   0.002880  -0.010272   0.352688  -0.022374   0.000079
    11  H   -0.002291   0.000627   0.002246  -0.027679   0.346555  -0.005047
               7          8          9         10         11
     1  C    0.346555  -0.022374   0.003682   0.000394  -0.002291
     2  C   -0.027679   0.352688  -0.026908   0.002880   0.000627
     3  C    0.002246  -0.010272   0.367797  -0.010272   0.002246
     4  C    0.000627   0.002880  -0.026908   0.352688  -0.027679
     5  C   -0.002291   0.000394   0.003682  -0.022374   0.346555
     6  H   -0.005047   0.000079  -0.000000   0.000079  -0.005047
     7  H    0.392471   0.000713  -0.000077  -0.000006   0.000022
     8  H    0.000713   0.374963  -0.002119  -0.000050  -0.000006
     9  H   -0.000077  -0.002119   0.427180  -0.002119  -0.000077
    10  H   -0.000006  -0.000050  -0.002119   0.374963   0.000713
    11  H    0.000022  -0.000006  -0.000077   0.000713   0.392471
          Atomic-Atomic Spin Densities.
               1          2          3          4          5          6
     1  C    0.892496  -0.045966  -0.016467  -0.017564   0.073339  -0.020044
     2  C   -0.045966  -0.390844   0.012640   0.010579  -0.017564  -0.000696
     3  C   -0.016467   0.012640   0.698747   0.012640  -0.016467  -0.000017
     4  C   -0.017564   0.010579   0.012640  -0.390844  -0.045966  -0.000696
     5  C    0.073339  -0.017564  -0.016467  -0.045966   0.892496  -0.020044
     6  H   -0.020044  -0.000696  -0.000017  -0.000696  -0.020044  -0.439309
     7  H   -0.010414   0.003228  -0.000110   0.000071  -0.000307   0.003460
     8  H   -0.002715   0.005953  -0.001292  -0.000229   0.000246  -0.000019
     9  H    0.000101  -0.000048  -0.002040  -0.000048   0.000101   0.000000
    10  H    0.000246  -0.000229  -0.001292   0.005953  -0.002715  -0.000019
    11  H   -0.000307   0.000071  -0.000110   0.003228  -0.010414   0.003460
               7          8          9         10         11
     1  C   -0.010414  -0.002715   0.000101   0.000246  -0.000307
     2  C    0.003228   0.005953  -0.000048  -0.000229   0.000071
     3  C   -0.000110  -0.001292  -0.002040  -0.001292  -0.000110
     4  C    0.000071  -0.000229  -0.000048   0.005953   0.003228
     5  C   -0.000307   0.000246   0.000101  -0.002715  -0.010414
     6  H    0.003460  -0.000019   0.000000  -0.000019   0.003460
     7  H   -0.039787   0.000038   0.000006  -0.000000  -0.000010
     8  H    0.000038   0.021952  -0.000001   0.000008  -0.000000
     9  H    0.000006  -0.000001  -0.030285  -0.000001   0.000006
    10  H   -0.000000   0.000008  -0.000001   0.021952   0.000038
    11  H   -0.000010  -0.000000   0.000006   0.000038  -0.039787
 Mulliken charges and spin densities:
               1          2
     1  C   -0.153783   0.852707
     2  C   -0.164487  -0.422875
     3  C   -0.077152   0.686233
     4  C   -0.164487  -0.422875
     5  C   -0.153783   0.852707
     6  H    0.266674  -0.473923
     7  H    0.292468  -0.043824
     8  H    0.303106   0.023941
     9  H    0.255869  -0.032209
    10  H    0.303106   0.023941
    11  H    0.292468  -0.043824
 Sum of Mulliken charges =   1.00000   1.00000
 Mulliken charges and spin densities with hydrogens summed into heavy atoms:
               1          2
     1  C    0.405360   0.334959
     2  C    0.138619  -0.398933
     3  C    0.178717   0.654025
     4  C    0.138619  -0.398933
     5  C    0.138686   0.808883
 Electronic spatial extent (au):  <R**2>=            374.0302
 Charge=              1.0000 electrons
 Dipole moment (field-independent basis, Debye):
    X=             -0.0000    Y=              0.0000    Z=             -2.6782  Tot=              2.6782
 Quadrupole moment (field-independent basis, Debye-Ang):
   XX=            -32.0421   YY=            -12.4961   ZZ=            -10.5591
   XY=              0.0000   XZ=              0.0000   YZ=              0.0000
 Traceless Quadrupole moment (field-independent basis, Debye-Ang):
   XX=            -13.6763   YY=              5.8697   ZZ=              7.8067
   XY=              0.0000   XZ=              0.0000   YZ=              0.0000
 Octapole moment (field-independent basis, Debye-Ang**2):
  XXX=              0.0000  YYY=             -0.0000  ZZZ=            -20.2796  XYY=             -0.0000
  XXY=              0.0000  XXZ=              1.5144  XZZ=              0.0000  YZZ=             -0.0000
  YYZ=             -3.5899  XYZ=             -0.0000
 Hexadecapole moment (field-independent basis, Debye-Ang**3):
 XXXX=            -32.2432 YYYY=           -173.4174 ZZZZ=            -99.6442 XXXY=             -0.0000
 XXXZ=             -0.0000 YYYX=             -0.0000 YYYZ=              0.0000 ZZZX=             -0.0000
 ZZZY=              0.0000 XXYY=            -54.2262 XXZZ=            -43.5312 YYZZ=            -48.7211
 XXYZ=             -0.0000 YYXZ=              0.0000 ZZXY=             -0.0000
 N-N= 1.450218997931D+02 E-N=-7.306585517517D+02  KE= 1.920834640475D+02
 Symmetry A1   KE= 1.109140640530D+02
 Symmetry A2   KE= 2.452788314408D+00
 Symmetry B1   KE= 3.367139171457D+00
 Symmetry B2   KE= 7.534947250869D+01
 Symmetry A1   SP=-2.099015405932D-16
 Symmetry A2   SP=-8.072427275241D-16
 Symmetry B1   SP= 1.000000000000D+00
 Symmetry B2   SP= 2.320423042081D-15
                          Isotropic Fermi Contact Couplings
        Atom                 a.u.       MegaHertz       Gauss      10(-4) cm-1
     1  C(13)              0.17536     197.13872      70.34400      65.75840
     2  C(13)             -0.06782     -76.23775     -27.20352     -25.43018
     3  C(13)              0.11516     129.45714      46.19353      43.18226
     4  C(13)             -0.06782     -76.23775     -27.20352     -25.43018
     5  C(13)              0.17536     197.13872      70.34400      65.75840
     6  H(1)              -0.16624    -743.06924    -265.14558    -247.86122
     7  H(1)              -0.01731     -77.36302     -27.60505     -25.80552
     8  H(1)               0.01045      46.69784      16.66295      15.57672
     9  H(1)              -0.01236     -55.22768     -19.70661     -18.42197
    10  H(1)               0.01045      46.69784      16.66295      15.57672
    11  H(1)              -0.01731     -77.36302     -27.60505     -25.80552
 --------------------------------------------------------
       Center         ----  Spin Dipole Couplings  ----
                      3XX-RR        3YY-RR        3ZZ-RR
 --------------------------------------------------------
     1   Atom        0.546344     -0.212151     -0.334193
     2   Atom       -0.340833      0.130034      0.210799
     3   Atom        0.638974     -0.348331     -0.290643
     4   Atom       -0.340833      0.130034      0.210799
     5   Atom        0.546344     -0.212151     -0.334193
     6   Atom       -0.019475     -0.007063      0.026538
     7   Atom       -0.016577      0.041085     -0.024508
     8   Atom       -0.008541     -0.001687      0.010228
     9   Atom       -0.006673     -0.042318      0.048991
    10   Atom       -0.008541     -0.001687      0.010228
    11   Atom       -0.016577      0.041085     -0.024508
 --------------------------------------------------------
                        XY            XZ            YZ
 --------------------------------------------------------
     1   Atom        0.000000      0.000000      0.138907
     2   Atom       -0.000000      0.000000      0.003680
     3   Atom       -0.000000      0.000000      0.000000
     4   Atom       -0.000000     -0.000000     -0.003680
     5   Atom        0.000000      0.000000     -0.138907
     6   Atom        0.000000     -0.000000     -0.000000
     7   Atom        0.000000      0.000000     -0.049523
     8   Atom        0.000000      0.000000     -0.011944
     9   Atom       -0.000000     -0.000000      0.000000
    10   Atom        0.000000     -0.000000      0.011944
    11   Atom        0.000000      0.000000      0.049523
 --------------------------------------------------------


 ---------------------------------------------------------------------------------
              Anisotropic Spin Dipole Couplings in Principal Axis System
 ---------------------------------------------------------------------------------

       Atom             a.u.   MegaHertz   Gauss  10(-4) cm-1        Axes

              Baa    -0.4249   -57.016   -20.345   -19.019 -0.0000 -0.5467  0.8373
     1 C(13)  Bbb    -0.1215   -16.298    -5.815    -5.436  0.0000  0.8373  0.5467
              Bcc     0.5463    73.314    26.160    24.455  1.0000 -0.0000  0.0000
 
              Baa    -0.3408   -45.737   -16.320   -15.256  1.0000 -0.0000  0.0000
     2 C(13)  Bbb     0.1299    17.427     6.218     5.813  0.0000  0.9990 -0.0454
              Bcc     0.2110    28.310    10.102     9.443  0.0000  0.0454  0.9990
 
              Baa    -0.3483   -46.743   -16.679   -15.592 -0.0000  1.0000 -0.0000
     3 C(13)  Bbb    -0.2906   -39.001   -13.917   -13.009 -0.0000  0.0000  1.0000
              Bcc     0.6390    85.744    30.596    28.601  1.0000  0.0000  0.0000
 
              Baa    -0.3408   -45.737   -16.320   -15.256  1.0000  0.0000  0.0000
     4 C(13)  Bbb     0.1299    17.427     6.218     5.813 -0.0000  0.9990  0.0454
              Bcc     0.2110    28.310    10.102     9.443 -0.0000 -0.0454  0.9990
 
              Baa    -0.4249   -57.016   -20.345   -19.019 -0.0000  0.5467  0.8373
     5 C(13)  Bbb    -0.1215   -16.298    -5.815    -5.436 -0.0000  0.8373 -0.5467
              Bcc     0.5463    73.314    26.160    24.455  1.0000  0.0000  0.0000
 
              Baa    -0.0195   -10.391    -3.708    -3.466  1.0000 -0.0000  0.0000
     6 H(1)   Bbb    -0.0071    -3.769    -1.345    -1.257  0.0000  1.0000  0.0000
              Bcc     0.0265    14.160     5.052     4.723 -0.0000 -0.0000  1.0000
 
              Baa    -0.0511   -27.269    -9.730    -9.096 -0.0000  0.4732  0.8810
     7 H(1)   Bbb    -0.0166    -8.845    -3.156    -2.950  1.0000  0.0000  0.0000
              Bcc     0.0677    36.114    12.886    12.046 -0.0000  0.8810 -0.4732
 
              Baa    -0.0091    -4.843    -1.728    -1.615 -0.0000  0.8504  0.5261
     8 H(1)   Bbb    -0.0085    -4.557    -1.626    -1.520  1.0000  0.0000  0.0000
              Bcc     0.0176     9.400     3.354     3.136  0.0000 -0.5261  0.8504
 
              Baa    -0.0423   -22.579    -8.057    -7.532 -0.0000  1.0000 -0.0000
     9 H(1)   Bbb    -0.0067    -3.560    -1.270    -1.188  1.0000 -0.0000  0.0000
              Bcc     0.0490    26.139     9.327     8.719  0.0000  0.0000  1.0000
 
              Baa    -0.0091    -4.843    -1.728    -1.615 -0.0000  0.8504 -0.5261
    10 H(1)   Bbb    -0.0085    -4.557    -1.626    -1.520  1.0000  0.0000 -0.0000
              Bcc     0.0176     9.400     3.354     3.136  0.0000  0.5261  0.8504
 
              Baa    -0.0511   -27.269    -9.730    -9.096 -0.0000 -0.4732  0.8810
    11 H(1)   Bbb    -0.0166    -8.845    -3.156    -2.950  1.0000 -0.0000  0.0000
              Bcc     0.0677    36.114    12.886    12.046  0.0000  0.8810  0.4732
 

 ---------------------------------------------------------------------------------

 No NMR shielding tensors so no spin-rotation constants.
 Leave Link  601 at Thu Mar  5 12:43:32 2020, MaxMem=  6710886400 cpu:               3.4 elap:               0.4
 (Enter /opt/ohpc/pub/libs/gaussian/g16-A.03/sandybridge/g16/l9999.exe)

 Test job not archived.
 1\1\GINC-CNODE212\SP\ULC-wHPBE\6-31G\C5H6(1+,2)\SMGO234\05-Mar-2020\0\
 \#P uLC-wHPBE/6-31G iop(3/130=0287500000, 3/131=0287500000, 3/119=0712
 500000, 3/120=0712500000) scf=(conver=6,fermi,ndamp=35,noincfock,novar
 acc,vshift=500,xqc)\\H6 C5\\1,2\C,0,-1.206512,0.69658,0.\C,0,-1.206512
 ,-0.69658,0.\C,0,0.,-1.39316,0.\C,0,1.206512,-0.69658,0.\C,0,1.206512,
 0.69658,0.\H,0,0.,2.482681,0.\H,0,-2.150065,1.24134,0.\H,0,-2.150065,-
 1.24134,0.\H,0,0.,-2.482681,0.\H,0,2.150065,-1.24134,0.\H,0,2.150065,1
 .24134,0.\\Version=EM64L-G16RevA.03\State=2-B1\HF=-196.2004694\S2=1.12
 5705\S2-1=0.\S2A=0.847325\RMSD=6.586e-08\Dipole=0.,1.0537036,0.\Quadru
 pole=4.3639519,5.8040699,-10.1680217,0.,0.,0.\PG=C02V [C2(H1C1H1),SGV(
 C4H4)]\\@


 THIS CURIOUS WORLD WHICH WE INHABIT IS MORE WONDERFUL THAN IT IS CONVENIENT;
 MORE BEAUTIFUL THAN IT IS USEFUL;
 IT IS MORE TO BE ADMIRED THAN IT IS TO BE USED.

                                                                 -- THOREAU
 Job cpu time:       0 days  0 hours  5 minutes 34.5 seconds.
 Elapsed time:       0 days  0 hours  0 minutes 21.8 seconds.
 File lengths (MBytes):  RWF=    272 Int=      0 D2E=      0 Chk=     32 Scr=     32
 Normal termination of Gaussian 16 at Thu Mar  5 12:43:32 2020.
