 Entering Gaussian System, Link 0=g16
 Input=a1b_tune_c12.gjf
 Output=a1b_tune_c12.log
 Initial command:
 /opt/ohpc/pub/libs/gaussian/g16-A.03/sandybridge/g16/l1.exe "/scratch/smgo234/Ocelot/test/a1b/tuning_a1b_acycle0/Gau-74932.inp" -scrdir="/scratch/smgo234/Ocelot/test/a1b/tuning_a1b_acycle0/"
 Entering Link 1 = /opt/ohpc/pub/libs/gaussian/g16-A.03/sandybridge/g16/l1.exe PID=     74933.
  
 Copyright (c) 1988,1990,1992,1993,1995,1998,2003,2009,2016,
            Gaussian, Inc.  All Rights Reserved.
  
 This is part of the Gaussian(R) 16 program.  It is based on
 the Gaussian(R) 09 system (copyright 2009, Gaussian, Inc.),
 the Gaussian(R) 03 system (copyright 2003, Gaussian, Inc.),
 the Gaussian(R) 98 system (copyright 1998, Gaussian, Inc.),
 the Gaussian(R) 94 system (copyright 1995, Gaussian, Inc.),
 the Gaussian 92(TM) system (copyright 1992, Gaussian, Inc.),
 the Gaussian 90(TM) system (copyright 1990, Gaussian, Inc.),
 the Gaussian 88(TM) system (copyright 1988, Gaussian, Inc.),
 the Gaussian 86(TM) system (copyright 1986, Carnegie Mellon
 University), and the Gaussian 82(TM) system (copyright 1983,
 Carnegie Mellon University). Gaussian is a federally registered
 trademark of Gaussian, Inc.
  
 This software contains proprietary and confidential information,
 including trade secrets, belonging to Gaussian, Inc.
  
 This software is provided under written license and may be
 used, copied, transmitted, or stored only in accord with that
 written license.
  
 The following legend is applicable only to US Government
 contracts under FAR:
  
                    RESTRICTED RIGHTS LEGEND
  
 Use, reproduction and disclosure by the US Government is
 subject to restrictions as set forth in subparagraphs (a)
 and (c) of the Commercial Computer Software - Restricted
 Rights clause in FAR 52.227-19.
  
 Gaussian, Inc.
 340 Quinnipiac St., Bldg. 40, Wallingford CT 06492
  
  
 ---------------------------------------------------------------
 Warning -- This program may not be used in any manner that
 competes with the business of Gaussian, Inc. or will provide
 assistance to any competitor of Gaussian, Inc.  The licensee
 of this program is prohibited from giving any competitor of
 Gaussian, Inc. access to this program.  By using this program,
 the user acknowledges that Gaussian, Inc. is engaged in the
 business of creating and licensing software in the field of
 computational chemistry and represents and warrants to the
 licensee that it is not a competitor of Gaussian, Inc. and that
 it will not use this program in any manner prohibited above.
 ---------------------------------------------------------------
  

 Cite this work as:
 Gaussian 16, Revision A.03,
 M. J. Frisch, G. W. Trucks, H. B. Schlegel, G. E. Scuseria, 
 M. A. Robb, J. R. Cheeseman, G. Scalmani, V. Barone, 
 G. A. Petersson, H. Nakatsuji, X. Li, M. Caricato, A. V. Marenich, 
 J. Bloino, B. G. Janesko, R. Gomperts, B. Mennucci, H. P. Hratchian, 
 J. V. Ortiz, A. F. Izmaylov, J. L. Sonnenberg, D. Williams-Young, 
 F. Ding, F. Lipparini, F. Egidi, J. Goings, B. Peng, A. Petrone, 
 T. Henderson, D. Ranasinghe, V. G. Zakrzewski, J. Gao, N. Rega, 
 G. Zheng, W. Liang, M. Hada, M. Ehara, K. Toyota, R. Fukuda, 
 J. Hasegawa, M. Ishida, T. Nakajima, Y. Honda, O. Kitao, H. Nakai, 
 T. Vreven, K. Throssell, J. A. Montgomery, Jr., J. E. Peralta, 
 F. Ogliaro, M. J. Bearpark, J. J. Heyd, E. N. Brothers, K. N. Kudin, 
 V. N. Staroverov, T. A. Keith, R. Kobayashi, J. Normand, 
 K. Raghavachari, A. P. Rendell, J. C. Burant, S. S. Iyengar, 
 J. Tomasi, M. Cossi, J. M. Millam, M. Klene, C. Adamo, R. Cammi, 
 J. W. Ochterski, R. L. Martin, K. Morokuma, O. Farkas, 
 J. B. Foresman, and D. J. Fox, Gaussian, Inc., Wallingford CT, 2016.
 
 ******************************************
 Gaussian 16:  EM64L-G16RevA.03 25-Dec-2016
                 5-Mar-2020 
 ******************************************
 %mem=50GB
 %nproc=16
 Will use up to   16 processors via shared memory.
 ----------------------------------------------------------------------
 #P uLC-wHPBE/6-31G iop(3/130=0273400000, 3/131=0273400000, 3/119=07266
 00000, 3/120=0726600000) scf=(conver=6,fermi,ndamp=35,noincfock,novara
 cc,vshift=500,xqc)
 ----------------------------------------------------------------------
 1/38=1,172=1/1;
 2/12=2,17=6,18=5,40=1/2;
 3/5=1,6=6,11=2,25=1,30=1,74=-71,116=2,119=726600000,120=726600000,130=273400000,131=273400000/1,2,3;
 4//1;
 5/5=100002,6=6,8=3,10=500,13=1,18=-1,22=13,38=1,93=35/2,8;
 6/7=2,8=2,9=2,10=2,28=1/1;
 99/5=1,9=1/99;
 Leave Link    1 at Thu Mar  5 12:49:49 2020, MaxMem=  6710886400 cpu:              15.0 elap:               1.0
 (Enter /opt/ohpc/pub/libs/gaussian/g16-A.03/sandybridge/g16/l101.exe)
 -----
 H6 C5
 -----
 Symbolic Z-matrix:
 Charge =  1 Multiplicity = 2
 C                    -1.20651   0.69658   0. 
 C                    -1.20651  -0.69658   0. 
 C                     0.       -1.39316   0. 
 C                     1.20651  -0.69658   0. 
 C                     1.20651   0.69658   0. 
 H                     0.        2.48268   0. 
 H                    -2.15007   1.24134   0. 
 H                    -2.15007  -1.24134   0. 
 H                     0.       -2.48268   0. 
 H                     2.15007  -1.24134   0. 
 H                     2.15007   1.24134   0. 
 
 ITRead=  0  0  0  0  0  0  0  0  0  0  0
 MicOpt= -1 -1 -1 -1 -1 -1 -1 -1 -1 -1 -1
 NAtoms=     11 NQM=       11 NQMF=       0 NMMI=      0 NMMIF=      0
                NMic=       0 NMicF=      0.
                    Isotopes and Nuclear Properties:
 (Nuclear quadrupole moments (NQMom) in fm**2, nuclear magnetic moments (NMagM)
  in nuclear magnetons)

  Atom         1           2           3           4           5           6           7           8           9          10
 IAtWgt=          12          12          12          12          12           1           1           1           1           1
 AtmWgt=  12.0000000  12.0000000  12.0000000  12.0000000  12.0000000   1.0078250   1.0078250   1.0078250   1.0078250   1.0078250
 NucSpn=           0           0           0           0           0           1           1           1           1           1
 AtZEff=  -0.0000000  -0.0000000  -0.0000000  -0.0000000  -0.0000000  -0.0000000  -0.0000000  -0.0000000  -0.0000000  -0.0000000
 NQMom=    0.0000000   0.0000000   0.0000000   0.0000000   0.0000000   0.0000000   0.0000000   0.0000000   0.0000000   0.0000000
 NMagM=    0.0000000   0.0000000   0.0000000   0.0000000   0.0000000   2.7928460   2.7928460   2.7928460   2.7928460   2.7928460
 AtZNuc=   6.0000000   6.0000000   6.0000000   6.0000000   6.0000000   1.0000000   1.0000000   1.0000000   1.0000000   1.0000000

  Atom        11
 IAtWgt=           1
 AtmWgt=   1.0078250
 NucSpn=           1
 AtZEff=  -0.0000000
 NQMom=    0.0000000
 NMagM=    2.7928460
 AtZNuc=   1.0000000
 Leave Link  101 at Thu Mar  5 12:49:49 2020, MaxMem=  6710886400 cpu:               3.0 elap:               0.2
 (Enter /opt/ohpc/pub/libs/gaussian/g16-A.03/sandybridge/g16/l202.exe)
                          Input orientation:                          
 ---------------------------------------------------------------------
 Center     Atomic      Atomic             Coordinates (Angstroms)
 Number     Number       Type             X           Y           Z
 ---------------------------------------------------------------------
      1          6           0       -1.206512    0.696580    0.000000
      2          6           0       -1.206512   -0.696580    0.000000
      3          6           0        0.000000   -1.393160    0.000000
      4          6           0        1.206512   -0.696580    0.000000
      5          6           0        1.206512    0.696580    0.000000
      6          1           0        0.000000    2.482681    0.000000
      7          1           0       -2.150065    1.241340    0.000000
      8          1           0       -2.150065   -1.241340    0.000000
      9          1           0        0.000000   -2.482681    0.000000
     10          1           0        2.150065   -1.241340    0.000000
     11          1           0        2.150065    1.241340    0.000000
 ---------------------------------------------------------------------
                    Distance matrix (angstroms):
                    1          2          3          4          5
     1  C    0.000000
     2  C    1.393160   0.000000
     3  C    2.413024   1.393160   0.000000
     4  C    2.786320   2.413024   1.393160   0.000000
     5  C    2.413024   2.786320   2.413024   1.393160   0.000000
     6  H    2.155418   3.400496   3.875841   3.400496   2.155418
     7  H    1.089521   2.155418   3.400496   3.875841   3.400496
     8  H    2.155418   1.089521   2.155418   3.400496   3.875841
     9  H    3.400496   2.155418   1.089521   2.155418   3.400496
    10  H    3.875841   3.400496   2.155418   1.089521   2.155418
    11  H    3.400496   3.875841   3.400496   2.155418   1.089521
                    6          7          8          9         10
     6  H    0.000000
     7  H    2.482681   0.000000
     8  H    4.300129   2.482680   0.000000
     9  H    4.965362   4.300129   2.482681   0.000000
    10  H    4.300129   4.965362   4.300130   2.482681   0.000000
    11  H    2.482681   4.300130   4.965362   4.300129   2.482680
                   11
    11  H    0.000000
 Stoichiometry    C5H6(1+,2)
 Framework group  C2V[C2(HCH),SGV(C4H4)]
 Deg. of freedom    10
 Full point group                 C2V     NOp   4
 Largest Abelian subgroup         C2V     NOp   4
 Largest concise Abelian subgroup C2      NOp   2
                         Standard orientation:                         
 ---------------------------------------------------------------------
 Center     Atomic      Atomic             Coordinates (Angstroms)
 Number     Number       Type             X           Y           Z
 ---------------------------------------------------------------------
      1          6           0       -0.000000    1.206512   -0.928773
      2          6           0       -0.000000    1.206512    0.464387
      3          6           0        0.000000    0.000000    1.160967
      4          6           0       -0.000000   -1.206512    0.464387
      5          6           0       -0.000000   -1.206512   -0.928773
      6          1           0       -0.000000   -0.000000   -2.714874
      7          1           0       -0.000000    2.150065   -1.473533
      8          1           0       -0.000000    2.150065    1.009147
      9          1           0        0.000000    0.000000    2.250488
     10          1           0       -0.000000   -2.150065    1.009147
     11          1           0       -0.000000   -2.150065   -1.473533
 ---------------------------------------------------------------------
 Rotational constants (GHZ):           8.2868568           5.7099792           3.3806054
 Leave Link  202 at Thu Mar  5 12:49:49 2020, MaxMem=  6710886400 cpu:               0.9 elap:               0.1
 (Enter /opt/ohpc/pub/libs/gaussian/g16-A.03/sandybridge/g16/l301.exe)
 Standard basis: 6-31G (6D, 7F)
 Ernie: Thresh=  0.10000D-02 Tol=  0.10000D-05 Strict=F.
 There are    27 symmetry adapted cartesian basis functions of A1  symmetry.
 There are     4 symmetry adapted cartesian basis functions of A2  symmetry.
 There are     6 symmetry adapted cartesian basis functions of B1  symmetry.
 There are    20 symmetry adapted cartesian basis functions of B2  symmetry.
 There are    27 symmetry adapted basis functions of A1  symmetry.
 There are     4 symmetry adapted basis functions of A2  symmetry.
 There are     6 symmetry adapted basis functions of B1  symmetry.
 There are    20 symmetry adapted basis functions of B2  symmetry.
    57 basis functions,   134 primitive gaussians,    57 cartesian basis functions
    18 alpha electrons       17 beta electrons
       nuclear repulsion energy       145.0218997931 Hartrees.
 IExCor=33909 DFT=T Ex+Corr=LC-wHPBE ExCW=0 ScaHFX=  1.000000
 ScaDFX=  1.000000  1.000000  1.000000  1.000000 ScalE2=  1.000000  1.000000
 IRadAn=      5 IRanWt=     -1 IRanGd=            0 ICorTp=0 IEmpDi=  4
 HFx  wShort=  0.000000 wLong=  0.400000 cFull=  0.000000 cShort=  0.000000 cLong=  0.726600
 DFx  wShort=  0.000000 wLong=  0.400000 cFull=  0.000000 cShort=  1.000000 cLong=  0.726600
 NAtoms=   11 NActive=   11 NUniq=    7 SFac= 2.47D+00 NAtFMM=   60 NAOKFM=F Big=F
 Integral buffers will be    131072 words long.
 Raffenetti 2 integral format.
 Two-electron integral symmetry is turned on.
 Leave Link  301 at Thu Mar  5 12:49:49 2020, MaxMem=  6710886400 cpu:               1.0 elap:               0.1
 (Enter /opt/ohpc/pub/libs/gaussian/g16-A.03/sandybridge/g16/l302.exe)
 NPDir=0 NMtPBC=     1 NCelOv=     1 NCel=       1 NClECP=     1 NCelD=      1
         NCelK=      1 NCelE2=     1 NClLst=     1 CellRange=     0.0.
 One-electron integrals computed using PRISM.
 One-electron integral symmetry used in STVInt
 NBasis=    57 RedAO= T EigKep=  2.88D-03  NBF=    27     4     6    20
 NBsUse=    57 1.00D-06 EigRej= -1.00D+00 NBFU=    27     4     6    20
 Precomputing XC quadrature grid using
 IXCGrd= 4 IRadAn=           5 IRanWt=          -1 IRanGd=           0 AccXCQ= 0.00D+00.
 Generated NRdTot=       0 NPtTot=           0 NUsed=           0 NTot=          32
 NSgBfM=    57    57    57    57    57 MxSgAt=    11 MxSgA2=    11.
 Leave Link  302 at Thu Mar  5 12:49:50 2020, MaxMem=  6710886400 cpu:               1.9 elap:               0.1
 (Enter /opt/ohpc/pub/libs/gaussian/g16-A.03/sandybridge/g16/l303.exe)
 DipDrv:  MaxL=1.
 Leave Link  303 at Thu Mar  5 12:49:50 2020, MaxMem=  6710886400 cpu:               0.7 elap:               0.1
 (Enter /opt/ohpc/pub/libs/gaussian/g16-A.03/sandybridge/g16/l401.exe)
 ExpMin= 1.61D-01 ExpMax= 3.05D+03 ExpMxC= 4.57D+02 IAcc=3 IRadAn=         5 AccDes= 0.00D+00
 Harris functional with IExCor=33909 and IRadAn=       5 diagonalized for initial guess.
 HarFok:  IExCor=33909 AccDes= 0.00D+00 IRadAn=         5 IDoV= 1 UseB2=F ITyADJ=14
 ICtDFT=  3500011 ScaDFX=  1.000000  1.000000  1.000000  1.000000
 FoFCou: FMM=F IPFlag=           0 FMFlag=      100000 FMFlg1=           0
         NFxFlg=           0 DoJE=T BraDBF=F KetDBF=T FulRan=T
         wScrn=  0.000000 ICntrl=       500 IOpCl=  0 I1Cent=   200000004 NGrid=           0
         NMat0=    1 NMatS0=      1 NMatT0=    0 NMatD0=    1 NMtDS0=    0 NMtDT0=    0
 Petite list used in FoFCou.
 Harris En= -191.522422500567    
 JPrj=0 DoOrth=F DoCkMO=F.
 Initial guess orbital symmetries:
 Alpha Orbitals:
       Occupied  (A1) (B2) (A1) (B2) (A1) (A1) (B2) (A1) (B2) (A1)
                 (A1) (B2) (B2) (A1) (B1) (A1) (A2) (B1)
       Virtual   (B2) (A1) (A2) (B1) (A1) (B2) (A1) (B2) (A1) (A1)
                 (B2) (A1) (B2) (B1) (B2) (A1) (B1) (A2) (A1) (B2)
                 (A1) (A2) (B1) (B2) (A1) (A1) (B2) (A1) (B2) (A1)
                 (A1) (B2) (A1) (A1) (B2) (B2) (A1) (A1) (B2)
 Beta  Orbitals:
       Occupied  (A1) (B2) (A1) (B2) (A1) (A1) (B2) (A1) (B2) (A1)
                 (A1) (B2) (B2) (A1) (B1) (A1) (A2)
       Virtual   (B1) (B2) (A1) (A2) (B1) (A1) (B2) (A1) (B2) (A1)
                 (A1) (B2) (A1) (B2) (B1) (B2) (A1) (B1) (A2) (A1)
                 (B2) (A1) (A2) (B1) (B2) (A1) (A1) (B2) (A1) (B2)
                 (A1) (A1) (B2) (A1) (A1) (B2) (B2) (A1) (A1) (B2)
 The electronic state of the initial guess is 2-B1.
 Initial guess <Sx>= 0.0000 <Sy>= 0.0000 <Sz>= 0.5000 <S**2>= 0.7500 S= 0.5000
 Leave Link  401 at Thu Mar  5 12:49:50 2020, MaxMem=  6710886400 cpu:               3.0 elap:               0.2
 (Enter /opt/ohpc/pub/libs/gaussian/g16-A.03/sandybridge/g16/l502.exe)
 Keep R1 and R2 ints in memory in symmetry-blocked form, NReq=16815659.
 FoFCou: FMM=F IPFlag=           0 FMFlag=           0 FMFlg1=           0
         NFxFlg=           0 DoJE=F BraDBF=F KetDBF=F FulRan=T
         wScrn=  0.000000 ICntrl=       600 IOpCl=  0 I1Cent=           0 NGrid=           0
         NMat0=    1 NMatS0=   1653 NMatT0=    0 NMatD0=    1 NMtDS0=    0 NMtDT0=    0
 Petite list used in FoFCou.
 UHF open shell SCF:
 Using DIIS extrapolation, IDIIS=    10.
 NGot=  6710886400 LenX=  6710059583 LenY=  6710055893
 Requested convergence on RMS density matrix=1.00D-06 within  32 cycles.
 Requested convergence on MAX density matrix=1.00D-04.
 Requested convergence on             energy=1.00D-04.
 Virtual orbitals will be shifted by   0.500 hartree.
 No special actions if energy rises.
 Dynamic level shift is on during FON iterations.

 Cycle   1  Pass 1  IDiag  1:
 E= -196.266323327681    
 DIIS: error= 5.93D-02 at cycle   1 NSaved=   1.
 NSaved= 1 IEnMin= 1 EnMin= -196.266323327681     IErMin= 1 ErrMin= 5.93D-02
 ErrMax= 5.93D-02  0.00D+00 EMaxC= 1.00D+00 BMatC= 2.95D-01 BMatP= 2.95D-01
 IDIUse=1 WtCom= 1.00D+00 WtEn= 0.00D+00
 Coeff-Com:  0.100D+01
 Coeff:      0.100D+01
 Gap=     0.036 Goal=   None    Shift=    0.500
 T= 1905. Gap= 0.494 NK=0 IS=   19 IE=   57 IFin=   18
          NO(<0.9)=   0  NV(>0.1)=   0     18.00e < EF      0.00e >EF  Err=0.0D+00
 Gap=     0.058 Goal=   None    Shift=    0.500
 T= 1905. Gap= 0.564 NK=0 IS=   18 IE=   57 IFin=   17
          NO(<0.9)=   0  NV(>0.1)=   0     17.00e < EF      0.00e >EF  Err=0.0D+00
 GapD=    0.036 DampG=0.250 DampE=0.500 DampFc=0.1250 IDamp=-1.
 Damping current iteration by 1.25D-01
 RMSDP=8.00D-03 MaxDP=6.44D-02              OVMax= 1.31D-01

 Cycle   2  Pass 1  IDiag  1:
 E= -196.286216865002     Delta-E=       -0.019893537321 Rises=F Damp=T
 DIIS: error= 5.15D-02 at cycle   2 NSaved=   2.
 NSaved= 2 IEnMin= 2 EnMin= -196.286216865002     IErMin= 2 ErrMin= 5.15D-02
 ErrMax= 5.15D-02  0.00D+00 EMaxC= 1.00D+00 BMatC= 2.11D-01 BMatP= 2.95D-01
 IDIUse=1 WtCom= 1.00D+00 WtEn= 0.00D+00
 Coeff-Com: -0.497D+01 0.597D+01
 Coeff:     -0.497D+01 0.597D+01
 Gap=     0.135 Goal=   None    Shift=    0.500
 T= 1878. Gap= 0.615 NK=4 IS=   19 IE=   24 IFin=   18
          NO(<0.9)=   0  NV(>0.1)=   0     18.00e < EF      0.00e >EF  Err=0.0D+00
 Gap=     0.164 Goal=   None    Shift=    0.500
 T= 1878. Gap= 0.667 NK=4 IS=   18 IE=   21 IFin=   17
          NO(<0.9)=   0  NV(>0.1)=   0     17.00e < EF      0.00e >EF  Err=0.0D+00
 GapD=    0.135 DampG=1.000 DampE=0.500 DampFc=0.5000 IDamp=-1.
 Damping current iteration by 5.00D-01
 RMSDP=7.51D-03 MaxDP=6.30D-02 DE=-1.99D-02 OVMax= 5.51D-02

 Cycle   3  Pass 1  IDiag  1:
 E= -196.343693866635     Delta-E=       -0.057477001633 Rises=F Damp=T
 DIIS: error= 2.78D-02 at cycle   3 NSaved=   3.
 NSaved= 3 IEnMin= 3 EnMin= -196.343693866635     IErMin= 3 ErrMin= 2.78D-02
 ErrMax= 2.78D-02  0.00D+00 EMaxC= 1.00D+00 BMatC= 4.55D-02 BMatP= 2.11D-01
 IDIUse=1 WtCom= 1.00D+00 WtEn= 0.00D+00
 Coeff-Com:  0.228D+01-0.382D+01 0.254D+01
 Coeff:      0.228D+01-0.382D+01 0.254D+01
 Gap=     0.167 Goal=   None    Shift=    0.500
 T= 1755. Gap= 0.667 NK=4 IS=   19 IE=   24 IFin=   18
          NO(<0.9)=   0  NV(>0.1)=   0     18.00e < EF      0.00e >EF  Err=0.0D+00
 Gap=     0.218 Goal=   None    Shift=    0.500
 T= 1755. Gap= 0.718 NK=4 IS=   18 IE=   21 IFin=   17
          NO(<0.9)=   0  NV(>0.1)=   0     17.00e < EF      0.00e >EF  Err=0.0D+00
 GapD=    0.167 DampG=1.000 DampE=0.500 DampFc=0.5000 IDamp=-1.
 Damping current iteration by 5.00D-01
 RMSDP=3.79D-03 MaxDP=3.25D-02 DE=-5.75D-02 OVMax= 2.34D-02

 Cycle   4  Pass 1  IDiag  1:
 E= -196.366371084177     Delta-E=       -0.022677217542 Rises=F Damp=T
 DIIS: error= 1.63D-02 at cycle   4 NSaved=   4.
 NSaved= 4 IEnMin= 4 EnMin= -196.366371084177     IErMin= 4 ErrMin= 1.63D-02
 ErrMax= 1.63D-02  0.00D+00 EMaxC= 1.00D+00 BMatC= 1.19D-02 BMatP= 4.55D-02
 IDIUse=1 WtCom= 1.00D+00 WtEn= 0.00D+00
 Coeff-Com:  0.801D+00-0.590D+00-0.217D+01 0.295D+01
 Coeff:      0.801D+00-0.590D+00-0.217D+01 0.295D+01
 Gap=     0.183 Goal=   None    Shift=    0.500
 T= 1532. Gap= 0.683 NK=4 IS=   19 IE=   24 IFin=   18
          NO(<0.9)=   0  NV(>0.1)=   0     18.00e < EF      0.00e >EF  Err=0.0D+00
 Gap=     0.231 Goal=   None    Shift=    0.500
 T= 1532. Gap= 0.732 NK=4 IS=   18 IE=   21 IFin=   17
          NO(<0.9)=   0  NV(>0.1)=   0     17.00e < EF      0.00e >EF  Err=0.0D+00
 GapD=    0.183 DampG=1.000 DampE=0.500 DampFc=0.5000 IDamp=-1.
 Damping current iteration by 5.00D-01
 RMSDP=2.11D-03 MaxDP=2.29D-02 DE=-2.27D-02 OVMax= 1.67D-02

 Cycle   5  Pass 1  IDiag  1:
 E= -196.377078588556     Delta-E=       -0.010707504379 Rises=F Damp=T
 DIIS: error= 1.08D-02 at cycle   5 NSaved=   5.
 NSaved= 5 IEnMin= 5 EnMin= -196.377078588556     IErMin= 5 ErrMin= 1.08D-02
 ErrMax= 1.08D-02  0.00D+00 EMaxC= 1.00D+00 BMatC= 4.07D-03 BMatP= 1.19D-02
 IDIUse=1 WtCom= 1.00D+00 WtEn= 0.00D+00
 Coeff-Com: -0.845D+00 0.125D+01 0.308D+00-0.409D+01 0.437D+01
 Coeff:     -0.845D+00 0.125D+01 0.308D+00-0.409D+01 0.437D+01
 Gap=     0.189 Goal=   None    Shift=    0.500
 T= 1200. Gap= 0.689 NK=4 IS=   19 IE=   24 IFin=   18
          NO(<0.9)=   0  NV(>0.1)=   0     18.00e < EF      0.00e >EF  Err=0.0D+00
 Gap=     0.235 Goal=   None    Shift=    0.500
 T= 1200. Gap= 0.735 NK=4 IS=   18 IE=   21 IFin=   17
          NO(<0.9)=   0  NV(>0.1)=   0     17.00e < EF      0.00e >EF  Err=0.0D+00
 GapD=    0.189 DampG=1.000 DampE=0.500 DampFc=0.5000 IDamp=-1.
 Damping current iteration by 5.00D-01
 RMSDP=1.49D-03 MaxDP=1.98D-02 DE=-1.07D-02 OVMax= 2.04D-02

 Cycle   6  Pass 1  IDiag  1:
 E= -196.382773569016     Delta-E=       -0.005694980460 Rises=F Damp=T
 DIIS: error= 7.57D-03 at cycle   6 NSaved=   6.
 NSaved= 6 IEnMin= 6 EnMin= -196.382773569016     IErMin= 6 ErrMin= 7.57D-03
 ErrMax= 7.57D-03  0.00D+00 EMaxC= 1.00D+00 BMatC= 1.66D-03 BMatP= 4.07D-03
 IDIUse=1 WtCom= 1.00D+00 WtEn= 0.00D+00
 Coeff-Com:  0.307D+00-0.535D+00 0.439D+00 0.124D+01-0.529D+01 0.484D+01
 Coeff:      0.307D+00-0.535D+00 0.439D+00 0.124D+01-0.529D+01 0.484D+01
 Gap=     0.192 Goal=   None    Shift=    0.500
 T=  924. Gap= 0.692 NK=4 IS=   19 IE=   24 IFin=   18
          NO(<0.9)=   0  NV(>0.1)=   0     18.00e < EF      0.00e >EF  Err=0.0D+00
 Gap=     0.235 Goal=   None    Shift=    0.500
 T=  924. Gap= 0.735 NK=4 IS=   18 IE=   21 IFin=   17
          NO(<0.9)=   0  NV(>0.1)=   0     17.00e < EF      0.00e >EF  Err=0.0D+00
 GapD=    0.192 DampG=1.000 DampE=1.000 DampFc=1.0000 IDamp=-1.
 RMSDP=1.13D-03 MaxDP=1.65D-02 DE=-5.69D-03 OVMax= 1.84D-02

 Cycle   7  Pass 1  IDiag  1:
 E= -196.389896991445     Delta-E=       -0.007123422429 Rises=F Damp=F
 DIIS: error= 3.37D-03 at cycle   7 NSaved=   7.
 NSaved= 7 IEnMin= 7 EnMin= -196.389896991445     IErMin= 7 ErrMin= 3.37D-03
 ErrMax= 3.37D-03  0.00D+00 EMaxC= 1.00D+00 BMatC= 2.67D-04 BMatP= 1.66D-03
 IDIUse=1 WtCom= 1.00D+00 WtEn= 0.00D+00
 Coeff-Com:  0.141D+00-0.177D+00-0.322D+00 0.101D+01 0.140D+01-0.399D+01
 Coeff-Com:  0.294D+01
 Coeff:      0.141D+00-0.177D+00-0.322D+00 0.101D+01 0.140D+01-0.399D+01
 Coeff:      0.294D+01
 Gap=     0.195 Goal=   None    Shift=    0.500
 T=  644. Gap= 0.695 NK=4 IS=   19 IE=   24 IFin=   18
          NO(<0.9)=   0  NV(>0.1)=   0     18.00e < EF      0.00e >EF  Err=0.0D+00
 Gap=     0.235 Goal=   None    Shift=    0.500
 T=  644. Gap= 0.735 NK=4 IS=   18 IE=   21 IFin=   17
          NO(<0.9)=   0  NV(>0.1)=   0     17.00e < EF      0.00e >EF  Err=0.0D+00
 GapD=    0.195 DampG=1.000 DampE=1.000 DampFc=1.0000 IDamp=-1.
 RMSDP=3.97D-04 MaxDP=6.09D-03 DE=-7.12D-03 OVMax= 1.65D-02

 Cycle   8  Pass 1  IDiag  1:
 E= -196.390449268474     Delta-E=       -0.000552277028 Rises=F Damp=F
 DIIS: error= 2.39D-03 at cycle   8 NSaved=   8.
 NSaved= 8 IEnMin= 8 EnMin= -196.390449268474     IErMin= 8 ErrMin= 2.39D-03
 ErrMax= 2.39D-03  0.00D+00 EMaxC= 1.00D+00 BMatC= 1.56D-04 BMatP= 2.67D-04
 IDIUse=1 WtCom= 1.00D+00 WtEn= 0.00D+00
 Coeff-Com: -0.547D-01 0.106D+00-0.149D+00-0.296D+00 0.232D+01-0.295D+01
 Coeff-Com:  0.579D+00 0.145D+01
 Coeff:     -0.547D-01 0.106D+00-0.149D+00-0.296D+00 0.232D+01-0.295D+01
 Coeff:      0.579D+00 0.145D+01
 Gap=     0.197 Goal=   None    Shift=    0.500
 T=  350. Gap= 0.697 NK=4 IS=   19 IE=   24 IFin=   18
          NO(<0.9)=   0  NV(>0.1)=   0     18.00e < EF      0.00e >EF  Err=0.0D+00
 Gap=     0.234 Goal=   None    Shift=    0.500
 T=  350. Gap= 0.734 NK=4 IS=   18 IE=   21 IFin=   17
          NO(<0.9)=   0  NV(>0.1)=   0     17.00e < EF      0.00e >EF  Err=0.0D+00
 GapD=    0.197 DampG=1.000 DampE=1.000 DampFc=1.0000 IDamp=-1.
 RMSDP=2.64D-04 MaxDP=3.47D-03 DE=-5.52D-04 OVMax= 1.10D-02

 Cycle   9  Pass 1  IDiag  1:
 E= -196.390747174375     Delta-E=       -0.000297905901 Rises=F Damp=F
 DIIS: error= 1.92D-03 at cycle   9 NSaved=   9.
 NSaved= 9 IEnMin= 9 EnMin= -196.390747174375     IErMin= 9 ErrMin= 1.92D-03
 ErrMax= 1.92D-03  0.00D+00 EMaxC= 1.00D+00 BMatC= 1.07D-04 BMatP= 1.56D-04
 IDIUse=1 WtCom= 1.00D+00 WtEn= 0.00D+00
 Coeff-Com: -0.876D-01 0.962D-01 0.376D+00-0.112D+01-0.728D+00 0.298D+01
 Coeff-Com: -0.241D+01-0.158D+01 0.348D+01
 Coeff:     -0.876D-01 0.962D-01 0.376D+00-0.112D+01-0.728D+00 0.298D+01
 Coeff:     -0.241D+01-0.158D+01 0.348D+01
 Gap=     0.201 Goal=   None    Shift=    0.500
 T=   19. Gap= 0.701 NK=4 IS=   19 IE=   24 IFin=   18
          NO(<0.9)=   0  NV(>0.1)=   0     18.00e < EF      0.00e >EF  Err=0.0D+00
 Gap=     0.232 Goal=   None    Shift=    0.500
 T=   19. Gap= 0.732 NK=4 IS=   18 IE=   21 IFin=   17
          NO(<0.9)=   0  NV(>0.1)=   0     17.00e < EF      0.00e >EF  Err=0.0D+00
 GapD=    0.201 DampG=1.000 DampE=1.000 DampFc=1.0000 IDamp=-1.
 RMSDP=2.90D-04 MaxDP=4.34D-03 DE=-2.98D-04 OVMax= 1.27D-02

 Cycle  10  Pass 1  IDiag  1:
 E= -196.391040663681     Delta-E=       -0.000293489306 Rises=F Damp=F
 DIIS: error= 1.84D-03 at cycle  10 NSaved=  10.
 NSaved=10 IEnMin=10 EnMin= -196.391040663681     IErMin=10 ErrMin= 1.84D-03
 ErrMax= 1.84D-03  0.00D+00 EMaxC= 1.00D+00 BMatC= 8.20D-05 BMatP= 1.07D-04
 IDIUse=1 WtCom= 1.00D+00 WtEn= 0.00D+00
 Coeff-Com: -0.270D-01 0.308D-01 0.135D+00-0.403D+00-0.337D+00 0.120D+01
 Coeff-Com: -0.778D+00-0.901D+00 0.609D+00 0.147D+01
 Coeff:     -0.270D-01 0.308D-01 0.135D+00-0.403D+00-0.337D+00 0.120D+01
 Coeff:     -0.778D+00-0.901D+00 0.609D+00 0.147D+01
 Gap=     0.202 Goal=   None    Shift=    0.500
 Gap=     0.232 Goal=   None    Shift=    0.500
 GapD=    0.202 DampG=1.000 DampE=1.000 DampFc=1.0000 IDamp=-1.
 RMSDP=2.03D-04 MaxDP=3.58D-03 DE=-2.93D-04 OVMax= 1.00D-02

 Cycle  11  Pass 1  IDiag  1:
 E= -196.391237154813     Delta-E=       -0.000196491132 Rises=F Damp=F
 DIIS: error= 1.77D-03 at cycle  11 NSaved=  11.
 NSaved=11 IEnMin=11 EnMin= -196.391237154813     IErMin=11 ErrMin= 1.77D-03
 ErrMax= 1.77D-03  0.00D+00 EMaxC= 1.00D+00 BMatC= 7.30D-05 BMatP= 8.20D-05
 IDIUse=1 WtCom= 1.00D+00 WtEn= 0.00D+00
 Coeff-Com: -0.142D-01 0.145D-01 0.289D-01-0.714D-01-0.267D-01 0.141D+00
 Coeff-Com: -0.150D+00-0.159D+00 0.113D+01-0.301D+01 0.312D+01
 Coeff:     -0.142D-01 0.145D-01 0.289D-01-0.714D-01-0.267D-01 0.141D+00
 Coeff:     -0.150D+00-0.159D+00 0.113D+01-0.301D+01 0.312D+01
 Gap=     0.204 Goal=   None    Shift=    0.500
 Gap=     0.231 Goal=   None    Shift=    0.500
 GapD=    0.204 DampG=1.000 DampE=1.000 DampFc=1.0000 IDamp=-1.
 RMSDP=1.79D-04 MaxDP=3.46D-03 DE=-1.96D-04 OVMax= 9.60D-03

 Cycle  12  Pass 1  IDiag  1:
 E= -196.391410797613     Delta-E=       -0.000173642799 Rises=F Damp=F
 DIIS: error= 1.75D-03 at cycle  12 NSaved=  12.
 NSaved=12 IEnMin=12 EnMin= -196.391410797613     IErMin=12 ErrMin= 1.75D-03
 ErrMax= 1.75D-03  0.00D+00 EMaxC= 1.00D+00 BMatC= 7.04D-05 BMatP= 7.30D-05
 IDIUse=1 WtCom= 1.00D+00 WtEn= 0.00D+00
 Large coefficients: NSaved= 12 BigCof=   16.63 CofMax=   10.00 Det=-6.48D-09
 Inversion failed.  Reducing to 11 matrices.
 Large coefficients: NSaved= 11 BigCof=   16.63 CofMax=   10.00 Det=-6.48D-09
 Inversion failed.  Reducing to 10 matrices.
 Large coefficients: NSaved= 10 BigCof=   16.09 CofMax=   10.00 Det=-6.61D-09
 Inversion failed.  Reducing to  9 matrices.
 Large coefficients: NSaved=  9 BigCof=   12.00 CofMax=   10.00 Det=-9.62D-09
 Inversion failed.  Reducing to  8 matrices.
 Large coefficients: NSaved=  8 BigCof=   10.81 CofMax=   10.00 Det=-1.09D-08
 Inversion failed.  Reducing to  7 matrices.
 Coeff-Com:  0.586D-02-0.456D-01-0.195D+00 0.197D+01-0.704D+01 0.957D+01
 Coeff-Com: -0.327D+01
 Coeff:      0.586D-02-0.456D-01-0.195D+00 0.197D+01-0.704D+01 0.957D+01
 Coeff:     -0.327D+01
 Gap=     0.202 Goal=   None    Shift=    0.500
 Gap=     0.232 Goal=   None    Shift=    0.500
 GapD=    0.202 DampG=1.000 DampE=1.000 DampFc=1.0000 IDamp=-1.
 RMSDP=5.08D-05 MaxDP=1.02D-03 DE=-1.74D-04 OVMax= 1.80D-03

 Cycle  13  Pass 1  IDiag  1:
 E= -196.391439917201     Delta-E=       -0.000029119588 Rises=F Damp=F
 DIIS: error= 1.68D-03 at cycle  13 NSaved=   8.
 NSaved= 8 IEnMin= 8 EnMin= -196.391439917201     IErMin= 8 ErrMin= 1.68D-03
 ErrMax= 1.68D-03  0.00D+00 EMaxC= 1.00D+00 BMatC= 6.95D-05 BMatP= 7.04D-05
 IDIUse=1 WtCom= 1.00D+00 WtEn= 0.00D+00
 Coeff-Com:  0.754D-02 0.219D-01-0.243D+00 0.110D+01-0.470D+01 0.791D+01
 Coeff-Com: -0.380D+01 0.706D+00
 Coeff:      0.754D-02 0.219D-01-0.243D+00 0.110D+01-0.470D+01 0.791D+01
 Coeff:     -0.380D+01 0.706D+00
 Gap=     0.201 Goal=   None    Shift=    0.500
 Gap=     0.233 Goal=   None    Shift=    0.500
 GapD=    0.201 DampG=1.000 DampE=1.000 DampFc=1.0000 IDamp=-1.
 RMSDP=2.49D-05 MaxDP=2.37D-04 DE=-2.91D-05 OVMax= 8.40D-04

 Cycle  14  Pass 1  IDiag  1:
 E= -196.391439142107     Delta-E=        0.000000775094 Rises=F Damp=F
 DIIS: error= 1.66D-03 at cycle  14 NSaved=   9.
 NSaved= 9 IEnMin= 8 EnMin= -196.391439917201     IErMin= 9 ErrMin= 1.66D-03
 ErrMax= 1.66D-03  0.00D+00 EMaxC= 1.00D+00 BMatC= 7.00D-05 BMatP= 6.95D-05
 IDIUse=1 WtCom= 1.00D+00 WtEn= 0.00D+00
 Coeff-Com:  0.613D-02 0.344D-01-0.237D+00 0.632D+00-0.294D+01 0.569D+01
 Coeff-Com: -0.222D+01-0.154D+01 0.157D+01
 Coeff:      0.613D-02 0.344D-01-0.237D+00 0.632D+00-0.294D+01 0.569D+01
 Coeff:     -0.222D+01-0.154D+01 0.157D+01
 Gap=     0.201 Goal=   None    Shift=    0.500
 Gap=     0.233 Goal=   None    Shift=    0.500
 GapD=    0.201 DampG=1.000 DampE=1.000 DampFc=1.0000 IDamp=-1.
 RMSDP=1.14D-05 MaxDP=1.25D-04 DE= 7.75D-07 OVMax= 5.02D-04

 Cycle  15  Pass 1  IDiag  1:
 E= -196.391439440776     Delta-E=       -0.000000298669 Rises=F Damp=F
 DIIS: error= 1.66D-03 at cycle  15 NSaved=  10.
 NSaved=10 IEnMin= 8 EnMin= -196.391439917201     IErMin= 9 ErrMin= 1.66D-03
 ErrMax= 1.66D-03  0.00D+00 EMaxC= 1.00D+00 BMatC= 7.03D-05 BMatP= 6.95D-05
 IDIUse=1 WtCom= 1.00D+00 WtEn= 0.00D+00
 Large coefficients: NSaved= 10 BigCof=   17.59 CofMax=   10.00 Det=-4.34D-09
 Inversion failed.  Reducing to  9 matrices.
 Large coefficients: NSaved=  9 BigCof=   16.57 CofMax=   10.00 Det=-4.62D-09
 Inversion failed.  Reducing to  8 matrices.
 Large coefficients: NSaved=  8 BigCof=   17.22 CofMax=   10.00 Det=-4.62D-09
 Inversion failed.  Reducing to  7 matrices.
 Large coefficients: NSaved=  7 BigCof=   15.40 CofMax=   10.00 Det=-4.69D-09
 Inversion failed.  Reducing to  6 matrices.
 Coeff-Com: -0.149D+01 0.426D+01-0.125D+01-0.136D+01-0.590D+01 0.675D+01
 Coeff:     -0.149D+01 0.426D+01-0.125D+01-0.136D+01-0.590D+01 0.675D+01
 Gap=     0.201 Goal=   None    Shift=    0.500
 Gap=     0.233 Goal=   None    Shift=    0.500
 GapD=    0.201 DampG=1.000 DampE=1.000 DampFc=1.0000 IDamp=-1.
 RMSDP=2.23D-05 MaxDP=3.29D-04 DE=-2.99D-07 OVMax= 1.09D-03

 Cycle  16  Pass 1  IDiag  1:
 E= -196.391421447121     Delta-E=        0.000017993655 Rises=F Damp=F
 DIIS: error= 1.65D-03 at cycle  16 NSaved=   7.
 NSaved= 7 IEnMin= 4 EnMin= -196.391439917201     IErMin= 7 ErrMin= 1.65D-03
 ErrMax= 1.65D-03  0.00D+00 EMaxC= 1.00D+00 BMatC= 7.06D-05 BMatP= 6.95D-05
 IDIUse=1 WtCom= 1.00D+00 WtEn= 0.00D+00
 Coeff-Com: -0.205D+01 0.570D+01-0.339D+01 0.272D+01-0.877D+01 0.483D+01
 Coeff-Com:  0.196D+01
 Coeff:     -0.205D+01 0.570D+01-0.339D+01 0.272D+01-0.877D+01 0.483D+01
 Coeff:      0.196D+01
 Gap=     0.200 Goal=   None    Shift=    0.000
 Gap=     0.233 Goal=   None    Shift=    0.000
 GapD=    0.200 DampG=1.000 DampE=1.000 DampFc=1.0000 IDamp=-1.
 RMSDP=8.09D-05 MaxDP=1.56D-03 DE= 1.80D-05 OVMax= 4.76D-03

 Cycle  17  Pass 1  IDiag  1:
 E= -196.391346742212     Delta-E=        0.000074704908 Rises=F Damp=F
 DIIS: error= 1.66D-03 at cycle  17 NSaved=   8.
 NSaved= 8 IEnMin= 4 EnMin= -196.391439917201     IErMin= 7 ErrMin= 1.65D-03
 ErrMax= 1.66D-03  0.00D+00 EMaxC= 1.00D+00 BMatC= 6.92D-05 BMatP= 6.95D-05
 IDIUse=1 WtCom= 1.00D+00 WtEn= 0.00D+00
 Coeff-Com:  0.835D+00-0.926D+00-0.371D+01 0.895D+01 0.407D+01-0.960D+01
 Coeff-Com: -0.728D+01 0.866D+01
 Coeff:      0.835D+00-0.926D+00-0.371D+01 0.895D+01 0.407D+01-0.960D+01
 Coeff:     -0.728D+01 0.866D+01
 Gap=     0.196 Goal=   None    Shift=    0.000
 Gap=     0.236 Goal=   None    Shift=    0.000
 GapD=    0.196 DampG=1.000 DampE=1.000 DampFc=1.0000 IDamp=-1.
 RMSDP=4.45D-04 MaxDP=8.76D-03 DE= 7.47D-05 OVMax= 2.56D-02

 Cycle  18  Pass 1  IDiag  1:
 E= -196.390935669726     Delta-E=        0.000411072486 Rises=F Damp=F
 DIIS: error= 1.56D-03 at cycle  18 NSaved=   9.
 NSaved= 9 IEnMin= 4 EnMin= -196.391439917201     IErMin= 9 ErrMin= 1.56D-03
 ErrMax= 1.56D-03  0.00D+00 EMaxC= 1.00D+00 BMatC= 6.20D-05 BMatP= 6.92D-05
 IDIUse=1 WtCom= 1.00D+00 WtEn= 0.00D+00
 Large coefficients: NSaved=  9 BigCof=   41.78 CofMax=   10.00 Det=-4.30D-09
 Inversion failed.  Reducing to  8 matrices.
 Large coefficients: NSaved=  8 BigCof=   41.13 CofMax=   10.00 Det=-5.25D-09
 Inversion failed.  Reducing to  7 matrices.
 Large coefficients: NSaved=  7 BigCof=   40.54 CofMax=   10.00 Det=-5.61D-09
 Inversion failed.  Reducing to  6 matrices.
 Large coefficients: NSaved=  6 BigCof=   32.34 CofMax=   10.00 Det=-6.21D-09
 Inversion failed.  Reducing to  5 matrices.
 Large coefficients: NSaved=  5 BigCof=   13.84 CofMax=   10.00 Det=-9.10D-09
 Inversion failed.  Reducing to  4 matrices.
 Coeff-Com:  0.141D+01-0.243D+01-0.132D+01 0.335D+01
 Coeff:      0.141D+01-0.243D+01-0.132D+01 0.335D+01
 Gap=     0.185 Goal=   None    Shift=    0.000
 Gap=     0.242 Goal=   None    Shift=    0.000
 GapD=    0.185 DampG=1.000 DampE=1.000 DampFc=1.0000 IDamp=-1.
 RMSDP=9.82D-04 MaxDP=1.90D-02 DE= 4.11D-04 OVMax= 5.86D-02

 Cycle  19  Pass 1  IDiag  1:
 E= -196.390127272306     Delta-E=        0.000808397420 Rises=F Damp=F
 DIIS: error= 1.73D-03 at cycle  19 NSaved=   5.
 NSaved= 5 IEnMin= 1 EnMin= -196.391439917201     IErMin= 4 ErrMin= 1.56D-03
 ErrMax= 1.73D-03  0.00D+00 EMaxC= 1.00D+00 BMatC= 5.86D-05 BMatP= 6.20D-05
 IDIUse=1 WtCom= 1.00D+00 WtEn= 0.00D+00
 Coeff-Com:  0.804D+00 0.174D+01-0.646D+01 0.381D+01 0.110D+01
 Coeff:      0.804D+00 0.174D+01-0.646D+01 0.381D+01 0.110D+01
 Gap=     0.176 Goal=   None    Shift=    0.000
 Gap=     0.257 Goal=   None    Shift=    0.000
 GapD=    0.176 DampG=1.000 DampE=1.000 DampFc=1.0000 IDamp=-1.
 RMSDP=1.45D-03 MaxDP=3.01D-02 DE= 8.08D-04 OVMax= 8.63D-02

 Cycle  20  Pass 1  IDiag  1:
 E= -196.389198986748     Delta-E=        0.000928285559 Rises=F Damp=F
 DIIS: error= 2.33D-03 at cycle  20 NSaved=   6.
 NSaved= 6 IEnMin= 1 EnMin= -196.391439917201     IErMin= 4 ErrMin= 1.56D-03
 ErrMax= 2.33D-03  0.00D+00 EMaxC= 1.00D+00 BMatC= 1.02D-04 BMatP= 5.86D-05
 IDIUse=1 WtCom= 1.00D+00 WtEn= 0.00D+00
 Coeff-Com:  0.262D+00 0.284D+01-0.775D+01 0.420D+01 0.183D+01-0.374D+00
 Coeff:      0.262D+00 0.284D+01-0.775D+01 0.420D+01 0.183D+01-0.374D+00
 Gap=     0.178 Goal=   None    Shift=    0.000
 Gap=     0.259 Goal=   None    Shift=    0.000
 GapD=    0.178 DampG=1.000 DampE=1.000 DampFc=1.0000 IDamp=-1.
 RMSDP=8.99D-05 MaxDP=2.32D-03 DE= 9.28D-04 OVMax= 6.95D-03

 Cycle  21  Pass 1  IDiag  1:
 E= -196.389100981502     Delta-E=        0.000098005246 Rises=F Damp=F
 DIIS: error= 2.94D-03 at cycle  21 NSaved=   7.
 NSaved= 7 IEnMin= 1 EnMin= -196.391439917201     IErMin= 4 ErrMin= 1.56D-03
 ErrMax= 2.94D-03  0.00D+00 EMaxC= 1.00D+00 BMatC= 1.87D-04 BMatP= 5.86D-05
 IDIUse=1 WtCom= 1.00D+00 WtEn= 0.00D+00
 Coeff-Com: -0.436D-01-0.644D+00-0.126D+00 0.417D+00-0.391D+00 0.535D+01
 Coeff-Com: -0.356D+01
 Coeff:     -0.436D-01-0.644D+00-0.126D+00 0.417D+00-0.391D+00 0.535D+01
 Coeff:     -0.356D+01
 Gap=     0.170 Goal=   None    Shift=    0.000
 Gap=     0.258 Goal=   None    Shift=    0.000
 GapD=    0.170 DampG=1.000 DampE=1.000 DampFc=1.0000 IDamp=-1.
 RMSDP=1.49D-03 MaxDP=2.98D-02 DE= 9.80D-05 OVMax= 8.63D-02

 Cycle  22  Pass 1  IDiag  1:
 E= -196.388284866187     Delta-E=        0.000816115315 Rises=F Damp=F
 DIIS: error= 3.22D-03 at cycle  22 NSaved=   8.
 NSaved= 8 IEnMin= 1 EnMin= -196.391439917201     IErMin= 4 ErrMin= 1.56D-03
 ErrMax= 3.22D-03  0.00D+00 EMaxC= 1.00D+00 BMatC= 1.98D-04 BMatP= 5.86D-05
 IDIUse=1 WtCom= 1.00D+00 WtEn= 0.00D+00
 Coeff-Com:  0.382D+00-0.237D+01 0.129D+01 0.150D+00-0.522D+00 0.618D+01
 Coeff-Com: -0.453D+01 0.429D+00
 Coeff:      0.382D+00-0.237D+01 0.129D+01 0.150D+00-0.522D+00 0.618D+01
 Coeff:     -0.453D+01 0.429D+00
 Gap=     0.171 Goal=   None    Shift=    0.000
 Gap=     0.252 Goal=   None    Shift=    0.000
 GapD=    0.171 DampG=1.000 DampE=1.000 DampFc=1.0000 IDamp=-1.
 RMSDP=1.13D-03 MaxDP=2.38D-02 DE= 8.16D-04 OVMax= 6.39D-02

 Cycle  23  Pass 1  IDiag  1:
 E= -196.387073841949     Delta-E=        0.001211024238 Rises=F Damp=F
 DIIS: error= 5.27D-03 at cycle  23 NSaved=   9.
 NSaved= 9 IEnMin= 1 EnMin= -196.391439917201     IErMin= 4 ErrMin= 1.56D-03
 ErrMax= 5.27D-03  0.00D+00 EMaxC= 1.00D+00 BMatC= 5.26D-04 BMatP= 5.86D-05
 IDIUse=1 WtCom= 1.00D+00 WtEn= 0.00D+00
 Coeff-Com: -0.108D+01 0.149D+01 0.174D+00-0.654D+00-0.335D-01 0.193D+01
 Coeff-Com: -0.120D+01 0.129D+01-0.926D+00
 Coeff:     -0.108D+01 0.149D+01 0.174D+00-0.654D+00-0.335D-01 0.193D+01
 Coeff:     -0.120D+01 0.129D+01-0.926D+00
 Gap=     0.169 Goal=   None    Shift=    0.000
 Gap=     0.239 Goal=   None    Shift=    0.000
 GapD=    0.169 DampG=1.000 DampE=1.000 DampFc=1.0000 IDamp=-1.
 RMSDP=3.35D-03 MaxDP=7.08D-02 DE= 1.21D-03 OVMax= 1.94D-01

 Cycle  24  Pass 1  IDiag  1:
 E= -196.389620054963     Delta-E=       -0.002546213015 Rises=F Damp=F
 DIIS: error= 1.70D-03 at cycle  24 NSaved=  10.
 NSaved=10 IEnMin= 1 EnMin= -196.391439917201     IErMin= 4 ErrMin= 1.56D-03
 ErrMax= 1.70D-03  0.00D+00 EMaxC= 1.00D+00 BMatC= 4.76D-05 BMatP= 5.86D-05
 IDIUse=1 WtCom= 1.00D+00 WtEn= 0.00D+00
 Coeff-Com: -0.492D+00 0.716D+00-0.181D+01 0.761D+00 0.179D-01 0.958D+00
 Coeff-Com: -0.126D+01 0.644D+00-0.439D+00 0.191D+01
 Coeff:     -0.492D+00 0.716D+00-0.181D+01 0.761D+00 0.179D-01 0.958D+00
 Coeff:     -0.126D+01 0.644D+00-0.439D+00 0.191D+01
 Gap=     0.170 Goal=   None    Shift=    0.000
 Gap=     0.261 Goal=   None    Shift=    0.000
 GapD=    0.170 DampG=1.000 DampE=1.000 DampFc=1.0000 IDamp=-1.
 RMSDP=1.68D-03 MaxDP=3.66D-02 DE=-2.55D-03 OVMax= 1.02D-01

 Cycle  25  Pass 1  IDiag  1:
 E= -196.388549304301     Delta-E=        0.001070750663 Rises=F Damp=F
 DIIS: error= 3.64D-03 at cycle  25 NSaved=  11.
 NSaved=11 IEnMin= 1 EnMin= -196.391439917201     IErMin= 4 ErrMin= 1.56D-03
 ErrMax= 3.64D-03  0.00D+00 EMaxC= 1.00D+00 BMatC= 2.97D-04 BMatP= 4.76D-05
 IDIUse=1 WtCom= 1.00D+00 WtEn= 0.00D+00
 Coeff-Com: -0.553D+00 0.917D+00-0.192D+01 0.623D+00 0.250D-01 0.994D+00
 Coeff-Com: -0.122D+01 0.643D+00-0.394D+00 0.202D+01-0.135D+00
 Coeff:     -0.553D+00 0.917D+00-0.192D+01 0.623D+00 0.250D-01 0.994D+00
 Coeff:     -0.122D+01 0.643D+00-0.394D+00 0.202D+01-0.135D+00
 Gap=     0.173 Goal=   None    Shift=    0.000
 Gap=     0.260 Goal=   None    Shift=    0.000
 GapD=    0.173 DampG=1.000 DampE=1.000 DampFc=1.0000 IDamp=-1.
 RMSDP=1.23D-04 MaxDP=2.62D-03 DE= 1.07D-03 OVMax= 7.18D-03

 Cycle  26  Pass 1  IDiag  1:
 E= -196.388462930110     Delta-E=        0.000086374190 Rises=F Damp=F
 DIIS: error= 3.78D-03 at cycle  26 NSaved=  12.
 NSaved=12 IEnMin= 1 EnMin= -196.391439917201     IErMin= 4 ErrMin= 1.56D-03
 ErrMax= 3.78D-03  0.00D+00 EMaxC= 1.00D+00 BMatC= 3.21D-04 BMatP= 4.76D-05
 IDIUse=1 WtCom= 1.00D+00 WtEn= 0.00D+00
 Coeff-Com: -0.263D+00 0.661D-03-0.115D+01 0.510D+00-0.450D-01 0.610D+00
 Coeff-Com: -0.954D+00 0.778D+00-0.637D+00 0.246D+01-0.638D+01 0.607D+01
 Coeff:     -0.263D+00 0.661D-03-0.115D+01 0.510D+00-0.450D-01 0.610D+00
 Coeff:     -0.954D+00 0.778D+00-0.637D+00 0.246D+01-0.638D+01 0.607D+01
 Gap=     0.174 Goal=   None    Shift=    0.000
 Gap=     0.260 Goal=   None    Shift=    0.000
 GapD=    0.174 DampG=1.000 DampE=1.000 DampFc=1.0000 IDamp=-1.
 RMSDP=9.67D-05 MaxDP=2.05D-03 DE= 8.64D-05 OVMax= 5.65D-03

 Cycle  27  Pass 1  IDiag  1:
 E= -196.388529811008     Delta-E=       -0.000066880898 Rises=F Damp=F
 DIIS: error= 3.67D-03 at cycle  27 NSaved=  13.
 NSaved=13 IEnMin= 1 EnMin= -196.391439917201     IErMin= 4 ErrMin= 1.56D-03
 ErrMax= 3.67D-03  0.00D+00 EMaxC= 1.00D+00 BMatC= 3.04D-04 BMatP= 4.76D-05
 IDIUse=1 WtCom= 1.00D+00 WtEn= 0.00D+00
 Large coefficients: NSaved= 13 BigCof=   24.96 CofMax=   10.00 Det=-5.48D-10
 Inversion failed.  Reducing to 12 matrices.
 Coeff-Com: -0.828D+00 0.191D+01-0.303D+01 0.793D+00 0.896D-01 0.152D+01
 Coeff-Com: -0.161D+01 0.401D+00 0.184D+01 0.633D+01-0.684D+01 0.431D+00
 Coeff:     -0.828D+00 0.191D+01-0.303D+01 0.793D+00 0.896D-01 0.152D+01
 Coeff:     -0.161D+01 0.401D+00 0.184D+01 0.633D+01-0.684D+01 0.431D+00
 Gap=     0.172 Goal=   None    Shift=    0.000
 Gap=     0.257 Goal=   None    Shift=    0.000
 GapD=    0.172 DampG=1.000 DampE=1.000 DampFc=1.0000 IDamp=-1.
 RMSDP=6.05D-04 MaxDP=1.30D-02 DE=-6.69D-05 OVMax= 3.56D-02

 Cycle  28  Pass 1  IDiag  1:
 E= -196.388040634366     Delta-E=        0.000489176642 Rises=F Damp=F
 DIIS: error= 4.58D-03 at cycle  28 NSaved=  13.
 NSaved=13 IEnMin= 1 EnMin= -196.391439917201     IErMin= 4 ErrMin= 1.56D-03
 ErrMax= 4.58D-03  0.00D+00 EMaxC= 1.00D+00 BMatC= 4.69D-04 BMatP= 4.76D-05
 IDIUse=1 WtCom= 1.00D+00 WtEn= 0.00D+00
 Coeff-Com: -0.801D+00 0.182D+01-0.293D+01 0.752D+00 0.840D-01 0.146D+01
 Coeff-Com: -0.156D+01 0.399D+00 0.189D+01 0.514D+01-0.494D+01-0.670D-01
 Coeff-Com: -0.245D+00
 Coeff:     -0.801D+00 0.182D+01-0.293D+01 0.752D+00 0.840D-01 0.146D+01
 Coeff:     -0.156D+01 0.399D+00 0.189D+01 0.514D+01-0.494D+01-0.670D-01
 Coeff:     -0.245D+00
 Gap=     0.173 Goal=   None    Shift=    0.000
 Gap=     0.257 Goal=   None    Shift=    0.000
 RMSDP=1.99D-05 MaxDP=3.97D-04 DE= 4.89D-04 OVMax= 1.12D-03

 Cycle  29  Pass 1  IDiag  1:
 E= -196.388025722122     Delta-E=        0.000014912244 Rises=F Damp=F
 DIIS: error= 4.60D-03 at cycle  29 NSaved=  14.
 NSaved=14 IEnMin= 1 EnMin= -196.391439917201     IErMin= 4 ErrMin= 1.56D-03
 ErrMax= 4.60D-03  0.00D+00 EMaxC= 1.00D+00 BMatC= 4.71D-04 BMatP= 4.76D-05
 IDIUse=1 WtCom= 1.00D+00 WtEn= 0.00D+00
 Large coefficients: NSaved= 14 BigCof=   30.33 CofMax=   10.00 Det=-2.38D-11
 Inversion failed.  Reducing to 13 matrices.
 Large coefficients: NSaved= 13 BigCof=   73.09 CofMax=   10.00 Det=-3.26D-11
 Inversion failed.  Reducing to 12 matrices.
 Large coefficients: NSaved= 12 BigCof=   59.30 CofMax=   10.00 Det=-4.30D-11
 Inversion failed.  Reducing to 11 matrices.
 Large coefficients: NSaved= 11 BigCof=   54.43 CofMax=   10.00 Det=-4.44D-11
 Inversion failed.  Reducing to 10 matrices.
 Large coefficients: NSaved= 10 BigCof=   15.88 CofMax=   10.00 Det=-7.08D-10
 Inversion failed.  Reducing to  9 matrices.
 Large coefficients: NSaved=  9 BigCof=   13.24 CofMax=   10.00 Det=-7.21D-10
 Inversion failed.  Reducing to  8 matrices.
 Large coefficients: NSaved=  8 BigCof=   11.42 CofMax=   10.00 Det=-7.45D-10
 Inversion failed.  Reducing to  7 matrices.
 Large coefficients: NSaved=  7 BigCof=   87.40 CofMax=   10.00 Det=-2.26D-09
 Inversion failed.  Reducing to  6 matrices.
 Large coefficients: NSaved=  6 BigCof=  106.00 CofMax=   10.00 Det=-3.60D-09
 Inversion failed.  Reducing to  5 matrices.
 Large coefficients: NSaved=  5 BigCof=  107.91 CofMax=   10.00 Det=-4.70D-09
 Inversion failed.  Reducing to  4 matrices.
 Large coefficients: NSaved=  4 BigCof=  108.86 CofMax=   10.00 Det=-4.84D-09
 Inversion failed.  Reducing to  3 matrices.
 Large coefficients: NSaved=  3 BigCof=  101.44 CofMax=   10.00 Det=-5.25D-09
 Inversion failed.  Reducing to  2 matrices.
 Large coefficients: NSaved=  2 BigCof=  172.81 CofMax=   10.00 Det=-5.79D-09
 Coeff-Com:  0.173D+03-0.172D+03
 Coeff:      0.173D+03-0.172D+03
 Gap=     0.181 Goal=   None    Shift=    0.000
 Gap=     0.232 Goal=   None    Shift=    0.000
 GapD=    0.181 DampG=1.000 DampE=1.000 DampFc=1.0000 IDamp=-1.
 RMSDP=3.40D-03 MaxDP=6.89D-02 DE= 1.49D-05 OVMax= 1.95D-01

 Cycle  30  Pass 1  IDiag  1:
 E= -196.390265905227     Delta-E=       -0.002240183104 Rises=F Damp=F
 DIIS: error= 3.19D-03 at cycle  30 NSaved=   3.
 NSaved= 3 IEnMin= 3 EnMin= -196.390265905227     IErMin= 3 ErrMin= 3.19D-03
 ErrMax= 3.19D-03  0.00D+00 EMaxC= 1.00D+00 BMatC= 1.78D-04 BMatP= 4.69D-04
 IDIUse=1 WtCom= 1.00D+00 WtEn= 0.00D+00
 Large coefficients: NSaved=  3 BigCof=   96.65 CofMax=   10.00 Det=-4.86D-09
 Inversion failed.  Reducing to  2 matrices.
 Coeff-Com: -0.226D+00 0.123D+01
 Coeff:     -0.226D+00 0.123D+01
 Gap=     0.201 Goal=   None    Shift=    0.000
 Gap=     0.236 Goal=   None    Shift=    0.000
 GapD=    0.201 DampG=1.000 DampE=1.000 DampFc=1.0000 IDamp=-1.
 RMSDP=9.57D-04 MaxDP=1.96D-02 DE=-2.24D-03 OVMax= 6.15D-02

 Cycle  31  Pass 1  IDiag  1:
 E= -196.391188022310     Delta-E=       -0.000922117084 Rises=F Damp=F
 DIIS: error= 2.08D-03 at cycle  31 NSaved=   3.
 NSaved= 3 IEnMin= 3 EnMin= -196.391188022310     IErMin= 3 ErrMin= 2.08D-03
 ErrMax= 2.08D-03  0.00D+00 EMaxC= 1.00D+00 BMatC= 7.80D-05 BMatP= 1.78D-04
 IDIUse=1 WtCom= 1.00D+00 WtEn= 0.00D+00
 Coeff-Com: -0.144D+00 0.109D+00 0.104D+01
 Coeff:     -0.144D+00 0.109D+00 0.104D+01
 Gap=     0.206 Goal=   None    Shift=    0.000
 Gap=     0.230 Goal=   None    Shift=    0.000
 GapD=    0.206 DampG=1.000 DampE=1.000 DampFc=1.0000 IDamp=-1.
 RMSDP=7.19D-04 MaxDP=1.47D-02 DE=-9.22D-04 OVMax= 4.17D-02

 Cycle  32  Pass 1  IDiag  1:
 E= -196.391872766066     Delta-E=       -0.000684743756 Rises=F Damp=F
 DIIS: error= 2.50D-03 at cycle  32 NSaved=   4.
 NSaved= 4 IEnMin= 4 EnMin= -196.391872766066     IErMin= 3 ErrMin= 2.08D-03
 ErrMax= 2.50D-03  0.00D+00 EMaxC= 1.00D+00 BMatC= 9.67D-05 BMatP= 7.80D-05
 IDIUse=1 WtCom= 1.00D+00 WtEn= 0.00D+00
 Coeff-Com: -0.131D+00 0.117D+00 0.114D+01-0.130D+00
 Coeff:     -0.131D+00 0.117D+00 0.114D+01-0.130D+00
 Gap=     0.205 Goal=   None    Shift=    0.500
 Gap=     0.231 Goal=   None    Shift=    0.500
 GapD=    0.205 DampG=1.000 DampE=1.000 DampFc=1.0000 IDamp=-1.
 RMSDP=6.71D-05 MaxDP=1.18D-03 DE=-6.85D-04 OVMax= 3.66D-03

 >>>>>>>>>> Convergence criterion not met.
 SCF Done:  E(ULC-wHPBE) =  -196.391872766     A.U. after   33 cycles
            NFock= 32  Conv=0.67D-04     -V/T= 2.0227
 <Sx>= 0.0000 <Sy>= 0.0000 <Sz>= 0.5000 <S**2>= 0.9180 S= 0.5808
 <L.S>= 0.000000000000E+00
 KE= 1.920412305486D+02 PE=-7.306574399186D+02 EE= 1.972024368109D+02
 Annihilation of the first spin contaminant:
 S**2 before annihilation     0.9180,   after     0.7707
 Leave Link  502 at Thu Mar  5 12:49:53 2020, MaxMem=  6710886400 cpu:              47.1 elap:               3.0
 (Enter /opt/ohpc/pub/libs/gaussian/g16-A.03/sandybridge/g16/l508.exe)
 Keep R1 and R2 ints in memory in symmetry-blocked form, NReq=16816059.
 FoFCou: FMM=F IPFlag=           0 FMFlag=           0 FMFlg1=           0
         NFxFlg=           0 DoJE=F BraDBF=F KetDBF=F FulRan=T
         wScrn=  0.000000 ICntrl=       600 IOpCl=  0 I1Cent=           0 NGrid=           0
         NMat0=    1 NMatS0=   1653 NMatT0=    0 NMatD0=    1 NMtDS0=    0 NMtDT0=    0
 Petite list used in FoFCou.
 Tight linear equation convergence will be used.
 ULC-wHPBE wavefunction.
 Quadratic Convergence SCF Method.
 Line search only if initial step raises energy.
 Iteration   1 EE= -196.391809936715                                    Grad=6.951D-03 Max rot=    0.3267 deg.
 QCNR:  CnvC1=6.95D-08 CnvC2=6.95D-07
 LinEq1:  Iter=  0 NonCon=     1 RMS=5.02D-04 Max=1.69D-02 NDo=     1
 AX will form     1 AO Fock derivatives at one time.
 LinEq1:  Iter=  1 NonCon=     1 RMS=2.90D-04 Max=9.48D-03 NDo=     1
 LinEq1:  Iter=  2 NonCon=     1 RMS=6.70D-05 Max=6.28D-04 NDo=     1
 LinEq1:  Iter=  3 NonCon=     1 RMS=4.00D-05 Max=6.84D-04 NDo=     1
 LinEq1:  Iter=  4 NonCon=     1 RMS=2.12D-05 Max=3.37D-04 NDo=     1
 LinEq1:  Iter=  5 NonCon=     1 RMS=7.61D-06 Max=1.19D-04 NDo=     1
 LinEq1:  Iter=  6 NonCon=     1 RMS=2.71D-06 Max=3.84D-05 NDo=     1
 LinEq1:  Iter=  7 NonCon=     1 RMS=1.49D-06 Max=1.80D-05 NDo=     1
 LinEq1:  Iter=  8 NonCon=     1 RMS=3.68D-07 Max=3.84D-06 NDo=     1
 LinEq1:  Iter=  9 NonCon=     1 RMS=7.51D-08 Max=1.07D-06 NDo=     1
 LinEq1:  Iter= 10 NonCon=     0 RMS=1.37D-08 Max=2.44D-07 NDo=     1
 Linear equations converged to 6.951D-08 6.951D-07 after    10 iterations.
 Angle between quadratic step and gradient= 148.26 degrees.
 Incorrect curvature in search direction -- initial direction reversed.
     ILin= 1 X=0.000D+00 Y=-1.963918099367D+02 DE= 0.00D+00 F= -4.28D-02
     ILin= 2 X=3.000D-01 Y=-1.962684092827D+02 DE= 1.23D-01 F=  1.18D+00
     ILin= 3 X=2.000D-01 Y=-1.963606898322D+02 DE= 3.11D-02 F=  6.19D-01
     ILin= 4 X=1.568D-01 Y=-1.963810832383D+02 DE= 1.07D-02 F=  3.32D-01
     ILin= 5 X=1.109D-01 Y=-1.963911317985D+02 DE= 6.78D-04 F=  1.22D-01
     Reject lnstep minimum 6.857D-02 FVal=-1.964110923294D+02 Lims=  0.00D+00  1.57D-01
     ILin= 6 X=6.857D-02 Y=-1.963936816853D+02 DE=-1.87D-03 F=  9.93D-03
     A contracting polynomial of degree  6 produced  0.0589
 Iteration   2 EE= -196.393697216012     Delta-E=       -0.001887279298 Grad=5.316D-03 Max rot=    0.1681 deg.
 QCNR:  CnvC1=5.32D-08 CnvC2=5.32D-07
 LinEq1:  Iter=  0 NonCon=     1 RMS=3.13D-04 Max=7.82D-03 NDo=     1
 LinEq1:  Iter=  1 NonCon=     1 RMS=1.25D-04 Max=2.26D-03 NDo=     1
 LinEq1:  Iter=  2 NonCon=     1 RMS=9.07D-05 Max=1.70D-03 NDo=     1
 LinEq1:  Iter=  3 NonCon=     1 RMS=5.94D-05 Max=6.61D-04 NDo=     1
 LinEq1:  Iter=  4 NonCon=     1 RMS=2.32D-05 Max=2.62D-04 NDo=     1
 LinEq1:  Iter=  5 NonCon=     1 RMS=4.82D-06 Max=6.62D-05 NDo=     1
 LinEq1:  Iter=  6 NonCon=     1 RMS=1.97D-06 Max=2.35D-05 NDo=     1
 LinEq1:  Iter=  7 NonCon=     1 RMS=9.20D-07 Max=1.36D-05 NDo=     1
 LinEq1:  Iter=  8 NonCon=     1 RMS=2.92D-07 Max=4.01D-06 NDo=     1
 LinEq1:  Iter=  9 NonCon=     1 RMS=5.16D-08 Max=7.78D-07 NDo=     1
 LinEq1:  Iter= 10 NonCon=     0 RMS=9.32D-09 Max=2.00D-07 NDo=     1
 Linear equations converged to 5.316D-08 5.316D-07 after    10 iterations.
 Angle between quadratic step and gradient=  53.73 degrees.
     ILin= 1 X=0.000D+00 Y=-1.963936972160D+02 DE= 0.00D+00 F= -1.30D-04
     ILin= 2 X=1.000D+00 Y=-1.963937619180D+02 DE=-6.47D-05 F=  4.67D-07
     Accept linear search using points  1 and  2.
     An  expanding polynomial of degree  2 produced  0.9964
     Minimum is close to point  2 DX= -3.57D-03 DF= -8.33D-10 DXR=  3.58D-03 DFR=  1.29D-05 which will be used.
 Iteration   3 EE= -196.393761918019     Delta-E=       -0.000064702007 Grad=8.209D-05 Max rot=    0.0036 deg.
 QCNR:  CnvC1=8.21D-10 CnvC2=8.21D-09
 LinEq1:  Iter=  0 NonCon=     1 RMS=5.59D-06 Max=1.90D-04 NDo=     1
 LinEq1:  Iter=  1 NonCon=     1 RMS=3.18D-06 Max=9.02D-05 NDo=     1
 LinEq1:  Iter=  2 NonCon=     1 RMS=1.94D-06 Max=3.58D-05 NDo=     1
 LinEq1:  Iter=  3 NonCon=     1 RMS=8.89D-07 Max=9.30D-06 NDo=     1
 LinEq1:  Iter=  4 NonCon=     1 RMS=2.97D-07 Max=3.95D-06 NDo=     1
 LinEq1:  Iter=  5 NonCon=     1 RMS=8.37D-08 Max=1.18D-06 NDo=     1
 LinEq1:  Iter=  6 NonCon=     1 RMS=4.90D-08 Max=6.73D-07 NDo=     1
 LinEq1:  Iter=  7 NonCon=     1 RMS=2.01D-08 Max=2.60D-07 NDo=     1
 LinEq1:  Iter=  8 NonCon=     1 RMS=4.82D-09 Max=5.66D-08 NDo=     1
 LinEq1:  Iter=  9 NonCon=     1 RMS=8.69D-10 Max=1.46D-08 NDo=     1
 LinEq1:  Iter= 10 NonCon=     0 RMS=1.58D-10 Max=3.75D-09 NDo=     1
 Linear equations converged to 8.209D-10 8.209D-09 after    10 iterations.
 Angle between quadratic step and gradient=  50.43 degrees.
     ILin= 1 X=0.000D+00 Y=-1.963937619180D+02 DE= 0.00D+00 F= -7.20D-08
     ILin= 2 X=1.000D+00 Y=-1.963937619540D+02 DE=-3.60D-08
 Iteration   4 EE= -196.393761954044     Delta-E=       -0.000000036025 Grad=1.180D-07 Max rot=    0.0000 deg.
 Rotation gradient small -- convergence achieved.
 Orbital symmetries in SymMO:
    1=1    2=4    3=4    4=1    5=1    6=1    7=4    8=1    9=4   10=1
   11=1   12=4   13=4   14=1   15=3   16=1   17=2   18=3   19=4   20=1
   21=2   22=3   23=1   24=4   25=1   26=4   27=1   28=1   29=4   30=1
   31=4   32=3   33=4   34=3   35=2   36=1   37=1   38=4   39=1   40=2
   41=1   42=4   43=3   44=1   45=4   46=1   47=4   48=1   49=1   50=1
   51=4   52=1   53=4   54=4   55=1   56=1   57=4
 Orbital symmetries in SymMO:
    1=4    2=1    3=4    4=1    5=1    6=1    7=4    8=1    9=4   10=1
   11=1   12=4   13=4   14=1   15=1   16=3   17=2   18=1   19=3   20=4
   21=2   22=3   23=1   24=4   25=1   26=4   27=1   28=1   29=4   30=1
   31=4   32=3   33=4   34=1   35=2   36=3   37=1   38=4   39=1   40=2
   41=1   42=4   43=3   44=1   45=4   46=1   47=4   48=1   49=1   50=1
   51=4   52=1   53=4   54=4   55=1   56=1   57=4
 SCF Done:  E(ULC-wHPBE) =  -196.393761954     a.u. after    4 cycles
            Convg  =    0.1180D-06                    39 Fock formations.
              S**2 =  1.1404                  -V/T =  2.0223
 <Sx>= 0.0000 <Sy>= 0.0000 <Sz>= 0.5000 <S**2>= 1.1404 S= 0.6791
 <L.S>= 0.000000000000E+00
 Annihilation of the first spin contaminant:
 S**2 before annihilation     1.1404,   after     0.8554
 Leave Link  508 at Thu Mar  5 12:50:05 2020, MaxMem=  6710886400 cpu:             187.3 elap:              11.8
 (Enter /opt/ohpc/pub/libs/gaussian/g16-A.03/sandybridge/g16/l601.exe)
 Copying SCF densities to generalized density rwf, IOpCl= 1 IROHF=0.

 **********************************************************************

            Population analysis using the SCF density.

 **********************************************************************

 Orbital symmetries:
 Alpha Orbitals:
       Occupied  (A1) (B2) (B2) (A1) (A1) (A1) (B2) (A1) (B2) (A1)
                 (A1) (B2) (B2) (A1) (B1) (A1) (A2) (B1)
       Virtual   (B2) (A1) (A2) (B1) (A1) (B2) (A1) (B2) (A1) (A1)
                 (B2) (A1) (B2) (B1) (B2) (B1) (A2) (A1) (A1) (B2)
                 (A1) (A2) (A1) (B2) (B1) (A1) (B2) (A1) (B2) (A1)
                 (A1) (A1) (B2) (A1) (B2) (B2) (A1) (A1) (B2)
 Beta  Orbitals:
       Occupied  (B2) (A1) (B2) (A1) (A1) (A1) (B2) (A1) (B2) (A1)
                 (A1) (B2) (B2) (A1) (A1) (B1) (A2)
       Virtual   (A1) (B1) (B2) (A2) (B1) (A1) (B2) (A1) (B2) (A1)
                 (A1) (B2) (A1) (B2) (B1) (B2) (A1) (A2) (B1) (A1)
                 (B2) (A1) (A2) (A1) (B2) (B1) (A1) (B2) (A1) (B2)
                 (A1) (A1) (A1) (B2) (A1) (B2) (B2) (A1) (A1) (B2)
 The electronic state is 2-B1.
 Alpha  occ. eigenvalues --  -10.44914 -10.44914 -10.37082 -10.37081 -10.36331
 Alpha  occ. eigenvalues --   -1.22587  -1.13685  -1.07234  -0.96183  -0.88948
 Alpha  occ. eigenvalues --   -0.88486  -0.81399  -0.76545  -0.74451  -0.73350
 Alpha  occ. eigenvalues --   -0.69872  -0.64360  -0.57495
 Alpha virt. eigenvalues --   -0.38009  -0.31824  -0.23722  -0.12725  -0.08271
 Alpha virt. eigenvalues --   -0.04338  -0.00861   0.00670   0.01987   0.09563
 Alpha virt. eigenvalues --    0.11021   0.19098   0.20491   0.29020   0.31808
 Alpha virt. eigenvalues --    0.39240   0.39277   0.39354   0.41583   0.42851
 Alpha virt. eigenvalues --    0.44746   0.46862   0.47423   0.49416   0.49590
 Alpha virt. eigenvalues --    0.62085   0.64390   0.67178   0.69940   0.69949
 Alpha virt. eigenvalues --    0.75278   0.77229   0.78847   0.84920   0.91992
 Alpha virt. eigenvalues --    0.96513   1.01387   1.24022   1.24486
  Beta  occ. eigenvalues --  -10.43716 -10.43713 -10.37554 -10.37552 -10.35441
  Beta  occ. eigenvalues --   -1.21509  -1.12875  -1.04027  -0.95001  -0.88352
  Beta  occ. eigenvalues --   -0.87513  -0.80795  -0.76215  -0.73767  -0.71203
  Beta  occ. eigenvalues --   -0.69958  -0.61387
  Beta virt. eigenvalues --   -0.38842  -0.32073  -0.31798  -0.20535  -0.10137
  Beta virt. eigenvalues --   -0.07950  -0.03941  -0.00249   0.00737   0.02459
  Beta virt. eigenvalues --    0.10242   0.11587   0.19786   0.20698   0.32409
  Beta virt. eigenvalues --    0.32510   0.39835   0.40974   0.41599   0.42259
  Beta virt. eigenvalues --    0.43413   0.44997   0.47493   0.49876   0.50440
  Beta virt. eigenvalues --    0.50947   0.56239   0.64897   0.65557   0.70051
  Beta virt. eigenvalues --    0.70983   0.75850   0.77158   0.79314   0.86244
  Beta virt. eigenvalues --    0.92124   0.97292   1.01926   1.24834   1.26068
          Condensed to atoms (all electrons):
               1          2          3          4          5          6
     1  C    5.208312   0.496076  -0.060481  -0.041568   0.139630   0.085681
     2  C    0.496076   4.986006   0.481961  -0.056489  -0.041568  -0.002607
     3  C   -0.060481   0.481961   4.882747   0.481961  -0.060481   0.000466
     4  C   -0.041568  -0.056489   0.481961   4.986006   0.496076  -0.002607
     5  C    0.139630  -0.041568  -0.060481   0.496076   5.208312   0.085681
     6  H    0.085681  -0.002607   0.000466  -0.002607   0.085681   0.577885
     7  H    0.346575  -0.027627   0.002214   0.000618  -0.002250  -0.005029
     8  H   -0.022179   0.352655  -0.010211   0.002843   0.000388   0.000076
     9  H    0.003633  -0.026740   0.367831  -0.026740   0.003633  -0.000000
    10  H    0.000388   0.002843  -0.010211   0.352655  -0.022179   0.000076
    11  H   -0.002250   0.000618   0.002214  -0.027627   0.346575  -0.005029
               7          8          9         10         11
     1  C    0.346575  -0.022179   0.003633   0.000388  -0.002250
     2  C   -0.027627   0.352655  -0.026740   0.002843   0.000618
     3  C    0.002214  -0.010211   0.367831  -0.010211   0.002214
     4  C    0.000618   0.002843  -0.026740   0.352655  -0.027627
     5  C   -0.002250   0.000388   0.003633  -0.022179   0.346575
     6  H   -0.005029   0.000076  -0.000000   0.000076  -0.005029
     7  H    0.391583   0.000723  -0.000076  -0.000006   0.000021
     8  H    0.000723   0.374161  -0.002076  -0.000049  -0.000006
     9  H   -0.000076  -0.002076   0.426042  -0.002076  -0.000076
    10  H   -0.000006  -0.000049  -0.002076   0.374161   0.000723
    11  H    0.000021  -0.000006  -0.000076   0.000723   0.391583
          Atomic-Atomic Spin Densities.
               1          2          3          4          5          6
     1  C    0.902850  -0.046742  -0.016076  -0.018063   0.074673  -0.020513
     2  C   -0.046742  -0.397367   0.012586   0.010955  -0.018063  -0.000698
     3  C   -0.016076   0.012586   0.702746   0.012586  -0.016076  -0.000026
     4  C   -0.018063   0.010955   0.012586  -0.397367  -0.046742  -0.000698
     5  C    0.074673  -0.018063  -0.016076  -0.046742   0.902850  -0.020513
     6  H   -0.020513  -0.000698  -0.000026  -0.000698  -0.020513  -0.448297
     7  H   -0.010583   0.003299  -0.000111   0.000071  -0.000305   0.003517
     8  H   -0.002742   0.006057  -0.001292  -0.000230   0.000246  -0.000019
     9  H    0.000108  -0.000053  -0.002102  -0.000053   0.000108  -0.000000
    10  H    0.000246  -0.000230  -0.001292   0.006057  -0.002742  -0.000019
    11  H   -0.000305   0.000071  -0.000111   0.003299  -0.010583   0.003517
               7          8          9         10         11
     1  C   -0.010583  -0.002742   0.000108   0.000246  -0.000305
     2  C    0.003299   0.006057  -0.000053  -0.000230   0.000071
     3  C   -0.000111  -0.001292  -0.002102  -0.001292  -0.000111
     4  C    0.000071  -0.000230  -0.000053   0.006057   0.003299
     5  C   -0.000305   0.000246   0.000108  -0.002742  -0.010583
     6  H    0.003517  -0.000019  -0.000000  -0.000019   0.003517
     7  H   -0.040351   0.000038   0.000006  -0.000000  -0.000010
     8  H    0.000038   0.022394  -0.000003   0.000008  -0.000000
     9  H    0.000006  -0.000003  -0.030490  -0.000003   0.000006
    10  H   -0.000000   0.000008  -0.000003   0.022394   0.000038
    11  H   -0.000010  -0.000000   0.000006   0.000038  -0.040351
 Mulliken charges and spin densities:
               1          2
     1  C   -0.153817   0.862853
     2  C   -0.165129  -0.430186
     3  C   -0.078011   0.690833
     4  C   -0.165129  -0.430186
     5  C   -0.153817   0.862853
     6  H    0.265407  -0.483747
     7  H    0.293252  -0.044428
     8  H    0.303675   0.024457
     9  H    0.256643  -0.032477
    10  H    0.303675   0.024457
    11  H    0.293252  -0.044428
 Sum of Mulliken charges =   1.00000   1.00000
 Mulliken charges and spin densities with hydrogens summed into heavy atoms:
               1          2
     1  C    0.404842   0.334678
     2  C    0.138545  -0.405729
     3  C    0.178632   0.658356
     4  C    0.138545  -0.405729
     5  C    0.139435   0.818425
 Electronic spatial extent (au):  <R**2>=            373.9811
 Charge=              1.0000 electrons
 Dipole moment (field-independent basis, Debye):
    X=             -0.0000    Y=              0.0000    Z=             -2.6727  Tot=              2.6727
 Quadrupole moment (field-independent basis, Debye-Ang):
   XX=            -32.0084   YY=            -12.4525   ZZ=            -10.5704
   XY=              0.0000   XZ=              0.0000   YZ=             -0.0000
 Traceless Quadrupole moment (field-independent basis, Debye-Ang):
   XX=            -13.6646   YY=              5.8912   ZZ=              7.7734
   XY=              0.0000   XZ=              0.0000   YZ=             -0.0000
 Octapole moment (field-independent basis, Debye-Ang**2):
  XXX=              0.0000  YYY=              0.0000  ZZZ=            -20.1208  XYY=             -0.0000
  XXY=             -0.0000  XXZ=              1.5091  XZZ=              0.0000  YZZ=              0.0000
  YYZ=             -3.6161  XYZ=             -0.0000
 Hexadecapole moment (field-independent basis, Debye-Ang**3):
 XXXX=            -32.1759 YYYY=           -172.9609 ZZZZ=            -99.8678 XXXY=             -0.0000
 XXXZ=             -0.0000 YYYX=             -0.0000 YYYZ=             -0.0000 ZZZX=             -0.0000
 ZZZY=              0.0000 XXYY=            -54.1513 XXZZ=            -43.4763 YYZZ=            -48.5776
 XXYZ=              0.0000 YYXZ=              0.0000 ZZXY=             -0.0000
 N-N= 1.450218997931D+02 E-N=-7.307011925047D+02  KE= 1.921057229487D+02
 Symmetry A1   KE= 1.109234225823D+02
 Symmetry A2   KE= 2.456208949161D+00
 Symmetry B1   KE= 3.372159450427D+00
 Symmetry B2   KE= 7.535393196677D+01
 Symmetry A1   SP= 7.430986164944D-16
 Symmetry A2   SP=-3.837533589512D-16
 Symmetry B1   SP= 1.000000000000D+00
 Symmetry B2   SP= 3.324841487198D-16
                          Isotropic Fermi Contact Couplings
        Atom                 a.u.       MegaHertz       Gauss      10(-4) cm-1
     1  C(13)              0.17834     200.48635      71.53851      66.87505
     2  C(13)             -0.06895     -77.51803     -27.66036     -25.85723
     3  C(13)              0.11645     130.91311      46.71305      43.66791
     4  C(13)             -0.06895     -77.51803     -27.66036     -25.85723
     5  C(13)              0.17834     200.48635      71.53851      66.87505
     6  H(1)              -0.17011    -760.39355    -271.32733    -253.63999
     7  H(1)              -0.01760     -78.66329     -28.06902     -26.23925
     8  H(1)               0.01069      47.80303      17.05731      15.94537
     9  H(1)              -0.01250     -55.88526     -19.94125     -18.64132
    10  H(1)               0.01069      47.80303      17.05731      15.94537
    11  H(1)              -0.01760     -78.66329     -28.06902     -26.23925
 --------------------------------------------------------
       Center         ----  Spin Dipole Couplings  ----
                      3XX-RR        3YY-RR        3ZZ-RR
 --------------------------------------------------------
     1   Atom        0.549750     -0.212531     -0.337219
     2   Atom       -0.347180      0.132471      0.214709
     3   Atom        0.642271     -0.350432     -0.291839
     4   Atom       -0.347180      0.132471      0.214709
     5   Atom        0.549750     -0.212531     -0.337219
     6   Atom       -0.019731     -0.007163      0.026894
     7   Atom       -0.016848      0.041588     -0.024739
     8   Atom       -0.008564     -0.001874      0.010438
     9   Atom       -0.006706     -0.042526      0.049232
    10   Atom       -0.008564     -0.001874      0.010438
    11   Atom       -0.016848      0.041588     -0.024739
 --------------------------------------------------------
                        XY            XZ            YZ
 --------------------------------------------------------
     1   Atom        0.000000      0.000000      0.142051
     2   Atom       -0.000000      0.000000      0.003878
     3   Atom       -0.000000      0.000000      0.000000
     4   Atom       -0.000000     -0.000000     -0.003878
     5   Atom        0.000000      0.000000     -0.142051
     6   Atom        0.000000     -0.000000     -0.000000
     7   Atom        0.000000      0.000000     -0.050088
     8   Atom        0.000000      0.000000     -0.012217
     9   Atom       -0.000000     -0.000000      0.000000
    10   Atom        0.000000     -0.000000      0.012217
    11   Atom        0.000000      0.000000      0.050088
 --------------------------------------------------------


 ---------------------------------------------------------------------------------
              Anisotropic Spin Dipole Couplings in Principal Axis System
 ---------------------------------------------------------------------------------

       Atom             a.u.   MegaHertz   Gauss  10(-4) cm-1        Axes

              Baa    -0.4300   -57.702   -20.590   -19.247 -0.0000 -0.5469  0.8372
     1 C(13)  Bbb    -0.1197   -16.069    -5.734    -5.360  0.0000  0.8372  0.5469
              Bcc     0.5498    73.771    26.323    24.607  1.0000 -0.0000  0.0000
 
              Baa    -0.3472   -46.588   -16.624   -15.540  1.0000 -0.0000  0.0000
     2 C(13)  Bbb     0.1323    17.752     6.334     5.921  0.0000  0.9989 -0.0470
              Bcc     0.2149    28.836    10.290     9.619  0.0000  0.0470  0.9989
 
              Baa    -0.3504   -47.025   -16.780   -15.686  0.0000  1.0000 -0.0000
     3 C(13)  Bbb    -0.2918   -39.162   -13.974   -13.063 -0.0000  0.0000  1.0000
              Bcc     0.6423    86.187    30.754    28.749  1.0000 -0.0000  0.0000
 
              Baa    -0.3472   -46.588   -16.624   -15.540  1.0000  0.0000  0.0000
     4 C(13)  Bbb     0.1323    17.752     6.334     5.921 -0.0000  0.9989  0.0470
              Bcc     0.2149    28.836    10.290     9.619 -0.0000 -0.0470  0.9989
 
              Baa    -0.4300   -57.702   -20.590   -19.247 -0.0000  0.5469  0.8372
     5 C(13)  Bbb    -0.1197   -16.069    -5.734    -5.360 -0.0000  0.8372 -0.5469
              Bcc     0.5498    73.771    26.323    24.607  1.0000  0.0000  0.0000
 
              Baa    -0.0197   -10.527    -3.756    -3.512  1.0000 -0.0000  0.0000
     6 H(1)   Bbb    -0.0072    -3.822    -1.364    -1.275  0.0000  1.0000  0.0000
              Bcc     0.0269    14.349     5.120     4.786 -0.0000 -0.0000  1.0000
 
              Baa    -0.0516   -27.557    -9.833    -9.192 -0.0000  0.4733  0.8809
     7 H(1)   Bbb    -0.0168    -8.989    -3.208    -2.999  1.0000  0.0000  0.0000
              Bcc     0.0685    36.546    13.041    12.190 -0.0000  0.8809 -0.4733
 
              Baa    -0.0094    -5.015    -1.789    -1.673 -0.0000  0.8515  0.5244
     8 H(1)   Bbb    -0.0086    -4.569    -1.630    -1.524  1.0000  0.0000  0.0000
              Bcc     0.0180     9.584     3.420     3.197  0.0000 -0.5244  0.8515
 
              Baa    -0.0425   -22.690    -8.096    -7.569  0.0000  1.0000 -0.0000
     9 H(1)   Bbb    -0.0067    -3.578    -1.277    -1.194  1.0000 -0.0000  0.0000
              Bcc     0.0492    26.268     9.373     8.762  0.0000  0.0000  1.0000
 
              Baa    -0.0094    -5.015    -1.789    -1.673 -0.0000  0.8515 -0.5244
    10 H(1)   Bbb    -0.0086    -4.569    -1.630    -1.524  1.0000  0.0000 -0.0000
              Bcc     0.0180     9.584     3.420     3.197  0.0000  0.5244  0.8515
 
              Baa    -0.0516   -27.557    -9.833    -9.192 -0.0000 -0.4733  0.8809
    11 H(1)   Bbb    -0.0168    -8.989    -3.208    -2.999  1.0000 -0.0000  0.0000
              Bcc     0.0685    36.546    13.041    12.190  0.0000  0.8809  0.4733
 

 ---------------------------------------------------------------------------------

 No NMR shielding tensors so no spin-rotation constants.
 Leave Link  601 at Thu Mar  5 12:50:06 2020, MaxMem=  6710886400 cpu:              11.6 elap:               0.8
 (Enter /opt/ohpc/pub/libs/gaussian/g16-A.03/sandybridge/g16/l9999.exe)

 Test job not archived.
 1\1\GINC-CNODE212\SP\ULC-wHPBE\6-31G\C5H6(1+,2)\SMGO234\05-Mar-2020\0\
 \#P uLC-wHPBE/6-31G iop(3/130=0273400000, 3/131=0273400000, 3/119=0726
 600000, 3/120=0726600000) scf=(conver=6,fermi,ndamp=35,noincfock,novar
 acc,vshift=500,xqc)\\H6 C5\\1,2\C,0,-1.206512,0.69658,0.\C,0,-1.206512
 ,-0.69658,0.\C,0,0.,-1.39316,0.\C,0,1.206512,-0.69658,0.\C,0,1.206512,
 0.69658,0.\H,0,0.,2.482681,0.\H,0,-2.150065,1.24134,0.\H,0,-2.150065,-
 1.24134,0.\H,0,0.,-2.482681,0.\H,0,2.150065,-1.24134,0.\H,0,2.150065,1
 .24134,0.\\Version=EM64L-G16RevA.03\State=2-B1\HF=-196.393762\S2=1.140
 371\S2-1=0.\S2A=0.855368\RMSD=3.175e-09\Dipole=0.,1.0515317,0.\Quadrup
 ole=4.379993,5.7793058,-10.1592988,0.,0.,0.\PG=C02V [C2(H1C1H1),SGV(C4
 H4)]\\@


 WE HAVE LEARNED THAT NOTHING IS SIMPLE AND
 RATIONAL EXCEPT WHAT WE OURSELVES HAVE INVENTED;
 THAT GOD THINKS IN TERMS NEITHER OF EUCLID OR RIEMANN; THAT SCIENCE HAS "EXPLAINED" NOTHING;
 THAT THE MORE WE KNOW THE MORE FANTASTIC THE WORLD BECOMES
 AND THE PROFOUNDER THE SURROUNDING DARKNESS.
   --  ALDOUS HUXLEY
 Job cpu time:       0 days  0 hours  4 minutes 32.1 seconds.
 Elapsed time:       0 days  0 hours  0 minutes 17.5 seconds.
 File lengths (MBytes):  RWF=    272 Int=      0 D2E=      0 Chk=     32 Scr=     32
 Normal termination of Gaussian 16 at Thu Mar  5 12:50:06 2020.
