 Entering Gaussian System, Link 0=g16
 Input=a1b_tune_c0.gjf
 Output=a1b_tune_c0.log
 Initial command:
 /opt/ohpc/pub/libs/gaussian/g16-A.03/sandybridge/g16/l1.exe "/scratch/smgo234/Ocelot/test/a1b/tuning_a1b_acycle0/Gau-70292.inp" -scrdir="/scratch/smgo234/Ocelot/test/a1b/tuning_a1b_acycle0/"
 Entering Link 1 = /opt/ohpc/pub/libs/gaussian/g16-A.03/sandybridge/g16/l1.exe PID=     70293.
  
 Copyright (c) 1988,1990,1992,1993,1995,1998,2003,2009,2016,
            Gaussian, Inc.  All Rights Reserved.
  
 This is part of the Gaussian(R) 16 program.  It is based on
 the Gaussian(R) 09 system (copyright 2009, Gaussian, Inc.),
 the Gaussian(R) 03 system (copyright 2003, Gaussian, Inc.),
 the Gaussian(R) 98 system (copyright 1998, Gaussian, Inc.),
 the Gaussian(R) 94 system (copyright 1995, Gaussian, Inc.),
 the Gaussian 92(TM) system (copyright 1992, Gaussian, Inc.),
 the Gaussian 90(TM) system (copyright 1990, Gaussian, Inc.),
 the Gaussian 88(TM) system (copyright 1988, Gaussian, Inc.),
 the Gaussian 86(TM) system (copyright 1986, Carnegie Mellon
 University), and the Gaussian 82(TM) system (copyright 1983,
 Carnegie Mellon University). Gaussian is a federally registered
 trademark of Gaussian, Inc.
  
 This software contains proprietary and confidential information,
 including trade secrets, belonging to Gaussian, Inc.
  
 This software is provided under written license and may be
 used, copied, transmitted, or stored only in accord with that
 written license.
  
 The following legend is applicable only to US Government
 contracts under FAR:
  
                    RESTRICTED RIGHTS LEGEND
  
 Use, reproduction and disclosure by the US Government is
 subject to restrictions as set forth in subparagraphs (a)
 and (c) of the Commercial Computer Software - Restricted
 Rights clause in FAR 52.227-19.
  
 Gaussian, Inc.
 340 Quinnipiac St., Bldg. 40, Wallingford CT 06492
  
  
 ---------------------------------------------------------------
 Warning -- This program may not be used in any manner that
 competes with the business of Gaussian, Inc. or will provide
 assistance to any competitor of Gaussian, Inc.  The licensee
 of this program is prohibited from giving any competitor of
 Gaussian, Inc. access to this program.  By using this program,
 the user acknowledges that Gaussian, Inc. is engaged in the
 business of creating and licensing software in the field of
 computational chemistry and represents and warrants to the
 licensee that it is not a competitor of Gaussian, Inc. and that
 it will not use this program in any manner prohibited above.
 ---------------------------------------------------------------
  

 Cite this work as:
 Gaussian 16, Revision A.03,
 M. J. Frisch, G. W. Trucks, H. B. Schlegel, G. E. Scuseria, 
 M. A. Robb, J. R. Cheeseman, G. Scalmani, V. Barone, 
 G. A. Petersson, H. Nakatsuji, X. Li, M. Caricato, A. V. Marenich, 
 J. Bloino, B. G. Janesko, R. Gomperts, B. Mennucci, H. P. Hratchian, 
 J. V. Ortiz, A. F. Izmaylov, J. L. Sonnenberg, D. Williams-Young, 
 F. Ding, F. Lipparini, F. Egidi, J. Goings, B. Peng, A. Petrone, 
 T. Henderson, D. Ranasinghe, V. G. Zakrzewski, J. Gao, N. Rega, 
 G. Zheng, W. Liang, M. Hada, M. Ehara, K. Toyota, R. Fukuda, 
 J. Hasegawa, M. Ishida, T. Nakajima, Y. Honda, O. Kitao, H. Nakai, 
 T. Vreven, K. Throssell, J. A. Montgomery, Jr., J. E. Peralta, 
 F. Ogliaro, M. J. Bearpark, J. J. Heyd, E. N. Brothers, K. N. Kudin, 
 V. N. Staroverov, T. A. Keith, R. Kobayashi, J. Normand, 
 K. Raghavachari, A. P. Rendell, J. C. Burant, S. S. Iyengar, 
 J. Tomasi, M. Cossi, J. M. Millam, M. Klene, C. Adamo, R. Cammi, 
 J. W. Ochterski, R. L. Martin, K. Morokuma, O. Farkas, 
 J. B. Foresman, and D. J. Fox, Gaussian, Inc., Wallingford CT, 2016.
 
 ******************************************
 Gaussian 16:  EM64L-G16RevA.03 25-Dec-2016
                 5-Mar-2020 
 ******************************************
 %mem=50GB
 %nproc=16
 Will use up to   16 processors via shared memory.
 ----------------------------------------------------------------------
 #P uLC-wHPBE/6-31G iop(3/130=0221900000, 3/131=0221900000, 3/119=07781
 00000, 3/120=0778100000) scf=(conver=6,fermi,ndamp=35,noincfock,novara
 cc,vshift=500,xqc)
 ----------------------------------------------------------------------
 1/38=1,172=1/1;
 2/12=2,17=6,18=5,40=1/2;
 3/5=1,6=6,11=2,25=1,30=1,74=-71,116=2,119=778100000,120=778100000,130=221900000,131=221900000/1,2,3;
 4//1;
 5/5=100002,6=6,8=3,10=500,13=1,18=-1,22=13,38=1,93=35/2,8;
 6/7=2,8=2,9=2,10=2,28=1/1;
 99/5=1,9=1/99;
 Leave Link    1 at Thu Mar  5 12:38:04 2020, MaxMem=  6710886400 cpu:              16.4 elap:               1.1
 (Enter /opt/ohpc/pub/libs/gaussian/g16-A.03/sandybridge/g16/l101.exe)
 -----
 H6 C5
 -----
 Symbolic Z-matrix:
 Charge =  1 Multiplicity = 2
 C                    -1.20651   0.69658   0. 
 C                    -1.20651  -0.69658   0. 
 C                     0.       -1.39316   0. 
 C                     1.20651  -0.69658   0. 
 C                     1.20651   0.69658   0. 
 H                     0.        2.48268   0. 
 H                    -2.15007   1.24134   0. 
 H                    -2.15007  -1.24134   0. 
 H                     0.       -2.48268   0. 
 H                     2.15007  -1.24134   0. 
 H                     2.15007   1.24134   0. 
 
 ITRead=  0  0  0  0  0  0  0  0  0  0  0
 MicOpt= -1 -1 -1 -1 -1 -1 -1 -1 -1 -1 -1
 NAtoms=     11 NQM=       11 NQMF=       0 NMMI=      0 NMMIF=      0
                NMic=       0 NMicF=      0.
                    Isotopes and Nuclear Properties:
 (Nuclear quadrupole moments (NQMom) in fm**2, nuclear magnetic moments (NMagM)
  in nuclear magnetons)

  Atom         1           2           3           4           5           6           7           8           9          10
 IAtWgt=          12          12          12          12          12           1           1           1           1           1
 AtmWgt=  12.0000000  12.0000000  12.0000000  12.0000000  12.0000000   1.0078250   1.0078250   1.0078250   1.0078250   1.0078250
 NucSpn=           0           0           0           0           0           1           1           1           1           1
 AtZEff=  -0.0000000  -0.0000000  -0.0000000  -0.0000000  -0.0000000  -0.0000000  -0.0000000  -0.0000000  -0.0000000  -0.0000000
 NQMom=    0.0000000   0.0000000   0.0000000   0.0000000   0.0000000   0.0000000   0.0000000   0.0000000   0.0000000   0.0000000
 NMagM=    0.0000000   0.0000000   0.0000000   0.0000000   0.0000000   2.7928460   2.7928460   2.7928460   2.7928460   2.7928460
 AtZNuc=   6.0000000   6.0000000   6.0000000   6.0000000   6.0000000   1.0000000   1.0000000   1.0000000   1.0000000   1.0000000

  Atom        11
 IAtWgt=           1
 AtmWgt=   1.0078250
 NucSpn=           1
 AtZEff=  -0.0000000
 NQMom=    0.0000000
 NMagM=    2.7928460
 AtZNuc=   1.0000000
 Leave Link  101 at Thu Mar  5 12:38:04 2020, MaxMem=  6710886400 cpu:               3.2 elap:               0.2
 (Enter /opt/ohpc/pub/libs/gaussian/g16-A.03/sandybridge/g16/l202.exe)
                          Input orientation:                          
 ---------------------------------------------------------------------
 Center     Atomic      Atomic             Coordinates (Angstroms)
 Number     Number       Type             X           Y           Z
 ---------------------------------------------------------------------
      1          6           0       -1.206512    0.696580    0.000000
      2          6           0       -1.206512   -0.696580    0.000000
      3          6           0        0.000000   -1.393160    0.000000
      4          6           0        1.206512   -0.696580    0.000000
      5          6           0        1.206512    0.696580    0.000000
      6          1           0        0.000000    2.482681    0.000000
      7          1           0       -2.150065    1.241340    0.000000
      8          1           0       -2.150065   -1.241340    0.000000
      9          1           0        0.000000   -2.482681    0.000000
     10          1           0        2.150065   -1.241340    0.000000
     11          1           0        2.150065    1.241340    0.000000
 ---------------------------------------------------------------------
                    Distance matrix (angstroms):
                    1          2          3          4          5
     1  C    0.000000
     2  C    1.393160   0.000000
     3  C    2.413024   1.393160   0.000000
     4  C    2.786320   2.413024   1.393160   0.000000
     5  C    2.413024   2.786320   2.413024   1.393160   0.000000
     6  H    2.155418   3.400496   3.875841   3.400496   2.155418
     7  H    1.089521   2.155418   3.400496   3.875841   3.400496
     8  H    2.155418   1.089521   2.155418   3.400496   3.875841
     9  H    3.400496   2.155418   1.089521   2.155418   3.400496
    10  H    3.875841   3.400496   2.155418   1.089521   2.155418
    11  H    3.400496   3.875841   3.400496   2.155418   1.089521
                    6          7          8          9         10
     6  H    0.000000
     7  H    2.482681   0.000000
     8  H    4.300129   2.482680   0.000000
     9  H    4.965362   4.300129   2.482681   0.000000
    10  H    4.300129   4.965362   4.300130   2.482681   0.000000
    11  H    2.482681   4.300130   4.965362   4.300129   2.482680
                   11
    11  H    0.000000
 Stoichiometry    C5H6(1+,2)
 Framework group  C2V[C2(HCH),SGV(C4H4)]
 Deg. of freedom    10
 Full point group                 C2V     NOp   4
 Largest Abelian subgroup         C2V     NOp   4
 Largest concise Abelian subgroup C2      NOp   2
                         Standard orientation:                         
 ---------------------------------------------------------------------
 Center     Atomic      Atomic             Coordinates (Angstroms)
 Number     Number       Type             X           Y           Z
 ---------------------------------------------------------------------
      1          6           0       -0.000000    1.206512   -0.928773
      2          6           0       -0.000000    1.206512    0.464387
      3          6           0        0.000000    0.000000    1.160967
      4          6           0       -0.000000   -1.206512    0.464387
      5          6           0       -0.000000   -1.206512   -0.928773
      6          1           0       -0.000000   -0.000000   -2.714874
      7          1           0       -0.000000    2.150065   -1.473533
      8          1           0       -0.000000    2.150065    1.009147
      9          1           0        0.000000    0.000000    2.250488
     10          1           0       -0.000000   -2.150065    1.009147
     11          1           0       -0.000000   -2.150065   -1.473533
 ---------------------------------------------------------------------
 Rotational constants (GHZ):           8.2868568           5.7099792           3.3806054
 Leave Link  202 at Thu Mar  5 12:38:04 2020, MaxMem=  6710886400 cpu:               0.2 elap:               0.0
 (Enter /opt/ohpc/pub/libs/gaussian/g16-A.03/sandybridge/g16/l301.exe)
 Standard basis: 6-31G (6D, 7F)
 Ernie: Thresh=  0.10000D-02 Tol=  0.10000D-05 Strict=F.
 There are    27 symmetry adapted cartesian basis functions of A1  symmetry.
 There are     4 symmetry adapted cartesian basis functions of A2  symmetry.
 There are     6 symmetry adapted cartesian basis functions of B1  symmetry.
 There are    20 symmetry adapted cartesian basis functions of B2  symmetry.
 There are    27 symmetry adapted basis functions of A1  symmetry.
 There are     4 symmetry adapted basis functions of A2  symmetry.
 There are     6 symmetry adapted basis functions of B1  symmetry.
 There are    20 symmetry adapted basis functions of B2  symmetry.
    57 basis functions,   134 primitive gaussians,    57 cartesian basis functions
    18 alpha electrons       17 beta electrons
       nuclear repulsion energy       145.0218997931 Hartrees.
 IExCor=33909 DFT=T Ex+Corr=LC-wHPBE ExCW=0 ScaHFX=  1.000000
 ScaDFX=  1.000000  1.000000  1.000000  1.000000 ScalE2=  1.000000  1.000000
 IRadAn=      5 IRanWt=     -1 IRanGd=            0 ICorTp=0 IEmpDi=  4
 HFx  wShort=  0.000000 wLong=  0.400000 cFull=  0.000000 cShort=  0.000000 cLong= -0.778100
 DFx  wShort=  0.000000 wLong=  0.400000 cFull=  0.000000 cShort=  1.000000 cLong= -0.778100
 NAtoms=   11 NActive=   11 NUniq=    7 SFac= 2.47D+00 NAtFMM=   60 NAOKFM=F Big=F
 Integral buffers will be    131072 words long.
 Raffenetti 2 integral format.
 Two-electron integral symmetry is turned on.
 Leave Link  301 at Thu Mar  5 12:38:04 2020, MaxMem=  6710886400 cpu:               1.0 elap:               0.1
 (Enter /opt/ohpc/pub/libs/gaussian/g16-A.03/sandybridge/g16/l302.exe)
 NPDir=0 NMtPBC=     1 NCelOv=     1 NCel=       1 NClECP=     1 NCelD=      1
         NCelK=      1 NCelE2=     1 NClLst=     1 CellRange=     0.0.
 One-electron integrals computed using PRISM.
 One-electron integral symmetry used in STVInt
 NBasis=    57 RedAO= T EigKep=  2.88D-03  NBF=    27     4     6    20
 NBsUse=    57 1.00D-06 EigRej= -1.00D+00 NBFU=    27     4     6    20
 Precomputing XC quadrature grid using
 IXCGrd= 4 IRadAn=           5 IRanWt=          -1 IRanGd=           0 AccXCQ= 0.00D+00.
 Generated NRdTot=       0 NPtTot=           0 NUsed=           0 NTot=          32
 NSgBfM=    57    57    57    57    57 MxSgAt=    11 MxSgA2=    11.
 Leave Link  302 at Thu Mar  5 12:38:05 2020, MaxMem=  6710886400 cpu:               2.1 elap:               0.1
 (Enter /opt/ohpc/pub/libs/gaussian/g16-A.03/sandybridge/g16/l303.exe)
 DipDrv:  MaxL=1.
 Leave Link  303 at Thu Mar  5 12:38:05 2020, MaxMem=  6710886400 cpu:               0.3 elap:               0.0
 (Enter /opt/ohpc/pub/libs/gaussian/g16-A.03/sandybridge/g16/l401.exe)
 ExpMin= 1.61D-01 ExpMax= 3.05D+03 ExpMxC= 4.57D+02 IAcc=3 IRadAn=         5 AccDes= 0.00D+00
 Harris functional with IExCor=33909 and IRadAn=       5 diagonalized for initial guess.
 HarFok:  IExCor=33909 AccDes= 0.00D+00 IRadAn=         5 IDoV= 1 UseB2=F ITyADJ=14
 ICtDFT=  3500011 ScaDFX=  1.000000  1.000000  1.000000  1.000000
 FoFCou: FMM=F IPFlag=           0 FMFlag=      100000 FMFlg1=           0
         NFxFlg=           0 DoJE=T BraDBF=F KetDBF=T FulRan=T
         wScrn=  0.000000 ICntrl=       500 IOpCl=  0 I1Cent=   200000004 NGrid=           0
         NMat0=    1 NMatS0=      1 NMatT0=    0 NMatD0=    1 NMtDS0=    0 NMtDT0=    0
 Petite list used in FoFCou.
 Harris En= -181.304958766407    
 JPrj=0 DoOrth=F DoCkMO=F.
 Initial guess orbital symmetries:
 Alpha Orbitals:
       Occupied  (A1) (B2) (A1) (B2) (A1) (A1) (B2) (A1) (B2) (A1)
                 (A1) (B2) (B2) (A1) (B1) (A1) (A2) (B1)
       Virtual   (B2) (A1) (A2) (B1) (A1) (B2) (A1) (B2) (A1) (A1)
                 (B2) (A1) (B2) (B1) (B2) (B1) (A2) (A1) (A1) (B2)
                 (A1) (A2) (B1) (B2) (A1) (A1) (B2) (A1) (B2) (A1)
                 (A1) (B2) (A1) (A1) (B2) (B2) (A1) (A1) (B2)
 Beta  Orbitals:
       Occupied  (A1) (B2) (A1) (B2) (A1) (A1) (B2) (A1) (B2) (A1)
                 (A1) (B2) (B2) (A1) (B1) (A1) (A2)
       Virtual   (B1) (B2) (A1) (A2) (B1) (A1) (B2) (A1) (B2) (A1)
                 (A1) (B2) (A1) (B2) (B1) (B2) (B1) (A2) (A1) (A1)
                 (B2) (A1) (A2) (B1) (B2) (A1) (A1) (B2) (A1) (B2)
                 (A1) (A1) (B2) (A1) (A1) (B2) (B2) (A1) (A1) (B2)
 The electronic state of the initial guess is 2-B1.
 Initial guess <Sx>= 0.0000 <Sy>= 0.0000 <Sz>= 0.5000 <S**2>= 0.7500 S= 0.5000
 Leave Link  401 at Thu Mar  5 12:38:05 2020, MaxMem=  6710886400 cpu:               3.3 elap:               0.2
 (Enter /opt/ohpc/pub/libs/gaussian/g16-A.03/sandybridge/g16/l502.exe)
 Keep R1 and R2 ints in memory in symmetry-blocked form, NReq=16815659.
 FoFCou: FMM=F IPFlag=           0 FMFlag=           0 FMFlg1=           0
         NFxFlg=           0 DoJE=F BraDBF=F KetDBF=F FulRan=T
         wScrn=  0.000000 ICntrl=       600 IOpCl=  0 I1Cent=           0 NGrid=           0
         NMat0=    1 NMatS0=   1653 NMatT0=    0 NMatD0=    1 NMtDS0=    0 NMtDT0=    0
 Petite list used in FoFCou.
 UHF open shell SCF:
 Using DIIS extrapolation, IDIIS=    10.
 NGot=  6710886400 LenX=  6710059583 LenY=  6710055893
 Requested convergence on RMS density matrix=1.00D-06 within  32 cycles.
 Requested convergence on MAX density matrix=1.00D-04.
 Requested convergence on             energy=1.00D-04.
 Virtual orbitals will be shifted by   0.500 hartree.
 No special actions if energy rises.
 Dynamic level shift is on during FON iterations.

 Cycle   1  Pass 1  IDiag  1:
 E= -175.781280940787    
 DIIS: error= 5.18D-02 at cycle   1 NSaved=   1.
 NSaved= 1 IEnMin= 1 EnMin= -175.781280940787     IErMin= 1 ErrMin= 5.18D-02
 ErrMax= 5.18D-02  0.00D+00 EMaxC= 1.00D+00 BMatC= 2.95D-01 BMatP= 2.95D-01
 IDIUse=1 WtCom= 1.00D+00 WtEn= 0.00D+00
 Coeff-Com:  0.100D+01
 Coeff:      0.100D+01
 Gap=     0.022 Goal=   None    Shift=    0.500
 T= 1824. Gap= 0.400 NK=0 IS=   19 IE=   57 IFin=   18
          NO(<0.9)=   0  NV(>0.1)=   0     18.00e < EF      0.00e >EF  Err=0.0D+00
 Gap=     0.176 Goal=   None    Shift=    0.500
 T= 1824. Gap= 0.300 NK=0 IS=   18 IE=   57 IFin=   17
          NO(<0.9)=   0  NV(>0.1)=   0     17.00e < EF      0.00e >EF  Err=0.0D+00
 GapD=    0.022 DampG=0.250 DampE=0.500 DampFc=0.1250 IDamp=-1.
 Damping current iteration by 1.25D-01
 RMSDP=3.35D-02 MaxDP=5.63D-01              OVMax= 1.52D-01

 Cycle   2  Pass 1  IDiag  1:
 E= -175.888614666455     Delta-E=       -0.107333725667 Rises=F Damp=T
 DIIS: error= 2.69D-02 at cycle   2 NSaved=   2.
 NSaved= 2 IEnMin= 2 EnMin= -175.888614666455     IErMin= 2 ErrMin= 2.69D-02
 ErrMax= 2.69D-02  0.00D+00 EMaxC= 1.00D+00 BMatC= 9.35D-02 BMatP= 2.95D-01
 IDIUse=1 WtCom= 1.00D+00 WtEn= 0.00D+00
 Coeff-Com: -0.111D+01 0.211D+01
 Coeff:     -0.111D+01 0.211D+01
 Gap=     0.039 Goal=   None    Shift=    0.500
 T= 1719. Gap= 0.451 NK=1 IS=   19 IE=   21 IFin=   18
          NO(<0.9)=   0  NV(>0.1)=   0     18.00e < EF      0.00e >EF  Err=0.0D+00
 Gap=    -0.077 Goal=   None    Shift=    0.500
 T= 1719. Gap= 0.379 NK=1 IS=   18 IE=   20 IFin=   17
          NO(<0.9)=   0  NV(>0.1)=   0     17.00e < EF      0.00e >EF  Err=0.0D+00
 GapD=   -0.077 DampG=0.250 DampE=0.500 DampFc=0.1250 IDamp=-1.
 Damping current iteration by 1.25D-01
 RMSDP=3.13D-02 MaxDP=5.21D-01 DE=-1.07D-01 OVMax= 1.21D-01

 Cycle   3  Pass 1  IDiag  1:
 E= -175.918232143933     Delta-E=       -0.029617477478 Rises=F Damp=T
 DIIS: error= 7.42D-03 at cycle   3 NSaved=   3.
 NSaved= 3 IEnMin= 3 EnMin= -175.918232143933     IErMin= 3 ErrMin= 7.42D-03
 ErrMax= 7.42D-03  0.00D+00 EMaxC= 1.00D+00 BMatC= 1.75D-02 BMatP= 9.35D-02
 IDIUse=1 WtCom= 1.00D+00 WtEn= 0.00D+00
 Coeff-Com:  0.612D-01-0.486D+00 0.142D+01
 Coeff:      0.612D-01-0.486D+00 0.142D+01
 Gap=     0.009 Goal=   None    Shift=    0.500
 T= 1469. Gap= 0.507 NK=1 IS=   19 IE=   23 IFin=   18
          NO(<0.9)=   0  NV(>0.1)=   0     18.00e < EF      0.00e >EF  Err=0.0D+00
 Gap=    -0.155 Goal=   None    Shift=    0.500
 T= 1469. Gap= 0.360 NK=1 IS=   18 IE=   19 IFin=   17
          NO(<0.9)=   0  NV(>0.1)=   0     17.00e < EF      0.00e >EF  Err=0.0D+00
 GapD=   -0.155 DampG=0.250 DampE=1.000 DampFc=0.2500 IDamp=-1.
 Damping current iteration by 2.50D-01
 RMSDP=2.32D-02 MaxDP=4.68D-01 DE=-2.96D-02 OVMax= 1.29D-01

 Cycle   4  Pass 1  IDiag  1:
 E= -175.865172215032     Delta-E=        0.053059928901 Rises=F Damp=T
 DIIS: error= 1.79D-02 at cycle   4 NSaved=   4.
 NSaved= 4 IEnMin= 3 EnMin= -175.918232143933     IErMin= 3 ErrMin= 7.42D-03
 ErrMax= 1.79D-02  0.00D+00 EMaxC= 1.00D+00 BMatC= 3.90D-02 BMatP= 1.75D-02
 IDIUse=1 WtCom= 1.00D+00 WtEn= 0.00D+00
 Coeff-Com: -0.199D+00 0.630D+00 0.741D-01 0.494D+00
 Coeff:     -0.199D+00 0.630D+00 0.741D-01 0.494D+00
 Gap=     0.016 Goal=   None    Shift=    0.000
 T= 1169. Gap= 0.016 NK=1 IS=   12 IE=   23 IFin=   21
          NO(<0.9)=   1  NV(>0.1)=   1     17.88e < EF      0.12e >EF  Err=0.0D+00
 Gap=    -0.063 Goal=   None    Shift=    0.000
 T= 1169. Gap= 0.005 NK=1 IS=   11 IE=   21 IFin=   21
          NO(<0.9)=   1  NV(>0.1)=   1     16.67e < EF      0.33e >EF  Err=7.1D-15
 RMSDP=1.94D-02 MaxDP=2.29D-01 DE= 5.31D-02 OVMax= 8.22D-01

 Cycle   5  Pass 1  IDiag  1:
 E= -175.707719503918     Delta-E=        0.157452711113 Rises=F Damp=F
 DIIS: error= 5.28D-02 at cycle   5 NSaved=   5.
 NSaved= 5 IEnMin= 3 EnMin= -175.918232143933     IErMin= 3 ErrMin= 7.42D-03
 ErrMax= 5.28D-02  0.00D+00 EMaxC= 1.00D+00 BMatC= 1.59D-01 BMatP= 1.75D-02
 IDIUse=1 WtCom= 1.00D+00 WtEn= 0.00D+00
 Coeff-Com: -0.165D+00 0.377D+00 0.532D-01 0.520D+00 0.215D+00
 Coeff:     -0.165D+00 0.377D+00 0.532D-01 0.520D+00 0.215D+00
 Gap=     0.007 Goal=   None    Shift=    0.000
 T= 1169. Gap= 0.009 NK=0 IS=    1 IE=   57 IFin=   21
          NO(<0.9)=   1  NV(>0.1)=   1     17.75e < EF      0.25e >EF  Err=0.0D+00
 Gap=     0.001 Goal=   None    Shift=    0.000
 T= 1169. Gap= 0.003 NK=0 IS=    1 IE=   57 IFin=   21
          NO(<0.9)=   1  NV(>0.1)=   2     16.53e < EF      0.47e >EF  Err=7.1D-15
 RMSDP=1.98D-02 MaxDP=2.08D-01 DE= 1.57D-01 OVMax= 3.51D-01

 Cycle   6  Pass 1  IDiag  1:
 E= -175.911273540093     Delta-E=       -0.203554036174 Rises=F Damp=F
 DIIS: error= 3.48D-02 at cycle   6 NSaved=   6.
 NSaved= 6 IEnMin= 3 EnMin= -175.918232143933     IErMin= 3 ErrMin= 7.42D-03
 ErrMax= 3.48D-02  0.00D+00 EMaxC= 1.00D+00 BMatC= 3.96D-02 BMatP= 1.75D-02
 IDIUse=1 WtCom= 1.00D+00 WtEn= 0.00D+00
 Coeff-Com:  0.134D+00-0.444D+00 0.708D+00 0.233D+00 0.170D+00 0.198D+00
 Coeff:      0.134D+00-0.444D+00 0.708D+00 0.233D+00 0.170D+00 0.198D+00
 Gap=     0.010 Goal=   None    Shift=    0.000
 T= 1169. Gap= 0.002 NK=0 IS=    1 IE=   57 IFin=   21
          NO(<0.9)=   1  NV(>0.1)=   2     17.43e < EF      0.57e >EF  Err=3.6D-15
 Gap=     0.019 Goal=   None    Shift=    0.000
 T= 1169. Gap= 0.020 NK=0 IS=   14 IE=   57 IFin=   20
          NO(<0.9)=   0  NV(>0.1)=   0     16.91e < EF      0.09e >EF  Err=3.6D-15
 RMSDP=1.04D-02 MaxDP=1.92D-01 DE=-2.04D-01 OVMax= 2.21D-01

 Cycle   7  Pass 1  IDiag  1:
 E= -175.885467051182     Delta-E=        0.025806488911 Rises=F Damp=F
 DIIS: error= 3.66D-02 at cycle   7 NSaved=   7.
 NSaved= 7 IEnMin= 3 EnMin= -175.918232143933     IErMin= 3 ErrMin= 7.42D-03
 ErrMax= 3.66D-02  0.00D+00 EMaxC= 1.00D+00 BMatC= 9.61D-02 BMatP= 1.75D-02
 IDIUse=1 WtCom= 1.00D+00 WtEn= 0.00D+00
 Coeff-Com:  0.490D+00-0.150D+01 0.150D+01-0.718D-01 0.110D+00 0.295D+00
 Coeff-Com:  0.173D+00
 Coeff:      0.490D+00-0.150D+01 0.150D+01-0.718D-01 0.110D+00 0.295D+00
 Coeff:      0.173D+00
 Gap=     0.008 Goal=   None    Shift=    0.000
 T= 1169. Gap= 0.007 NK=0 IS=    1 IE=   57 IFin=   21
          NO(<0.9)=   1  NV(>0.1)=   2     17.62e < EF      0.38e >EF  Err=0.0D+00
 Gap=     0.015 Goal=   None    Shift=    0.000
 T= 1169. Gap= 0.014 NK=0 IS=   14 IE=   57 IFin=   20
          NO(<0.9)=   1  NV(>0.1)=   1     16.81e < EF      0.19e >EF  Err=0.0D+00
 RMSDP=8.04D-03 MaxDP=2.43D-01 DE= 2.58D-02 OVMax= 3.39D-01

 Cycle   8  Pass 1  IDiag  1:
 E= -175.879569602840     Delta-E=        0.005897448341 Rises=F Damp=F
 DIIS: error= 5.13D-02 at cycle   8 NSaved=   8.
 NSaved= 8 IEnMin= 3 EnMin= -175.918232143933     IErMin= 3 ErrMin= 7.42D-03
 ErrMax= 5.13D-02  0.00D+00 EMaxC= 1.00D+00 BMatC= 1.23D-01 BMatP= 1.75D-02
 IDIUse=1 WtCom= 1.00D+00 WtEn= 0.00D+00
 Coeff-Com:  0.524D+00-0.163D+01 0.163D+01-0.104D+00 0.101D+00 0.280D+00
 Coeff-Com:  0.175D+00 0.280D-01
 Coeff:      0.524D+00-0.163D+01 0.163D+01-0.104D+00 0.101D+00 0.280D+00
 Coeff:      0.175D+00 0.280D-01
 Gap=     0.001 Goal=   None    Shift=    0.000
 T=  900. Gap= 0.001 NK=0 IS=    1 IE=   57 IFin=   21
          NO(<0.9)=   1  NV(>0.1)=   2     17.46e < EF      0.54e >EF  Err=7.1D-15
 Gap=     0.010 Goal=   None    Shift=    0.000
 T=  900. Gap= 0.010 NK=0 IS=   14 IE=   57 IFin=   20
          NO(<0.9)=   1  NV(>0.1)=   1     16.83e < EF      0.17e >EF  Err=3.6D-15
 RMSDP=3.91D-03 MaxDP=1.28D-01 DE= 5.90D-03 OVMax= 6.54D-02

 Cycle   9  Pass 1  IDiag  1:
 E= -175.904388765709     Delta-E=       -0.024819162868 Rises=F Damp=F
 DIIS: error= 4.87D-02 at cycle   9 NSaved=   9.
 NSaved= 9 IEnMin= 3 EnMin= -175.918232143933     IErMin= 3 ErrMin= 7.42D-03
 ErrMax= 4.87D-02  0.00D+00 EMaxC= 1.00D+00 BMatC= 1.12D-01 BMatP= 1.75D-02
 IDIUse=1 WtCom= 1.00D+00 WtEn= 0.00D+00
 Coeff-Com:  0.122D+00-0.807D+00 0.985D+00 0.814D-01 0.535D-01 0.209D+00
 Coeff-Com:  0.141D+00-0.307D+00 0.522D+00
 Coeff:      0.122D+00-0.807D+00 0.985D+00 0.814D-01 0.535D-01 0.209D+00
 Coeff:      0.141D+00-0.307D+00 0.522D+00
 Gap=     0.002 Goal=   None    Shift=    0.000
 T=  600. Gap= 0.000 NK=0 IS=    1 IE=   57 IFin=   21
          NO(<0.9)=   1  NV(>0.1)=   1     17.50e < EF      0.50e >EF  Err=3.6D-15
 Gap=     0.007 Goal=   None    Shift=    0.000
 T=  600. Gap= 0.006 NK=0 IS=    1 IE=   57 IFin=   20
          NO(<0.9)=   1  NV(>0.1)=   1     16.83e < EF      0.17e >EF  Err=7.1D-15
 RMSDP=1.08D-02 MaxDP=1.39D-01 DE=-2.48D-02 OVMax= 7.44D-02

 Cycle  10  Pass 1  IDiag  1:
 E= -175.872961817438     Delta-E=        0.031426948270 Rises=F Damp=F
 DIIS: error= 2.10D-02 at cycle  10 NSaved=  10.
 NSaved=10 IEnMin= 3 EnMin= -175.918232143933     IErMin= 3 ErrMin= 7.42D-03
 ErrMax= 2.10D-02  0.00D+00 EMaxC= 1.00D+00 BMatC= 2.31D-02 BMatP= 1.75D-02
 IDIUse=1 WtCom= 1.00D+00 WtEn= 0.00D+00
 Coeff-Com:  0.115D+00-0.581D+00 0.570D+00 0.121D+00-0.248D-01 0.118D+00
 Coeff-Com:  0.209D+00-0.406D+00 0.541D+00 0.339D+00
 Coeff:      0.115D+00-0.581D+00 0.570D+00 0.121D+00-0.248D-01 0.118D+00
 Coeff:      0.209D+00-0.406D+00 0.541D+00 0.339D+00
 Gap=     0.011 Goal=   None    Shift=    0.000
 T=  300. Gap= 0.011 NK=0 IS=   18 IE=   57 IFin=   20
          NO(<0.9)=   0  NV(>0.1)=   0     18.00e < EF      0.00e >EF  Err=3.6D-15
 Gap=    -0.003 Goal=   None    Shift=    0.000
 T=  300. Gap= 0.004 NK=0 IS=    1 IE=   57 IFin=   19
          NO(<0.9)=   1  NV(>0.1)=   1     16.87e < EF      0.13e >EF  Err=0.0D+00
 RMSDP=2.20D-02 MaxDP=2.60D-01 DE= 3.14D-02 OVMax= 9.68D-01

 Cycle  11  Pass 1  IDiag  1:
 E= -175.779018392028     Delta-E=        0.093943425410 Rises=F Damp=F
 DIIS: error= 3.46D-02 at cycle  11 NSaved=  11.
 NSaved=11 IEnMin= 3 EnMin= -175.918232143933     IErMin= 3 ErrMin= 7.42D-03
 ErrMax= 3.46D-02  0.00D+00 EMaxC= 1.00D+00 BMatC= 8.13D-02 BMatP= 1.75D-02
 IDIUse=1 WtCom= 1.00D+00 WtEn= 0.00D+00
 Coeff-Com:  0.891D-01-0.529D+00 0.529D+00 0.130D+00-0.299D-01 0.955D-01
 Coeff-Com:  0.205D+00-0.407D+00 0.532D+00 0.355D+00 0.309D-01
 Coeff:      0.891D-01-0.529D+00 0.529D+00 0.130D+00-0.299D-01 0.955D-01
 Coeff:      0.205D+00-0.407D+00 0.532D+00 0.355D+00 0.309D-01
 Gap=     0.010 Goal=   None    Shift=    0.000
 Gap=    -0.003 Goal=   None    Shift=    0.000
 RMSDP=1.35D-02 MaxDP=3.69D-01 DE= 9.39D-02 OVMax= 8.87D-01

 Cycle  12  Pass 1  IDiag  1:
 E= -175.856718873606     Delta-E=       -0.077700481578 Rises=F Damp=F
 DIIS: error= 3.17D-02 at cycle  12 NSaved=  12.
 NSaved=12 IEnMin= 3 EnMin= -175.918232143933     IErMin= 3 ErrMin= 7.42D-03
 ErrMax= 3.17D-02  0.00D+00 EMaxC= 1.00D+00 BMatC= 7.77D-02 BMatP= 1.75D-02
 IDIUse=1 WtCom= 1.00D+00 WtEn= 0.00D+00
 Coeff-Com: -0.596D-01-0.261D+00 0.338D+00 0.143D+00-0.542D-01 0.420D-01
 Coeff-Com:  0.159D+00-0.293D+00 0.377D+00 0.400D+00 0.821D-02 0.201D+00
 Coeff:     -0.596D-01-0.261D+00 0.338D+00 0.143D+00-0.542D-01 0.420D-01
 Coeff:      0.159D+00-0.293D+00 0.377D+00 0.400D+00 0.821D-02 0.201D+00
 Gap=     0.003 Goal=   None    Shift=    0.000
 Gap=    -0.009 Goal=   None    Shift=    0.000
 RMSDP=1.67D-02 MaxDP=6.38D-01 DE=-7.77D-02 OVMax= 9.93D-01

 Cycle  13  Pass 1  IDiag  1:
 E= -175.721438940921     Delta-E=        0.135279932685 Rises=F Damp=F
 DIIS: error= 2.42D-02 at cycle  13 NSaved=  13.
 NSaved=13 IEnMin= 3 EnMin= -175.918232143933     IErMin= 3 ErrMin= 7.42D-03
 ErrMax= 2.42D-02  0.00D+00 EMaxC= 1.00D+00 BMatC= 6.78D-02 BMatP= 1.75D-02
 IDIUse=1 WtCom= 1.00D+00 WtEn= 0.00D+00
 Coeff-Com: -0.546D-01-0.274D+00 0.351D+00 0.140D+00-0.537D-01 0.451D-01
 Coeff-Com:  0.159D+00-0.293D+00 0.378D+00 0.397D+00 0.129D-01 0.198D+00
 Coeff-Com: -0.542D-02
 Coeff:     -0.546D-01-0.274D+00 0.351D+00 0.140D+00-0.537D-01 0.451D-01
 Coeff:      0.159D+00-0.293D+00 0.378D+00 0.397D+00 0.129D-01 0.198D+00
 Coeff:     -0.542D-02
 Gap=     0.003 Goal=   None    Shift=    0.000
 Gap=     0.010 Goal=   None    Shift=    0.000
 RMSDP=5.62D-04 MaxDP=9.67D-03 DE= 1.35D-01 OVMax= 3.27D-02

 Cycle  14  Pass 1  IDiag  1:
 E= -175.720957138835     Delta-E=        0.000481802086 Rises=F Damp=F
 DIIS: error= 2.46D-02 at cycle  14 NSaved=  14.
 NSaved=14 IEnMin= 3 EnMin= -175.918232143933     IErMin= 3 ErrMin= 7.42D-03
 ErrMax= 2.46D-02  0.00D+00 EMaxC= 1.00D+00 BMatC= 7.04D-02 BMatP= 1.75D-02
 IDIUse=1 WtCom= 1.00D+00 WtEn= 0.00D+00
 Coeff-Com: -0.645D-01-0.233D+00 0.314D+00 0.154D+00-0.502D-01 0.574D-01
 Coeff-Com:  0.148D+00-0.269D+00 0.371D+00 0.379D+00-0.249D-01 0.197D+00
 Coeff-Com:  0.711D+00-0.689D+00
 Coeff:     -0.645D-01-0.233D+00 0.314D+00 0.154D+00-0.502D-01 0.574D-01
 Coeff:      0.148D+00-0.269D+00 0.371D+00 0.379D+00-0.249D-01 0.197D+00
 Coeff:      0.711D+00-0.689D+00
 Gap=     0.001 Goal=   None    Shift=    0.000
 Gap=     0.006 Goal=   None    Shift=    0.000
 RMSDP=1.40D-03 MaxDP=2.22D-02 DE= 4.82D-04 OVMax= 8.12D-02

 Cycle  15  Pass 1  IDiag  1:
 E= -175.724769394721     Delta-E=       -0.003812255885 Rises=F Damp=F
 DIIS: error= 2.51D-02 at cycle  15 NSaved=  15.
 NSaved=15 IEnMin= 3 EnMin= -175.918232143933     IErMin= 3 ErrMin= 7.42D-03
 ErrMax= 2.51D-02  0.00D+00 EMaxC= 1.00D+00 BMatC= 7.39D-02 BMatP= 1.75D-02
 IDIUse=1 WtCom= 1.00D+00 WtEn= 0.00D+00
 Coeff-Com: -0.561D-01-0.279D+00 0.370D+00 0.106D+00-0.580D-01 0.734D-01
 Coeff-Com:  0.132D+00-0.262D+00 0.325D+00 0.386D+00-0.668D-01 0.218D+00
 Coeff-Com:  0.333D+01-0.414D+01 0.922D+00
 Coeff:     -0.561D-01-0.279D+00 0.370D+00 0.106D+00-0.580D-01 0.734D-01
 Coeff:      0.132D+00-0.262D+00 0.325D+00 0.386D+00-0.668D-01 0.218D+00
 Coeff:      0.333D+01-0.414D+01 0.922D+00
 Gap=     0.004 Goal=   None    Shift=    0.000
 Gap=     0.005 Goal=   None    Shift=    0.000
 GapD=    0.004 DampG=0.250 DampE=0.500 DampFc=0.1250 IDamp=-1.
 Damping current iteration by 1.25D-01
 RMSDP=2.30D-02 MaxDP=6.41D-01 DE=-3.81D-03 OVMax= 2.08D-01

 Cycle  16  Pass 1  IDiag  1:
 E= -175.790010556733     Delta-E=       -0.065241162013 Rises=F Damp=T
 DIIS: error= 2.09D-02 at cycle  16 NSaved=  16.
 NSaved=16 IEnMin= 3 EnMin= -175.918232143933     IErMin= 3 ErrMin= 7.42D-03
 ErrMax= 2.09D-02  0.00D+00 EMaxC= 1.00D+00 BMatC= 4.65D-02 BMatP= 1.75D-02
 IDIUse=1 WtCom= 1.00D+00 WtEn= 0.00D+00
 Coeff-Com:  0.322D-01-0.502D+00 0.548D+00 0.528D-01-0.506D-01 0.391D-01
 Coeff-Com:  0.145D+00-0.205D+00 0.282D+00 0.334D+00-0.513D-01 0.176D+00
 Coeff-Com:  0.116D+01-0.115D+01-0.347D+00 0.542D+00
 Coeff:      0.322D-01-0.502D+00 0.548D+00 0.528D-01-0.506D-01 0.391D-01
 Coeff:      0.145D+00-0.205D+00 0.282D+00 0.334D+00-0.513D-01 0.176D+00
 Coeff:      0.116D+01-0.115D+01-0.347D+00 0.542D+00
 Gap=     0.001 Goal=   None    Shift=    0.000
 Gap=     0.011 Goal=   None    Shift=    0.000
 RMSDP=1.38D-02 MaxDP=5.10D-01 DE=-6.52D-02 OVMax= 1.33D-01

 Cycle  17  Pass 1  IDiag  1:
 E= -175.875358161275     Delta-E=       -0.085347604542 Rises=F Damp=F
 DIIS: error= 2.56D-02 at cycle  17 NSaved=  17.
 NSaved=17 IEnMin= 3 EnMin= -175.918232143933     IErMin= 3 ErrMin= 7.42D-03
 ErrMax= 2.56D-02  0.00D+00 EMaxC= 1.00D+00 BMatC= 6.06D-02 BMatP= 1.75D-02
 IDIUse=1 WtCom= 1.00D+00 WtEn= 0.00D+00
 Coeff-Com:  0.243D-01-0.488D+00 0.543D+00 0.473D-01-0.494D-01 0.310D-01
 Coeff-Com:  0.144D+00-0.193D+00 0.256D+00 0.336D+00-0.406D-01 0.125D+00
 Coeff-Com:  0.903D+00-0.821D+00-0.446D+00 0.560D+00 0.693D-01
 Coeff:      0.243D-01-0.488D+00 0.543D+00 0.473D-01-0.494D-01 0.310D-01
 Coeff:      0.144D+00-0.193D+00 0.256D+00 0.336D+00-0.406D-01 0.125D+00
 Coeff:      0.903D+00-0.821D+00-0.446D+00 0.560D+00 0.693D-01
 Gap=     0.002 Goal=   None    Shift=    0.000
 Gap=     0.011 Goal=   None    Shift=    0.000
 RMSDP=1.72D-02 MaxDP=5.40D-01 DE=-8.53D-02 OVMax= 1.47D-02

 Cycle  18  Pass 1  IDiag  1:
 E= -175.836273119979     Delta-E=        0.039085041296 Rises=F Damp=F
 DIIS: error= 2.38D-02 at cycle  18 NSaved=  18.
 NSaved=18 IEnMin= 3 EnMin= -175.918232143933     IErMin= 3 ErrMin= 7.42D-03
 ErrMax= 2.38D-02  0.00D+00 EMaxC= 1.00D+00 BMatC= 5.87D-02 BMatP= 1.75D-02
 IDIUse=1 WtCom= 1.00D+00 WtEn= 0.00D+00
 Coeff-Com:  0.264D-01-0.500D+00 0.554D+00 0.440D-01-0.485D-01 0.229D-01
 Coeff-Com:  0.138D+00-0.246D+00 0.310D+00 0.337D+00-0.420D-01 0.133D+00
 Coeff-Com:  0.743D+00-0.623D+00-0.500D+00 0.579D+00 0.454D-01 0.265D-01
 Coeff:      0.264D-01-0.500D+00 0.554D+00 0.440D-01-0.485D-01 0.229D-01
 Coeff:      0.138D+00-0.246D+00 0.310D+00 0.337D+00-0.420D-01 0.133D+00
 Coeff:      0.743D+00-0.623D+00-0.500D+00 0.579D+00 0.454D-01 0.265D-01
 Gap=     0.003 Goal=   None    Shift=    0.000
 Gap=     0.010 Goal=   None    Shift=    0.000
 RMSDP=1.72D-02 MaxDP=5.42D-01 DE= 3.91D-02 OVMax= 6.90D-03

 Cycle  19  Pass 1  IDiag  1:
 E= -175.874111920402     Delta-E=       -0.037838800422 Rises=F Damp=F
 DIIS: error= 2.58D-02 at cycle  19 NSaved=  19.
 NSaved=19 IEnMin= 3 EnMin= -175.918232143933     IErMin= 3 ErrMin= 7.42D-03
 ErrMax= 2.58D-02  0.00D+00 EMaxC= 1.00D+00 BMatC= 6.09D-02 BMatP= 1.75D-02
 IDIUse=1 WtCom= 1.00D+00 WtEn= 0.00D+00
 Coeff-Com: -0.609D-01-0.329D+00 0.441D+00 0.594D-01-0.510D-01-0.879D-03
 Coeff-Com:  0.119D+00-0.306D+00 0.392D+00 0.323D+00 0.274D-01-0.460D-01
 Coeff-Com: -0.919D+00 0.137D+01-0.890D+00 0.579D+00-0.133D+01 0.723D-01
 Coeff-Com:  0.155D+01
 Coeff:     -0.609D-01-0.329D+00 0.441D+00 0.594D-01-0.510D-01-0.879D-03
 Coeff:      0.119D+00-0.306D+00 0.392D+00 0.323D+00 0.274D-01-0.460D-01
 Coeff:     -0.919D+00 0.137D+01-0.890D+00 0.579D+00-0.133D+01 0.723D-01
 Coeff:      0.155D+01
 Gap=     0.010 Goal=   None    Shift=    0.000
 Gap=     0.005 Goal=   None    Shift=    0.000
 GapD=    0.005 DampG=0.250 DampE=0.500 DampFc=0.1250 IDamp=-1.
 Damping current iteration by 1.25D-01
 RMSDP=9.52D-04 MaxDP=1.53D-02 DE=-3.78D-02 OVMax= 7.61D-02

 Cycle  20  Pass 1  IDiag  1:
 E= -175.874848944002     Delta-E=       -0.000737023600 Rises=F Damp=T
 DIIS: error= 2.60D-02 at cycle  20 NSaved=  20.
 NSaved=20 IEnMin= 3 EnMin= -175.918232143933     IErMin= 3 ErrMin= 7.42D-03
 ErrMax= 2.60D-02  0.00D+00 EMaxC= 1.00D+00 BMatC= 5.86D-02 BMatP= 1.75D-02
 IDIUse=1 WtCom= 1.00D+00 WtEn= 0.00D+00
 Coeff-Com: -0.696D-01-0.306D+00 0.417D+00 0.643D-01-0.560D-01-0.108D-01
 Coeff-Com:  0.108D+00-0.335D+00 0.441D+00 0.324D+00 0.408D-01-0.577D-01
 Coeff-Com: -0.129D+01 0.182D+01-0.993D+00 0.595D+00-0.154D+01 0.835D-01
 Coeff-Com:  0.107D+01 0.687D+00
 Coeff:     -0.696D-01-0.306D+00 0.417D+00 0.643D-01-0.560D-01-0.108D-01
 Coeff:      0.108D+00-0.335D+00 0.441D+00 0.324D+00 0.408D-01-0.577D-01
 Coeff:     -0.129D+01 0.182D+01-0.993D+00 0.595D+00-0.154D+01 0.835D-01
 Coeff:      0.107D+01 0.687D+00
 Gap=     0.010 Goal=   None    Shift=    0.000
 Gap=     0.003 Goal=   None    Shift=    0.000
 GapD=    0.003 DampG=0.250 DampE=0.500 DampFc=0.1250 IDamp=-1.
 Damping current iteration by 1.25D-01
 RMSDP=7.00D-04 MaxDP=9.32D-03 DE=-7.37D-04 OVMax= 1.89D-02

 Cycle  21  Pass 1  IDiag  1:
 E= -175.875188022971     Delta-E=       -0.000339078969 Rises=F Damp=T
 DIIS: error= 2.62D-02 at cycle  21 NSaved=  20.
 NSaved=20 IEnMin= 3 EnMin= -175.918232143933     IErMin= 3 ErrMin= 7.42D-03
 ErrMax= 2.62D-02  0.00D+00 EMaxC= 1.00D+00 BMatC= 5.72D-02 BMatP= 1.75D-02
 IDIUse=1 WtCom= 1.00D+00 WtEn= 0.00D+00
 Large coefficients: NSaved= 20 BigCof=   15.97 CofMax=   10.00 Det=-2.02D-08
 Inversion failed.  Reducing to 19 matrices.
 Large coefficients: NSaved= 19 BigCof=   16.72 CofMax=   10.00 Det=-2.06D-08
 Inversion failed.  Reducing to 18 matrices.
 Large coefficients: NSaved= 18 BigCof=   17.96 CofMax=   10.00 Det=-2.07D-08
 Inversion failed.  Reducing to 17 matrices.
 Coeff-Com: -0.126D+00-0.138D+00 0.321D+00 0.125D+00 0.731D-01 0.127D+00
 Coeff-Com: -0.268D+00 0.293D+00 0.285D+00 0.878D-02-0.974D-01 0.402D-01
 Coeff-Com: -0.135D+01 0.659D-01 0.637D+01-0.928D+01 0.454D+01
 Coeff:     -0.126D+00-0.138D+00 0.321D+00 0.125D+00 0.731D-01 0.127D+00
 Coeff:     -0.268D+00 0.293D+00 0.285D+00 0.878D-02-0.974D-01 0.402D-01
 Coeff:     -0.135D+01 0.659D-01 0.637D+01-0.928D+01 0.454D+01
 Gap=     0.000 Goal=   None    Shift=    0.000
 Gap=     0.008 Goal=   None    Shift=    0.000
 GapD=    0.000 DampG=0.250 DampE=0.500 DampFc=0.1250 IDamp=-1.
 Damping current iteration by 1.25D-01
 RMSDP=3.22D-03 MaxDP=3.83D-02 DE=-3.39D-04 OVMax= 1.48D-01

 Cycle  22  Pass 1  IDiag  1:
 E= -175.874249867862     Delta-E=        0.000938155108 Rises=F Damp=T
 DIIS: error= 2.76D-02 at cycle  22 NSaved=  18.
 NSaved=18 IEnMin= 3 EnMin= -175.918232143933     IErMin= 3 ErrMin= 7.42D-03
 ErrMax= 2.76D-02  0.00D+00 EMaxC= 1.00D+00 BMatC= 5.71D-02 BMatP= 1.75D-02
 IDIUse=1 WtCom= 1.00D+00 WtEn= 0.00D+00
 Coeff-Com: -0.129D+00-0.132D+00 0.318D+00 0.125D+00 0.741D-01 0.125D+00
 Coeff-Com: -0.270D+00 0.296D+00 0.284D+00 0.783D-02-0.101D+00 0.408D-01
 Coeff-Com: -0.135D+01 0.666D-01 0.635D+01-0.904D+01 0.425D+01 0.831D-01
 Coeff:     -0.129D+00-0.132D+00 0.318D+00 0.125D+00 0.741D-01 0.125D+00
 Coeff:     -0.270D+00 0.296D+00 0.284D+00 0.783D-02-0.101D+00 0.408D-01
 Coeff:     -0.135D+01 0.666D-01 0.635D+01-0.904D+01 0.425D+01 0.831D-01
 Gap=     0.000 Goal=   None    Shift=    0.000
 Gap=     0.008 Goal=   None    Shift=    0.000
 GapD=    0.000 DampG=0.250 DampE=0.500 DampFc=0.1250 IDamp=-1.
 Damping current iteration by 1.25D-01
 RMSDP=2.73D-03 MaxDP=3.28D-02 DE= 9.38D-04 OVMax= 5.06D-03

 Cycle  23  Pass 1  IDiag  1:
 E= -175.873151579267     Delta-E=        0.001098288595 Rises=F Damp=T
 DIIS: error= 2.87D-02 at cycle  23 NSaved=  19.
 NSaved=19 IEnMin= 3 EnMin= -175.918232143933     IErMin= 3 ErrMin= 7.42D-03
 ErrMax= 2.87D-02  0.00D+00 EMaxC= 1.00D+00 BMatC= 5.71D-02 BMatP= 1.75D-02
 IDIUse=1 WtCom= 1.00D+00 WtEn= 0.00D+00
 Large coefficients: NSaved= 19 BigCof=   47.29 CofMax=   10.00 Det=-1.07D-08
 Inversion failed.  Reducing to 18 matrices.
 Large coefficients: NSaved= 18 BigCof=   38.84 CofMax=   10.00 Det=-1.40D-08
 Inversion failed.  Reducing to 17 matrices.
 Large coefficients: NSaved= 17 BigCof=   38.32 CofMax=   10.00 Det=-1.40D-08
 Inversion failed.  Reducing to 16 matrices.
 Large coefficients: NSaved= 16 BigCof=   33.74 CofMax=   10.00 Det=-1.42D-08
 Inversion failed.  Reducing to 15 matrices.
 Large coefficients: NSaved= 15 BigCof=   36.66 CofMax=   10.00 Det=-1.45D-08
 Inversion failed.  Reducing to 14 matrices.
 Large coefficients: NSaved= 14 BigCof=   34.30 CofMax=   10.00 Det=-1.50D-08
 Inversion failed.  Reducing to 13 matrices.
 Large coefficients: NSaved= 13 BigCof=   24.45 CofMax=   10.00 Det=-1.55D-08
 Inversion failed.  Reducing to 12 matrices.
 Large coefficients: NSaved= 12 BigCof=   48.00 CofMax=   10.00 Det=-1.55D-08
 Inversion failed.  Reducing to 11 matrices.
 Large coefficients: NSaved= 11 BigCof=   42.31 CofMax=   10.00 Det=-1.61D-08
 Inversion failed.  Reducing to 10 matrices.
 Large coefficients: NSaved= 10 BigCof=   58.01 CofMax=   10.00 Det=-1.82D-08
 Inversion failed.  Reducing to  9 matrices.
 Coeff-Com: -0.653D+00 0.945D+00 0.184D+00 0.648D-01-0.160D+00 0.462D+00
 Coeff-Com: -0.204D+01 0.537D+01-0.317D+01
 Coeff:     -0.653D+00 0.945D+00 0.184D+00 0.648D-01-0.160D+00 0.462D+00
 Coeff:     -0.204D+01 0.537D+01-0.317D+01
 Gap=     0.009 Goal=   None    Shift=    0.000
 Gap=     0.012 Goal=   None    Shift=    0.000
 GapD=    0.009 DampG=0.250 DampE=0.500 DampFc=0.1250 IDamp=-1.
 Damping current iteration by 1.25D-01
 RMSDP=2.03D-02 MaxDP=1.76D-01 DE= 1.10D-03 OVMax= 2.33D-01

 Cycle  24  Pass 1  IDiag  1:
 E= -175.906451543823     Delta-E=       -0.033299964556 Rises=F Damp=T
 DIIS: error= 2.74D-02 at cycle  24 NSaved=  10.
 NSaved=10 IEnMin= 2 EnMin= -175.918232143933     IErMin= 2 ErrMin= 7.42D-03
 ErrMax= 2.74D-02  0.00D+00 EMaxC= 1.00D+00 BMatC= 4.39D-02 BMatP= 1.75D-02
 IDIUse=1 WtCom= 1.00D+00 WtEn= 0.00D+00
 Coeff-Com: -0.508D+00 0.733D+00 0.192D+00 0.973D-01-0.127D-01 0.150D+00
 Coeff-Com: -0.628D+00 0.263D+01-0.271D+01 0.105D+01
 Coeff:     -0.508D+00 0.733D+00 0.192D+00 0.973D-01-0.127D-01 0.150D+00
 Coeff:     -0.628D+00 0.263D+01-0.271D+01 0.105D+01
 Gap=     0.009 Goal=   None    Shift=    0.000
 Gap=     0.006 Goal=   None    Shift=    0.000
 GapD=    0.006 DampG=0.250 DampE=0.500 DampFc=0.1250 IDamp=-1.
 Damping current iteration by 1.25D-01
 RMSDP=2.01D-02 MaxDP=5.47D-01 DE=-3.33D-02 OVMax= 6.17D-02

 Cycle  25  Pass 1  IDiag  1:
 E= -175.925254297961     Delta-E=       -0.018802754139 Rises=F Damp=T
 DIIS: error= 2.05D-02 at cycle  25 NSaved=  11.
 NSaved=11 IEnMin=11 EnMin= -175.925254297961     IErMin= 2 ErrMin= 7.42D-03
 ErrMax= 2.05D-02  0.00D+00 EMaxC= 1.00D+00 BMatC= 3.69D-02 BMatP= 1.75D-02
 IDIUse=1 WtCom= 1.00D+00 WtEn= 0.00D+00
 Coeff-Com: -0.491D+00 0.702D+00 0.145D+00 0.929D-01 0.790D-01-0.370D-01
 Coeff-Com: -0.663D+00 0.378D+01-0.384D+01 0.801D+00 0.430D+00
 Coeff:     -0.491D+00 0.702D+00 0.145D+00 0.929D-01 0.790D-01-0.370D-01
 Coeff:     -0.663D+00 0.378D+01-0.384D+01 0.801D+00 0.430D+00
 Gap=     0.006 Goal=   None    Shift=    0.500
 Gap=    -0.002 Goal=   None    Shift=    0.500
 GapD=   -0.002 DampG=0.250 DampE=0.500 DampFc=0.1250 IDamp=-1.
 Damping current iteration by 1.25D-01
 RMSDP=1.90D-02 MaxDP=5.21D-01 DE=-1.88D-02 OVMax= 3.26D-03

 Cycle  26  Pass 1  IDiag  1:
 E= -175.943565949194     Delta-E=       -0.018311651233 Rises=F Damp=T
 DIIS: error= 2.00D-02 at cycle  26 NSaved=  12.
 NSaved=12 IEnMin=12 EnMin= -175.943565949194     IErMin= 2 ErrMin= 7.42D-03
 ErrMax= 2.00D-02  0.00D+00 EMaxC= 1.00D+00 BMatC= 2.60D-02 BMatP= 1.75D-02
 IDIUse=1 WtCom= 1.00D+00 WtEn= 0.00D+00
 Coeff-Com: -0.463D+00 0.641D+00 0.863D-01 0.303D-01-0.890D-01 0.120D+00
 Coeff-Com: -0.134D+01 0.461D+01-0.407D+01 0.137D+01-0.722D+00 0.826D+00
 Coeff:     -0.463D+00 0.641D+00 0.863D-01 0.303D-01-0.890D-01 0.120D+00
 Coeff:     -0.134D+01 0.461D+01-0.407D+01 0.137D+01-0.722D+00 0.826D+00
 Gap=     0.002 Goal=   None    Shift=    0.500
 Gap=     0.004 Goal=   None    Shift=    0.500
 GapD=    0.002 DampG=0.250 DampE=0.500 DampFc=0.1250 IDamp=-1.
 Damping current iteration by 1.25D-01
 RMSDP=2.20D-02 MaxDP=4.20D-01 DE=-1.83D-02 OVMax= 2.98D-03

 Cycle  27  Pass 1  IDiag  1:
 E= -175.952360430556     Delta-E=       -0.008794481362 Rises=F Damp=T
 DIIS: error= 1.45D-02 at cycle  27 NSaved=  13.
 NSaved=13 IEnMin=13 EnMin= -175.952360430556     IErMin= 2 ErrMin= 7.42D-03
 ErrMax= 1.45D-02  0.00D+00 EMaxC= 1.00D+00 BMatC= 1.51D-02 BMatP= 1.75D-02
 IDIUse=1 WtCom= 1.00D+00 WtEn= 0.00D+00
 Coeff-Com: -0.400D+00 0.542D+00 0.286D-01 0.308D-01-0.111D+00 0.111D+00
 Coeff-Com:  0.576D-01 0.849D+00-0.114D+01 0.119D+01-0.115D+01-0.414D+00
 Coeff-Com:  0.140D+01
 Coeff:     -0.400D+00 0.542D+00 0.286D-01 0.308D-01-0.111D+00 0.111D+00
 Coeff:      0.576D-01 0.849D+00-0.114D+01 0.119D+01-0.115D+01-0.414D+00
 Coeff:      0.140D+01
 Gap=     0.012 Goal=   None    Shift=    0.500
 Gap=     0.004 Goal=   None    Shift=    0.500
 GapD=    0.004 DampG=0.250 DampE=0.500 DampFc=0.1250 IDamp=-1.
 Damping current iteration by 1.25D-01
 RMSDP=1.51D-02 MaxDP=3.65D-01 DE=-8.79D-03 OVMax= 8.92D-03

 Cycle  28  Pass 1  IDiag  1:
 E= -175.958756418300     Delta-E=       -0.006395987744 Rises=F Damp=T
 DIIS: error= 1.29D-02 at cycle  28 NSaved=  14.
 NSaved=14 IEnMin=14 EnMin= -175.958756418300     IErMin= 2 ErrMin= 7.42D-03
 ErrMax= 1.29D-02  0.00D+00 EMaxC= 1.00D+00 BMatC= 1.06D-02 BMatP= 1.51D-02
 IDIUse=1 WtCom= 1.00D+00 WtEn= 0.00D+00
 Coeff-Com: -0.381D+00 0.511D+00-0.173D-01 0.363D-01-0.881D-01 0.624D-01
 Coeff-Com: -0.193D+00 0.202D+01-0.183D+01 0.948D+00-0.117D+01-0.289D+00
 Coeff-Com:  0.715D+00 0.672D+00
 Coeff:     -0.381D+00 0.511D+00-0.173D-01 0.363D-01-0.881D-01 0.624D-01
 Coeff:     -0.193D+00 0.202D+01-0.183D+01 0.948D+00-0.117D+01-0.289D+00
 Coeff:      0.715D+00 0.672D+00
 Gap=     0.004 Goal=   None    Shift=    0.500
 Gap=     0.001 Goal=   None    Shift=    0.500
 GapD=    0.001 DampG=0.250 DampE=0.500 DampFc=0.1250 IDamp=-1.
 Damping current iteration by 1.25D-01
 RMSDP=1.14D-02 MaxDP=2.80D-01 DE=-6.40D-03 OVMax= 1.13D-02

 Cycle  29  Pass 1  IDiag  1:
 E= -175.958342428115     Delta-E=        0.000413990184 Rises=F Damp=T
 DIIS: error= 1.14D-02 at cycle  29 NSaved=  15.
 NSaved=15 IEnMin=14 EnMin= -175.958756418300     IErMin= 2 ErrMin= 7.42D-03
 ErrMax= 1.14D-02  0.00D+00 EMaxC= 1.00D+00 BMatC= 1.01D-02 BMatP= 1.06D-02
 IDIUse=1 WtCom= 1.00D+00 WtEn= 0.00D+00
 Coeff-Com: -0.349D+00 0.473D+00-0.172D-01 0.940D-01 0.491D-01-0.110D+00
 Coeff-Com:  0.491D+00 0.387D+00-0.635D+00 0.808D+00-0.166D+01-0.141D-01
 Coeff-Com:  0.106D+01-0.728D+00 0.116D+01
 Coeff:     -0.349D+00 0.473D+00-0.172D-01 0.940D-01 0.491D-01-0.110D+00
 Coeff:      0.491D+00 0.387D+00-0.635D+00 0.808D+00-0.166D+01-0.141D-01
 Coeff:      0.106D+01-0.728D+00 0.116D+01
 Gap=     0.005 Goal=   None    Shift=    0.000
 Gap=     0.002 Goal=   None    Shift=    0.000
 GapD=    0.002 DampG=0.250 DampE=0.500 DampFc=0.1250 IDamp=-1.
 Damping current iteration by 1.25D-01
 RMSDP=2.20D-02 MaxDP=1.98D-01 DE= 4.14D-04 OVMax= 1.90D-01

 Cycle  30  Pass 1  IDiag  1:
 E= -175.963778338889     Delta-E=       -0.005435910773 Rises=F Damp=T
 DIIS: error= 9.83D-03 at cycle  30 NSaved=  16.
 NSaved=16 IEnMin=16 EnMin= -175.963778338889     IErMin= 2 ErrMin= 7.42D-03
 ErrMax= 9.83D-03  0.00D+00 EMaxC= 1.00D+00 BMatC= 4.48D-03 BMatP= 1.01D-02
 IDIUse=1 WtCom= 1.00D+00 WtEn= 0.00D+00
 Coeff-Com: -0.221D+00 0.278D+00 0.258D-01 0.803D-02 0.769D-01-0.122D+00
 Coeff-Com:  0.412D+00-0.545D+00 0.486D+00 0.476D+00-0.160D+01 0.604D+00
 Coeff-Com:  0.587D+00-0.955D+00 0.695D+00 0.799D+00
 Coeff:     -0.221D+00 0.278D+00 0.258D-01 0.803D-02 0.769D-01-0.122D+00
 Coeff:      0.412D+00-0.545D+00 0.486D+00 0.476D+00-0.160D+01 0.604D+00
 Coeff:      0.587D+00-0.955D+00 0.695D+00 0.799D+00
 Gap=     0.002 Goal=   None    Shift=    0.500
 Gap=     0.002 Goal=   None    Shift=    0.500
 GapD=    0.002 DampG=0.250 DampE=1.000 DampFc=0.2500 IDamp=-1.
 Damping current iteration by 2.50D-01
 RMSDP=1.31D-02 MaxDP=3.74D-01 DE=-5.44D-03 OVMax= 6.35D-03

 Cycle  31  Pass 1  IDiag  1:
 E= -175.962709807551     Delta-E=        0.001068531338 Rises=F Damp=T
 DIIS: error= 7.04D-03 at cycle  31 NSaved=  17.
 NSaved=17 IEnMin=16 EnMin= -175.963778338889     IErMin=17 ErrMin= 7.04D-03
 ErrMax= 7.04D-03  0.00D+00 EMaxC= 1.00D+00 BMatC= 4.50D-03 BMatP= 4.48D-03
 IDIUse=1 WtCom= 1.00D+00 WtEn= 0.00D+00
 Coeff-Com: -0.204D+00 0.247D+00 0.911D-03-0.340D-01 0.620D-01-0.968D-01
 Coeff-Com:  0.139D+00-0.236D+00 0.394D+00 0.655D+00-0.193D+01 0.731D+00
 Coeff-Com:  0.103D+01-0.194D+01 0.136D+01 0.361D+00 0.475D+00
 Coeff:     -0.204D+00 0.247D+00 0.911D-03-0.340D-01 0.620D-01-0.968D-01
 Coeff:      0.139D+00-0.236D+00 0.394D+00 0.655D+00-0.193D+01 0.731D+00
 Coeff:      0.103D+01-0.194D+01 0.136D+01 0.361D+00 0.475D+00
 Gap=     0.010 Goal=   None    Shift=    0.000
 Gap=     0.003 Goal=   None    Shift=    0.000
 RMSDP=1.78D-02 MaxDP=2.89D-01 DE= 1.07D-03 OVMax= 8.42D-02

 Cycle  32  Pass 1  IDiag  1:
 E= -175.669141048151     Delta-E=        0.293568759399 Rises=F Damp=F
 DIIS: error= 3.84D-02 at cycle  32 NSaved=  18.
 NSaved=18 IEnMin=16 EnMin= -175.963778338889     IErMin=17 ErrMin= 7.04D-03
 ErrMax= 3.84D-02  0.00D+00 EMaxC= 1.00D+00 BMatC= 1.12D-01 BMatP= 4.48D-03
 IDIUse=1 WtCom= 1.00D+00 WtEn= 0.00D+00
 Coeff-Com: -0.206D+00 0.250D+00 0.310D-02-0.410D-01 0.504D-01-0.760D-01
 Coeff-Com:  0.980D-01-0.227D+00 0.401D+00 0.670D+00-0.191D+01 0.708D+00
 Coeff-Com:  0.105D+01-0.193D+01 0.135D+01 0.310D+00 0.504D+00 0.666D-02
 Coeff:     -0.206D+00 0.250D+00 0.310D-02-0.410D-01 0.504D-01-0.760D-01
 Coeff:      0.980D-01-0.227D+00 0.401D+00 0.670D+00-0.191D+01 0.708D+00
 Coeff:      0.105D+01-0.193D+01 0.135D+01 0.310D+00 0.504D+00 0.666D-02
 Gap=     0.010 Goal=   None    Shift=    0.000
 Gap=     0.000 Goal=   None    Shift=    0.000
 RMSDP=1.59D-04 MaxDP=1.78D-03 DE= 2.94D-01 OVMax= 1.02D-02

 >>>>>>>>>> Convergence criterion not met.
 SCF Done:  E(ULC-wHPBE) =  -175.669141048     A.U. after   33 cycles
            NFock= 32  Conv=0.16D-03     -V/T= 1.9207
 <Sx>= 0.0000 <Sy>= 0.0000 <Sz>= 0.5000 <S**2>= 1.7518 S= 0.9149
 <L.S>= 0.000000000000E+00
 KE= 1.907961816622D+02 PE=-7.277468405204D+02 EE= 2.162596180169D+02
 Annihilation of the first spin contaminant:
 S**2 before annihilation     1.7518,   after     0.7561
 Leave Link  502 at Thu Mar  5 12:38:08 2020, MaxMem=  6710886400 cpu:              50.4 elap:               3.2
 (Enter /opt/ohpc/pub/libs/gaussian/g16-A.03/sandybridge/g16/l508.exe)
 Keep R1 and R2 ints in memory in symmetry-blocked form, NReq=16816059.
 FoFCou: FMM=F IPFlag=           0 FMFlag=           0 FMFlg1=           0
         NFxFlg=           0 DoJE=F BraDBF=F KetDBF=F FulRan=T
         wScrn=  0.000000 ICntrl=       600 IOpCl=  0 I1Cent=           0 NGrid=           0
         NMat0=    1 NMatS0=   1653 NMatT0=    0 NMatD0=    1 NMtDS0=    0 NMtDT0=    0
 Petite list used in FoFCou.
 Tight linear equation convergence will be used.
 ULC-wHPBE wavefunction.
 Quadratic Convergence SCF Method.
 Line search only if initial step raises energy.
 Iteration   1 EE= -175.669370207222                                    Grad=2.340D-01 Max rot=    5.1787 deg.
 Gradient too large for Newton-Raphson -- use scaled steepest descent instead.
     ILin= 1 X=0.000D+00 Y=-1.756693702072D+02 DE= 0.00D+00 F= -1.24D-01
     ILin= 2 X=3.000D-01 Y=-1.756982301416D+02 DE=-2.89D-02 F= -6.83D-02
     ILin= 3 X=5.000D-01 Y=-1.757081459063D+02 DE=-3.88D-02 F= -3.09D-02
     ILin= 4 X=8.000D-01 Y=-1.757089722769D+02 DE=-3.96D-02 F=  2.53D-02
     Accept linear search using points  3 and  4.
     An  expanding polynomial of degree  4 produced  0.6492
 Iteration   2 EE= -175.710664713655     Delta-E=       -0.041294506433 Grad=1.070D-01 Max rot=    2.9617 deg.
 Gradient too large for Newton-Raphson -- use scaled steepest descent instead.
     ILin= 1 X=0.000D+00 Y=-1.757106647137D+02 DE= 0.00D+00 F= -2.23D-02
     ILin= 2 X=4.000D-01 Y=-1.757179032061D+02 DE=-7.24D-03 F= -1.39D-02
     ILin= 3 X=8.000D-01 Y=-1.757217475808D+02 DE=-1.11D-02 F= -5.33D-03
     ILin= 4 X=1.400D+00 Y=-1.757210455142D+02 DE=-1.04D-02 F=  7.71D-03
     An  expanding polynomial of degree  4 produced  1.0466
 Iteration   3 EE= -175.722405173376     Delta-E=       -0.011740459721 Grad=7.914D-02 Max rot=    2.0822 deg.
 Gradient too large for Newton-Raphson -- use scaled steepest descent instead.
     ILin= 1 X=0.000D+00 Y=-1.757224051734D+02 DE= 0.00D+00 F= -1.30D-02
     ILin= 2 X=8.000D-01 Y=-1.757266893171D+02 DE=-4.28D-03 F=  2.29D-03
     Accept linear search using points  1 and  2.
     An  expanding polynomial of degree  2 produced  0.6249
 Iteration   4 EE= -175.726797900584     Delta-E=       -0.004392727208 Grad=4.315D-02 Max rot=    1.4607 deg.
 Gradient too large for Newton-Raphson -- use scaled steepest descent instead.
     ILin= 1 X=0.000D+00 Y=-1.757267979006D+02 DE= 0.00D+00 F= -4.10D-03
     ILin= 2 X=8.000D-01 Y=-1.757291292991D+02 DE=-2.33D-03 F= -1.72D-03
     Reject lnstep minimum 1.557D+00 FVal=-1.757303626553D+02 Lims=  0.00D+00  8.00D-01
     ILin= 3 X=1.600D+00 Y=-1.757295420504D+02 DE=-2.74D-03 F=  6.98D-04
     Accept linear search using points  2 and  3.
     An  expanding polynomial of degree  3 produced  1.3254
 Iteration   5 EE= -175.729618902938     Delta-E=       -0.002821002354 Grad=4.733D-02 Max rot=    0.9955 deg.
 Gradient too large for Newton-Raphson -- use scaled steepest descent instead.
     ILin= 1 X=0.000D+00 Y=-1.757296189029D+02 DE= 0.00D+00 F= -4.77D-03
     ILin= 2 X=9.000D-01 Y=-1.757307820670D+02 DE=-1.16D-03 F=  2.19D-03
     Accept linear search using points  1 and  2.
     An  expanding polynomial of degree  2 produced  0.5947
 Iteration   6 EE= -175.731089606001     Delta-E=       -0.001470703063 Grad=2.426D-02 Max rot=    0.7596 deg.
 Gradient too large for Newton-Raphson -- use scaled steepest descent instead.
     ILin= 1 X=0.000D+00 Y=-1.757310896060D+02 DE= 0.00D+00 F= -1.32D-03
     ILin= 2 X=9.000D-01 Y=-1.757319263818D+02 DE=-8.37D-04 F= -5.37D-04
     Reject lnstep minimum 3.012D+00 FVal=-1.757328377855D+02 Lims=  0.00D+00  9.00D-01
     ILin= 3 X=1.800D+00 Y=-1.757320542924D+02 DE=-9.65D-04 F=  2.55D-04
     Accept linear search using points  2 and  3.
     An  expanding polynomial of degree  3 produced  1.4900
 Iteration   7 EE= -175.732090784663     Delta-E=       -0.001001178662 Grad=3.067D-02 Max rot=    0.5601 deg.
 Gradient too large for Newton-Raphson -- use scaled steepest descent instead.
     ILin= 1 X=0.000D+00 Y=-1.757320907847D+02 DE= 0.00D+00 F= -2.00D-03
     ILin= 2 X=9.000D-01 Y=-1.757325132938D+02 DE=-4.23D-04 F=  1.06D-03
     Accept linear search using points  1 and  2.
     An  expanding polynomial of degree  2 produced  0.5690
 Iteration   8 EE= -175.732677651120     Delta-E=       -0.000586866457 Grad=1.466D-02 Max rot=    0.4315 deg.
 Gradient too large for Newton-Raphson -- use scaled steepest descent instead.
     ILin= 1 X=0.000D+00 Y=-1.757326776511D+02 DE= 0.00D+00 F= -4.78D-04
     ILin= 2 X=9.000D-01 Y=-1.757329995789D+02 DE=-3.22D-04 F= -2.37D-04
     Reject lnstep minimum 2.730D+00 FVal=-1.757333773649D+02 Lims=  0.00D+00  9.00D-01
     ILin= 3 X=1.800D+00 Y=-1.757331047131D+02 DE=-4.27D-04 F=  4.09D-06
     Accept linear search using points  2 and  3.
     An  expanding polynomial of degree  3 produced  1.7792
     Minimum is close to point  3 DX= -2.08D-02 DF= -4.74D-08 DXR=  1.17D-02 DFR=  1.11D-04 which will be used.
 Iteration   9 EE= -175.733104713063     Delta-E=       -0.000427061943 Grad=2.123D-02 Max rot=    0.4716 deg.
 Gradient too large for Newton-Raphson -- use scaled steepest descent instead.
     ILin= 1 X=0.000D+00 Y=-1.757331047131D+02 DE= 0.00D+00 F= -9.62D-04
     ILin= 2 X=1.000D+00 Y=-1.757332036477D+02 DE=-9.89D-05 F=  7.63D-04
     Accept linear search using points  1 and  2.
     An  expanding polynomial of degree  2 produced  0.5573
 Iteration  10 EE= -175.733372680049     Delta-E=       -0.000267966986 Grad=9.492D-03 Max rot=    0.3527 deg.
 QCNR:  CnvC1=9.49D-08 CnvC2=9.49D-07
 LinEq1:  Iter=  0 NonCon=     1 RMS=1.28D-02 Max=3.98D-01 NDo=     1
 AX will form     1 AO Fock derivatives at one time.
 LinEq1:  Iter=  1 NonCon=     1 RMS=5.16D-01 Max=9.45D+00 NDo=     1
 LinEq1:  Iter=  2 NonCon=     1 RMS=1.24D+01 Max=3.73D+02 NDo=     1
 LinEq1:  Iter=  3 NonCon=     1 RMS=1.70D+02 Max=3.36D+03 NDo=     1
 LinEq1:  Iter=  4 NonCon=     1 RMS=3.24D+03 Max=8.72D+04 NDo=     1
 LinEq1:  Iter=  5 NonCon=     1 RMS=2.44D+04 Max=5.15D+05 NDo=     1
 LinEq1:  Iter=  6 NonCon=     1 RMS=3.69D+05 Max=9.57D+06 NDo=     1
 LinEq1:  Iter=  7 NonCon=     1 RMS=3.09D+06 Max=6.18D+07 NDo=     1
 LinEq1:  Iter=  8 NonCon=     1 RMS=1.38D+07 Max=3.23D+08 NDo=     1
 LinEq1:  Iter=  9 NonCon=     1 RMS=4.05D+07 Max=6.97D+08 NDo=     1
 LinEq1:  Iter= 10 NonCon=     1 RMS=4.83D+09 Max=1.78D+11 NDo=     1
 LinEq1:  Iter= 11 NonCon=     1 RMS=7.27D+10 Max=1.44D+12 NDo=     1
 LinEq1:  Iter= 12 NonCon=     1 RMS=1.54D+11 Max=2.90D+12 NDo=     1
 LinEq1:  Iter= 13 NonCon=     1 RMS=1.59D+12 Max=5.54D+13 NDo=     1
 LinEq1:  Iter= 14 NonCon=     1 RMS=1.85D+14 Max=4.06D+15 NDo=     1
 LinEq1:  Iter= 15 NonCon=     1 RMS=6.18D+14 Max=1.36D+16 NDo=     1
 LinEq1:  Iter= 16 NonCon=     1 RMS=7.65D+14 Max=1.70D+16 NDo=     1
 LinEq1:  Iter= 17 NonCon=     1 RMS=1.07D+16 Max=3.83D+17 NDo=     1
 LinEq1:  Iter= 18 NonCon=     1 RMS=5.68D+16 Max=1.32D+18 NDo=     1
 LinEq1:  Iter= 19 NonCon=     1 RMS=1.38D+17 Max=2.63D+18 NDo=     1
 LinEq1:  Iter= 20 NonCon=     1 RMS=1.70D+17 Max=1.69D+18 NDo=     1
 LinEq1:  Iter= 21 NonCon=     1 RMS=1.05D+17 Max=1.56D+18 NDo=     1
 LinEq1:  Iter= 22 NonCon=     1 RMS=1.16D+18 Max=3.69D+19 NDo=     1
 LinEq1:  Iter= 23 NonCon=     1 RMS=2.26D+18 Max=3.81D+19 NDo=     1
 LinEq1:  Iter= 24 NonCon=     1 RMS=2.19D+18 Max=5.19D+19 NDo=     1
 LinEq1:  Iter= 25 NonCon=     1 RMS=6.42D+18 Max=2.23D+20 NDo=     1
 LinEq1:  Iter= 26 NonCon=     1 RMS=3.48D+19 Max=6.16D+20 NDo=     1
 LinEq1:  Iter= 27 NonCon=     1 RMS=3.62D+19 Max=9.15D+20 NDo=     1
 LinEq1:  Iter= 28 NonCon=     1 RMS=3.88D+20 Max=9.30D+21 NDo=     1
 LinEq1:  Iter= 29 NonCon=     1 RMS=2.06D+21 Max=6.22D+22 NDo=     1
 LinEq1:  Iter= 30 NonCon=     1 RMS=1.42D+22 Max=4.84D+23 NDo=     1
 LinEq1:  Iter= 31 NonCon=     1 RMS=3.63D+22 Max=6.41D+23 NDo=     1
 LinEq1:  Iter= 32 NonCon=     1 RMS=1.29D+23 Max=4.08D+24 NDo=     1
 LinEq1:  Iter= 33 NonCon=     1 RMS=2.67D+23 Max=4.94D+24 NDo=     1
 LinEq1:  Iter= 34 NonCon=     1 RMS=1.32D+23 Max=1.92D+24 NDo=     1
 LinEq1:  Iter= 35 NonCon=     1 RMS=4.92D+23 Max=1.40D+25 NDo=     1
 LinEq1:  Iter= 36 NonCon=     1 RMS=8.93D+23 Max=2.20D+25 NDo=     1
 LinEq1:  Iter= 37 NonCon=     1 RMS=3.22D+24 Max=8.11D+25 NDo=     1
 LinEq1:  Iter= 38 NonCon=     1 RMS=1.58D+25 Max=4.16D+26 NDo=     1
 LinEq1:  Iter= 39 NonCon=     1 RMS=1.93D+25 Max=1.51D+26 NDo=     1
 LinEq1:  Iter= 40 NonCon=     1 RMS=1.01D+25 Max=1.62D+26 NDo=     1
 LinEq1:  Iter= 41 NonCon=     1 RMS=3.15D+25 Max=4.79D+26 NDo=     1
 LinEq1:  Iter= 42 NonCon=     1 RMS=6.35D+25 Max=2.09D+27 NDo=     1
 LinEq1:  Iter= 43 NonCon=     1 RMS=1.20D+26 Max=1.86D+27 NDo=     1
 LinEq1:  Iter= 44 NonCon=     1 RMS=6.62D+25 Max=1.01D+27 NDo=     1
 LinEq1:  Iter= 45 NonCon=     1 RMS=1.32D+26 Max=4.35D+27 NDo=     1
 LinEq1:  Iter= 46 NonCon=     1 RMS=1.31D+26 Max=2.15D+27 NDo=     1
 LinEq1:  Iter= 47 NonCon=     1 RMS=5.84D+25 Max=8.88D+26 NDo=     1
 LinEq1:  Iter= 48 NonCon=     1 RMS=3.09D+25 Max=5.78D+26 NDo=     1
 LinEq1:  Iter= 49 NonCon=     1 RMS=3.34D+25 Max=7.03D+26 NDo=     1
 LinEq1:  Iter= 50 NonCon=     1 RMS=4.58D+25 Max=6.12D+26 NDo=     1
 LinEq1:  Iter= 51 NonCon=     1 RMS=5.09D+25 Max=1.34D+27 NDo=     1
 LinEq1:  Iter= 52 NonCon=     1 RMS=7.78D+25 Max=1.25D+27 NDo=     1
 LinEq1:  Iter= 53 NonCon=     1 RMS=1.03D+26 Max=2.27D+27 NDo=     1
 LinEq1:  Iter= 54 NonCon=     1 RMS=8.96D+25 Max=1.06D+27 NDo=     1
 LinEq1:  Iter= 55 NonCon=     1 RMS=1.28D+26 Max=2.53D+27 NDo=     1
 LinEq1:  Iter= 56 NonCon=     1 RMS=1.11D+26 Max=1.27D+27 NDo=     1
 LinEq1:  Iter= 57 NonCon=     1 RMS=1.14D+26 Max=3.10D+27 NDo=     1
 LinEq1:  Iter= 58 NonCon=     1 RMS=1.26D+26 Max=1.57D+27 NDo=     1
 LinEq1:  Iter= 59 NonCon=     1 RMS=1.35D+26 Max=3.95D+27 NDo=     1
 LinEq1:  Iter= 60 NonCon=     1 RMS=2.73D+26 Max=4.63D+27 NDo=     1
 LinEq1:  Iter= 61 NonCon=     1 RMS=1.98D+26 Max=3.36D+27 NDo=     1
 LinEq1:  Iter= 62 NonCon=     1 RMS=2.28D+26 Max=4.19D+27 NDo=     1
 LinEq1:  Iter= 63 NonCon=     1 RMS=1.10D+26 Max=1.04D+27 NDo=     1
 LinEq1:  Iter= 64 NonCon=     1 RMS=7.74D+25 Max=1.90D+27 NDo=     1
 LinEq1:  Iter= 65 NonCon=     1 RMS=1.05D+26 Max=1.75D+27 NDo=     1
 LinEq1:  Iter= 66 NonCon=     1 RMS=1.09D+26 Max=2.03D+27 NDo=     1
 LinEq1:  Iter= 67 NonCon=     1 RMS=6.53D+25 Max=1.37D+27 NDo=     1
 LinEq1:  Iter= 68 NonCon=     1 RMS=1.08D+26 Max=2.54D+27 NDo=     1
 LinEq1:  Iter= 69 NonCon=     1 RMS=1.46D+26 Max=1.92D+27 NDo=     1
 LinEq1:  Iter= 70 NonCon=     1 RMS=6.95D+25 Max=8.46D+26 NDo=     1
 LinEq1:  Iter= 71 NonCon=     1 RMS=9.02D+25 Max=1.87D+27 NDo=     1
 LinEq1:  Iter= 72 NonCon=     1 RMS=1.56D+26 Max=2.86D+27 NDo=     1
 LinEq1:  Iter= 73 NonCon=     1 RMS=9.20D+25 Max=1.15D+27 NDo=     1
 LinEq1:  Iter= 74 NonCon=     1 RMS=1.39D+26 Max=2.38D+27 NDo=     1
 LinEq1:  Iter= 75 NonCon=     1 RMS=1.92D+26 Max=3.15D+27 NDo=     1
 LinEq1:  Iter= 76 NonCon=     1 RMS=9.25D+25 Max=2.05D+27 NDo=     1
 LinEq1:  Iter= 77 NonCon=     1 RMS=9.85D+25 Max=1.92D+27 NDo=     1
 LinEq1:  Iter= 78 NonCon=     1 RMS=1.24D+26 Max=1.59D+27 NDo=     1
 LinEq1:  Iter= 79 NonCon=     1 RMS=5.30D+25 Max=7.13D+26 NDo=     1
 LinEq1:  Iter= 80 NonCon=     1 RMS=4.13D+25 Max=1.03D+27 NDo=     1
 LinEq1:  Iter= 81 NonCon=     1 RMS=5.57D+25 Max=9.99D+26 NDo=     1
 LinEq1:  Iter= 82 NonCon=     1 RMS=3.41D+25 Max=3.10D+26 NDo=     1
 LinEq1:  Iter= 83 NonCon=     1 RMS=1.11D+25 Max=2.42D+26 NDo=     1
 LinEq1:  Iter= 84 NonCon=     1 RMS=9.94D+24 Max=2.19D+26 NDo=     1
 LinEq1:  Iter= 85 NonCon=     1 RMS=1.08D+25 Max=1.70D+26 NDo=     1
 LinEq1:  Iter= 86 NonCon=     1 RMS=5.07D+24 Max=7.04D+25 NDo=     1
 LinEq1:  Iter= 87 NonCon=     1 RMS=6.42D+24 Max=1.22D+26 NDo=     1
 LinEq1:  Iter= 88 NonCon=     1 RMS=6.56D+24 Max=8.31D+25 NDo=     1
 LinEq1:  Iter= 89 NonCon=     1 RMS=2.24D+24 Max=3.37D+25 NDo=     1
 LinEq1:  Iter= 90 NonCon=     1 RMS=1.37D+24 Max=3.19D+25 NDo=     1
 LinEq1:  Iter= 91 NonCon=     1 RMS=7.77D+23 Max=1.27D+25 NDo=     1
 LinEq1:  Iter= 92 NonCon=     1 RMS=6.55D+23 Max=1.21D+25 NDo=     1
 LinEq1:  Iter= 93 NonCon=     1 RMS=2.60D+23 Max=2.65D+24 NDo=     1
 LinEq1:  Iter= 94 NonCon=     1 RMS=1.09D+23 Max=1.84D+24 NDo=     1
 LinEq1:  Iter= 95 NonCon=     1 RMS=1.18D+23 Max=1.82D+24 NDo=     1
 LinEq1:  Iter= 96 NonCon=     1 RMS=8.23D+22 Max=1.24D+24 NDo=     1
 LinEq1:  Iter= 97 NonCon=     1 RMS=3.90D+22 Max=8.14D+23 NDo=     1
 LinEq1:  Iter= 98 NonCon=     1 RMS=3.86D+22 Max=1.00D+24 NDo=     1
 LinEq1:  Iter= 99 NonCon=     1 RMS=2.95D+22 Max=3.86D+23 NDo=     1
 LinEq1:  Iter=100 NonCon=     1 RMS=7.42D+21 Max=1.30D+23 NDo=     1
 LinEq1:  Iter=101 NonCon=     1 RMS=5.93D+21 Max=1.27D+23 NDo=     1
 LinEq1:  Iter=102 NonCon=     1 RMS=1.66D+21 Max=1.44D+22 NDo=     1
 LinEq1:  Iter=103 NonCon=     1 RMS=6.21D+20 Max=9.03D+21 NDo=     1
 LinEq1:  Iter=104 NonCon=     1 RMS=3.69D+20 Max=3.67D+21 NDo=     1
 LinEq1:  Iter=105 NonCon=     1 RMS=1.35D+20 Max=2.14D+21 NDo=     1
 LinEq1:  Iter=106 NonCon=     1 RMS=9.53D+19 Max=1.35D+21 NDo=     1
 LinEq1:  Iter=107 NonCon=     1 RMS=3.21D+19 Max=2.48D+20 NDo=     1
 LinEq1:  Iter=108 NonCon=     1 RMS=1.04D+19 Max=1.44D+20 NDo=     1
 LinEq1:  Iter=109 NonCon=     1 RMS=7.29D+18 Max=9.54D+19 NDo=     1
 LinEq1:  Iter=110 NonCon=     1 RMS=2.41D+18 Max=2.09D+19 NDo=     1
 LinEq1:  Iter=111 NonCon=     1 RMS=1.41D+18 Max=1.75D+19 NDo=     1
 LinEq1:  Iter=112 NonCon=     1 RMS=5.48D+17 Max=4.10D+18 NDo=     1
 LinEq1:  Iter=113 NonCon=     1 RMS=3.10D+17 Max=4.14D+18 NDo=     1
 LinEq1:  Iter=114 NonCon=     1 RMS=1.05D+17 Max=8.55D+17 NDo=     1
 LinEq1:  Iter=115 NonCon=     1 RMS=4.97D+16 Max=6.62D+17 NDo=     1
 LinEq1:  Iter=116 NonCon=     1 RMS=2.31D+16 Max=1.89D+17 NDo=     1
 LinEq1:  Iter=117 NonCon=     1 RMS=5.93D+15 Max=6.54D+16 NDo=     1
 LinEq1:  Iter=118 NonCon=     1 RMS=3.49D+15 Max=5.14D+16 NDo=     1
 LinEq1:  Iter=119 NonCon=     1 RMS=1.26D+15 Max=1.71D+16 NDo=     1
 LinEq1:  Iter=120 NonCon=     1 RMS=7.25D+14 Max=1.10D+16 NDo=     1
 LinEq1:  Iter=121 NonCon=     1 RMS=2.33D+14 Max=2.30D+15 NDo=     1
 LinEq1:  Iter=122 NonCon=     1 RMS=9.61D+13 Max=1.37D+15 NDo=     1
 LinEq1:  Iter=123 NonCon=     1 RMS=4.45D+13 Max=5.03D+14 NDo=     1
 LinEq1:  Iter=124 NonCon=     1 RMS=2.14D+13 Max=3.37D+14 NDo=     1
 LinEq1:  Iter=125 NonCon=     1 RMS=8.87D+12 Max=1.14D+14 NDo=     1
 LinEq1:  Iter=126 NonCon=     1 RMS=2.37D+12 Max=2.34D+13 NDo=     1
 LinEq1:  Iter=127 NonCon=     1 RMS=1.22D+12 Max=1.18D+13 NDo=     1
 LinEq1:  Iter=128 NonCon=     1 RMS=3.96D+11 Max=5.04D+12 NDo=     1
 LinEq1:  Iter=129 NonCon=     1 RMS=1.82D+11 Max=4.02D+12 NDo=     1
 LinEq1:  Iter=130 NonCon=     1 RMS=7.22D+10 Max=7.18D+11 NDo=     1
 LinEq1:  Iter=131 NonCon=     1 RMS=2.03D+10 Max=2.97D+11 NDo=     1
 LinEq1:  Iter=132 NonCon=     1 RMS=1.02D+10 Max=1.41D+11 NDo=     1
 LinEq1:  Iter=133 NonCon=     1 RMS=2.89D+09 Max=3.57D+10 NDo=     1
 LinEq1:  Iter=134 NonCon=     1 RMS=1.09D+09 Max=2.00D+10 NDo=     1
 LinEq1:  Iter=135 NonCon=     1 RMS=5.62D+08 Max=7.83D+09 NDo=     1
 LinEq1:  Iter=136 NonCon=     1 RMS=2.06D+08 Max=3.44D+09 NDo=     1
 LinEq1:  Iter=137 NonCon=     1 RMS=8.59D+07 Max=1.18D+09 NDo=     1
 LinEq1:  Iter=138 NonCon=     1 RMS=2.66D+07 Max=2.17D+08 NDo=     1
 LinEq1:  Iter=139 NonCon=     1 RMS=1.04D+07 Max=1.32D+08 NDo=     1
 LinEq1:  Iter=140 NonCon=     1 RMS=3.56D+06 Max=2.55D+07 NDo=     1
 LinEq1:  Iter=141 NonCon=     1 RMS=1.00D+06 Max=1.27D+07 NDo=     1
 LinEq1:  Iter=142 NonCon=     1 RMS=4.17D+05 Max=3.77D+06 NDo=     1
 LinEq1:  Iter=143 NonCon=     1 RMS=8.82D+04 Max=6.42D+05 NDo=     1
 LinEq1:  Iter=144 NonCon=     1 RMS=2.60D+04 Max=3.21D+05 NDo=     1
 LinEq1:  Iter=145 NonCon=     1 RMS=1.16D+04 Max=9.38D+04 NDo=     1
 LinEq1:  Iter=146 NonCon=     1 RMS=2.49D+03 Max=1.43D+04 NDo=     1
 LinEq1:  Iter=147 NonCon=     1 RMS=9.34D+02 Max=1.20D+04 NDo=     1
 LinEq1:  Iter=148 NonCon=     1 RMS=2.97D+02 Max=2.09D+03 NDo=     1
 LinEq1:  Iter=149 NonCon=     1 RMS=5.66D+01 Max=4.99D+02 NDo=     1
 LinEq1:  Iter=150 NonCon=     1 RMS=1.23D+01 Max=1.01D+02 NDo=     1
 LinEq1:  Iter=151 NonCon=     1 RMS=4.30D+00 Max=5.03D+01 NDo=     1
 LinEq1:  Iter=152 NonCon=     1 RMS=1.48D+00 Max=1.47D+01 NDo=     1
 LinEq1:  Iter=153 NonCon=     1 RMS=4.42D-01 Max=6.04D+00 NDo=     1
 LinEq1:  Iter=154 NonCon=     1 RMS=1.93D-01 Max=2.04D+00 NDo=     1
 LinEq1:  Iter=155 NonCon=     1 RMS=4.27D-02 Max=3.27D-01 NDo=     1
 LinEq1:  Iter=156 NonCon=     1 RMS=1.33D-02 Max=2.24D-01 NDo=     1
 LinEq1:  Iter=157 NonCon=     1 RMS=4.31D-03 Max=4.07D-02 NDo=     1
 LinEq1:  Iter=158 NonCon=     1 RMS=8.36D-04 Max=5.49D-03 NDo=     1
 LinEq1:  Iter=159 NonCon=     1 RMS=2.21D-04 Max=3.41D-03 NDo=     1
 LinEq1:  Iter=160 NonCon=     1 RMS=9.44D-05 Max=1.24D-03 NDo=     1
 LinEq1:  Iter=161 NonCon=     1 RMS=2.10D-05 Max=2.42D-04 NDo=     1
 LinEq1:  Iter=162 NonCon=     1 RMS=7.75D-06 Max=1.10D-04 NDo=     1
 LinEq1:  Iter=163 NonCon=     1 RMS=2.34D-06 Max=2.00D-05 NDo=     1
 LinEq1:  Iter=164 NonCon=     1 RMS=5.28D-07 Max=6.14D-06 NDo=     1
 LinEq1:  Iter=165 NonCon=     1 RMS=1.92D-07 Max=3.48D-06 NDo=     1
 LinEq1:  Iter=166 NonCon=     0 RMS=4.89D-08 Max=3.07D-07 NDo=     1
 Linear equations converged to 9.492D-08 9.492D-07 after   166 iterations.
 Angle between quadratic step and gradient=  51.77 degrees.
     ILin= 1 X=0.000D+00 Y=-1.757333726800D+02 DE= 0.00D+00 F= -7.02D-03
     ILin= 2 X=1.000D+00 Y=-1.757327170017D+02 DE= 6.56D-04 F=  1.32D-02
     Reject lnstep minimum 5.287D-01 FVal=-1.757355255873D+02 Lims=  0.00D+00  1.00D+00
     ILin= 3 X=5.000D-01 Y=-1.757355562647D+02 DE=-2.18D-03 F= -6.19D-04
     A contracting polynomial of degree  3 produced  0.4674
     Minimum is close to point  3 DX= -3.26D-02 DF= -1.07D-05 DXR=  6.98D-02 DFR=  4.90D-03 which will be used.
 Iteration  11 EE= -175.735556264698     Delta-E=       -0.002183584648 Grad=1.531D-02 Max rot=    0.2266 deg.
 Gradient too large for Newton-Raphson -- use scaled steepest descent instead.
     ILin= 1 X=0.000D+00 Y=-1.757355562647D+02 DE= 0.00D+00 F= -5.67D-04
     ILin= 2 X=1.000D+00 Y=-1.757356414011D+02 DE=-8.51D-05 F=  3.97D-04
     Accept linear search using points  1 and  2.
     An  expanding polynomial of degree  2 produced  0.5884
 Iteration  12 EE= -175.735722937174     Delta-E=       -0.000166672476 Grad=6.190D-03 Max rot=    0.1017 deg.
 QCNR:  CnvC1=6.19D-08 CnvC2=6.19D-07
 LinEq1:  Iter=  0 NonCon=     1 RMS=6.30D-03 Max=1.86D-01 NDo=     1
 LinEq1:  Iter=  1 NonCon=     1 RMS=3.46D-01 Max=6.95D+00 NDo=     1
 LinEq1:  Iter=  2 NonCon=     1 RMS=5.78D+00 Max=1.39D+02 NDo=     1
 LinEq1:  Iter=  3 NonCon=     1 RMS=7.91D+01 Max=1.66D+03 NDo=     1
 LinEq1:  Iter=  4 NonCon=     1 RMS=6.07D+02 Max=1.49D+04 NDo=     1
 LinEq1:  Iter=  5 NonCon=     1 RMS=1.64D+05 Max=5.67D+06 NDo=     1
 LinEq1:  Iter=  6 NonCon=     1 RMS=4.96D+06 Max=1.18D+08 NDo=     1
 LinEq1:  Iter=  7 NonCon=     1 RMS=2.08D+07 Max=3.75D+08 NDo=     1
 LinEq1:  Iter=  8 NonCon=     1 RMS=3.76D+08 Max=1.13D+10 NDo=     1
 LinEq1:  Iter=  9 NonCon=     1 RMS=4.16D+10 Max=1.25D+12 NDo=     1
 LinEq1:  Iter= 10 NonCon=     1 RMS=9.44D+11 Max=1.55D+13 NDo=     1
 LinEq1:  Iter= 11 NonCon=     1 RMS=8.48D+12 Max=2.52D+14 NDo=     1
 LinEq1:  Iter= 12 NonCon=     1 RMS=7.40D+13 Max=1.58D+15 NDo=     1
 LinEq1:  Iter= 13 NonCon=     1 RMS=3.51D+14 Max=9.55D+15 NDo=     1
 LinEq1:  Iter= 14 NonCon=     1 RMS=7.18D+15 Max=1.79D+17 NDo=     1
 LinEq1:  Iter= 15 NonCon=     1 RMS=2.40D+16 Max=4.95D+17 NDo=     1
 LinEq1:  Iter= 16 NonCon=     1 RMS=1.85D+17 Max=6.38D+18 NDo=     1
 LinEq1:  Iter= 17 NonCon=     1 RMS=2.24D+18 Max=4.33D+19 NDo=     1
 LinEq1:  Iter= 18 NonCon=     1 RMS=5.27D+18 Max=9.69D+19 NDo=     1
 LinEq1:  Iter= 19 NonCon=     1 RMS=3.68D+19 Max=1.15D+21 NDo=     1
 LinEq1:  Iter= 20 NonCon=     1 RMS=2.18D+20 Max=2.91D+21 NDo=     1
 LinEq1:  Iter= 21 NonCon=     1 RMS=3.74D+20 Max=6.29D+21 NDo=     1
 LinEq1:  Iter= 22 NonCon=     1 RMS=1.58D+21 Max=5.59D+22 NDo=     1
 LinEq1:  Iter= 23 NonCon=     1 RMS=7.32D+21 Max=1.52D+23 NDo=     1
 LinEq1:  Iter= 24 NonCon=     1 RMS=4.68D+22 Max=1.42D+24 NDo=     1
 LinEq1:  Iter= 25 NonCon=     1 RMS=6.92D+22 Max=8.94D+23 NDo=     1
 LinEq1:  Iter= 26 NonCon=     1 RMS=1.22D+23 Max=2.89D+24 NDo=     1
 LinEq1:  Iter= 27 NonCon=     1 RMS=2.07D+23 Max=3.17D+24 NDo=     1
 LinEq1:  Iter= 28 NonCon=     1 RMS=9.88D+23 Max=3.04D+25 NDo=     1
 LinEq1:  Iter= 29 NonCon=     1 RMS=5.62D+24 Max=9.51D+25 NDo=     1
 LinEq1:  Iter= 30 NonCon=     1 RMS=1.01D+25 Max=1.19D+26 NDo=     1
 LinEq1:  Iter= 31 NonCon=     1 RMS=2.30D+25 Max=5.03D+26 NDo=     1
 LinEq1:  Iter= 32 NonCon=     1 RMS=7.86D+25 Max=1.67D+27 NDo=     1
 LinEq1:  Iter= 33 NonCon=     1 RMS=9.49D+25 Max=1.33D+27 NDo=     1
 LinEq1:  Iter= 34 NonCon=     1 RMS=6.26D+25 Max=1.58D+27 NDo=     1
 LinEq1:  Iter= 35 NonCon=     1 RMS=1.94D+26 Max=4.27D+27 NDo=     1
 LinEq1:  Iter= 36 NonCon=     1 RMS=7.63D+26 Max=1.52D+28 NDo=     1
 LinEq1:  Iter= 37 NonCon=     1 RMS=5.96D+26 Max=7.91D+27 NDo=     1
 LinEq1:  Iter= 38 NonCon=     1 RMS=1.54D+27 Max=3.39D+28 NDo=     1
 LinEq1:  Iter= 39 NonCon=     1 RMS=2.58D+27 Max=3.75D+28 NDo=     1
 LinEq1:  Iter= 40 NonCon=     1 RMS=5.77D+27 Max=9.89D+28 NDo=     1
 LinEq1:  Iter= 41 NonCon=     1 RMS=8.46D+27 Max=1.48D+29 NDo=     1
 LinEq1:  Iter= 42 NonCon=     1 RMS=1.27D+28 Max=1.56D+29 NDo=     1
 LinEq1:  Iter= 43 NonCon=     1 RMS=2.21D+28 Max=4.77D+29 NDo=     1
 LinEq1:  Iter= 44 NonCon=     1 RMS=4.57D+28 Max=8.72D+29 NDo=     1
 LinEq1:  Iter= 45 NonCon=     1 RMS=8.62D+28 Max=1.29D+30 NDo=     1
 LinEq1:  Iter= 46 NonCon=     1 RMS=1.12D+29 Max=1.28D+30 NDo=     1
 LinEq1:  Iter= 47 NonCon=     1 RMS=1.63D+29 Max=2.20D+30 NDo=     1
 LinEq1:  Iter= 48 NonCon=     1 RMS=2.81D+29 Max=3.68D+30 NDo=     1
 LinEq1:  Iter= 49 NonCon=     1 RMS=5.05D+29 Max=6.69D+30 NDo=     1
 LinEq1:  Iter= 50 NonCon=     1 RMS=6.00D+29 Max=1.31D+31 NDo=     1
 LinEq1:  Iter= 51 NonCon=     1 RMS=1.34D+30 Max=2.72D+31 NDo=     1
 LinEq1:  Iter= 52 NonCon=     1 RMS=1.92D+30 Max=3.73D+31 NDo=     1
 LinEq1:  Iter= 53 NonCon=     1 RMS=3.67D+30 Max=5.41D+31 NDo=     1
 LinEq1:  Iter= 54 NonCon=     1 RMS=3.29D+30 Max=4.97D+31 NDo=     1
 LinEq1:  Iter= 55 NonCon=     1 RMS=3.92D+30 Max=5.26D+31 NDo=     1
 LinEq1:  Iter= 56 NonCon=     1 RMS=5.48D+30 Max=1.26D+32 NDo=     1
 LinEq1:  Iter= 57 NonCon=     1 RMS=8.36D+30 Max=1.34D+32 NDo=     1
 LinEq1:  Iter= 58 NonCon=     1 RMS=9.37D+30 Max=1.57D+32 NDo=     1
 LinEq1:  Iter= 59 NonCon=     1 RMS=1.39D+31 Max=2.99D+32 NDo=     1
 LinEq1:  Iter= 60 NonCon=     1 RMS=2.15D+31 Max=4.18D+32 NDo=     1
 LinEq1:  Iter= 61 NonCon=     1 RMS=1.85D+31 Max=3.47D+32 NDo=     1
 LinEq1:  Iter= 62 NonCon=     1 RMS=1.60D+31 Max=2.67D+32 NDo=     1
 LinEq1:  Iter= 63 NonCon=     1 RMS=1.19D+31 Max=2.03D+32 NDo=     1
 LinEq1:  Iter= 64 NonCon=     1 RMS=1.78D+31 Max=2.73D+32 NDo=     1
 LinEq1:  Iter= 65 NonCon=     1 RMS=1.80D+31 Max=2.05D+32 NDo=     1
 LinEq1:  Iter= 66 NonCon=     1 RMS=1.25D+31 Max=1.92D+32 NDo=     1
 LinEq1:  Iter= 67 NonCon=     1 RMS=1.50D+31 Max=3.04D+32 NDo=     1
 LinEq1:  Iter= 68 NonCon=     1 RMS=1.88D+31 Max=3.13D+32 NDo=     1
 LinEq1:  Iter= 69 NonCon=     1 RMS=1.42D+31 Max=2.87D+32 NDo=     1
 LinEq1:  Iter= 70 NonCon=     1 RMS=1.28D+31 Max=1.69D+32 NDo=     1
 LinEq1:  Iter= 71 NonCon=     1 RMS=8.47D+30 Max=2.08D+32 NDo=     1
 LinEq1:  Iter= 72 NonCon=     1 RMS=8.03D+30 Max=1.34D+32 NDo=     1
 LinEq1:  Iter= 73 NonCon=     1 RMS=5.13D+30 Max=1.38D+32 NDo=     1
 LinEq1:  Iter= 74 NonCon=     1 RMS=3.77D+30 Max=8.52D+31 NDo=     1
 LinEq1:  Iter= 75 NonCon=     1 RMS=3.24D+30 Max=4.01D+31 NDo=     1
 LinEq1:  Iter= 76 NonCon=     1 RMS=1.51D+30 Max=2.11D+31 NDo=     1
 LinEq1:  Iter= 77 NonCon=     1 RMS=1.96D+30 Max=4.00D+31 NDo=     1
 LinEq1:  Iter= 78 NonCon=     1 RMS=2.27D+30 Max=4.37D+31 NDo=     1
 LinEq1:  Iter= 79 NonCon=     1 RMS=8.41D+29 Max=8.99D+30 NDo=     1
 LinEq1:  Iter= 80 NonCon=     1 RMS=5.51D+29 Max=1.11D+31 NDo=     1
 LinEq1:  Iter= 81 NonCon=     1 RMS=5.85D+29 Max=1.31D+31 NDo=     1
 LinEq1:  Iter= 82 NonCon=     1 RMS=3.15D+29 Max=2.98D+30 NDo=     1
 LinEq1:  Iter= 83 NonCon=     1 RMS=1.94D+29 Max=2.79D+30 NDo=     1
 LinEq1:  Iter= 84 NonCon=     1 RMS=1.43D+29 Max=3.43D+30 NDo=     1
 LinEq1:  Iter= 85 NonCon=     1 RMS=1.08D+29 Max=1.90D+30 NDo=     1
 LinEq1:  Iter= 86 NonCon=     1 RMS=7.78D+28 Max=1.65D+30 NDo=     1
 LinEq1:  Iter= 87 NonCon=     1 RMS=5.62D+28 Max=7.28D+29 NDo=     1
 LinEq1:  Iter= 88 NonCon=     1 RMS=3.17D+28 Max=4.07D+29 NDo=     1
 LinEq1:  Iter= 89 NonCon=     1 RMS=1.89D+28 Max=2.02D+29 NDo=     1
 LinEq1:  Iter= 90 NonCon=     1 RMS=9.70D+27 Max=1.51D+29 NDo=     1
 LinEq1:  Iter= 91 NonCon=     1 RMS=6.40D+27 Max=7.99D+28 NDo=     1
 LinEq1:  Iter= 92 NonCon=     1 RMS=2.51D+27 Max=2.38D+28 NDo=     1
 LinEq1:  Iter= 93 NonCon=     1 RMS=1.54D+27 Max=1.80D+28 NDo=     1
 LinEq1:  Iter= 94 NonCon=     1 RMS=7.71D+26 Max=6.84D+27 NDo=     1
 LinEq1:  Iter= 95 NonCon=     1 RMS=3.82D+26 Max=5.14D+27 NDo=     1
 LinEq1:  Iter= 96 NonCon=     1 RMS=1.90D+26 Max=2.00D+27 NDo=     1
 LinEq1:  Iter= 97 NonCon=     1 RMS=9.15D+25 Max=1.37D+27 NDo=     1
 LinEq1:  Iter= 98 NonCon=     1 RMS=5.26D+25 Max=5.85D+26 NDo=     1
 LinEq1:  Iter= 99 NonCon=     1 RMS=2.34D+25 Max=3.08D+26 NDo=     1
 LinEq1:  Iter=100 NonCon=     1 RMS=1.55D+25 Max=3.04D+26 NDo=     1
 LinEq1:  Iter=101 NonCon=     1 RMS=9.57D+24 Max=1.55D+26 NDo=     1
 LinEq1:  Iter=102 NonCon=     1 RMS=4.44D+24 Max=3.61D+25 NDo=     1
 LinEq1:  Iter=103 NonCon=     1 RMS=2.15D+24 Max=2.74D+25 NDo=     1
 LinEq1:  Iter=104 NonCon=     1 RMS=1.20D+24 Max=1.22D+25 NDo=     1
 LinEq1:  Iter=105 NonCon=     1 RMS=5.35D+23 Max=7.51D+24 NDo=     1
 LinEq1:  Iter=106 NonCon=     1 RMS=2.64D+23 Max=2.50D+24 NDo=     1
 LinEq1:  Iter=107 NonCon=     1 RMS=1.14D+23 Max=1.20D+24 NDo=     1
 LinEq1:  Iter=108 NonCon=     1 RMS=6.57D+22 Max=7.37D+23 NDo=     1
 LinEq1:  Iter=109 NonCon=     1 RMS=2.51D+22 Max=2.44D+23 NDo=     1
 LinEq1:  Iter=110 NonCon=     1 RMS=1.40D+22 Max=1.72D+23 NDo=     1
 LinEq1:  Iter=111 NonCon=     1 RMS=6.42D+21 Max=6.08D+22 NDo=     1
 LinEq1:  Iter=112 NonCon=     1 RMS=3.11D+21 Max=2.63D+22 NDo=     1
 LinEq1:  Iter=113 NonCon=     1 RMS=1.35D+21 Max=1.64D+22 NDo=     1
 LinEq1:  Iter=114 NonCon=     1 RMS=7.72D+20 Max=9.04D+21 NDo=     1
 LinEq1:  Iter=115 NonCon=     1 RMS=3.10D+20 Max=2.45D+21 NDo=     1
 LinEq1:  Iter=116 NonCon=     1 RMS=1.55D+20 Max=1.31D+21 NDo=     1
 LinEq1:  Iter=117 NonCon=     1 RMS=5.83D+19 Max=4.39D+20 NDo=     1
 LinEq1:  Iter=118 NonCon=     1 RMS=2.19D+19 Max=2.15D+20 NDo=     1
 LinEq1:  Iter=119 NonCon=     1 RMS=1.14D+19 Max=8.71D+19 NDo=     1
 LinEq1:  Iter=120 NonCon=     1 RMS=3.74D+18 Max=4.18D+19 NDo=     1
 LinEq1:  Iter=121 NonCon=     1 RMS=1.55D+18 Max=2.30D+19 NDo=     1
 LinEq1:  Iter=122 NonCon=     1 RMS=6.16D+17 Max=7.16D+18 NDo=     1
 LinEq1:  Iter=123 NonCon=     1 RMS=2.39D+17 Max=3.15D+18 NDo=     1
 LinEq1:  Iter=124 NonCon=     1 RMS=1.21D+17 Max=1.20D+18 NDo=     1
 LinEq1:  Iter=125 NonCon=     1 RMS=3.81D+16 Max=3.61D+17 NDo=     1
 LinEq1:  Iter=126 NonCon=     1 RMS=2.07D+16 Max=1.66D+17 NDo=     1
 LinEq1:  Iter=127 NonCon=     1 RMS=7.02D+15 Max=5.97D+16 NDo=     1
 LinEq1:  Iter=128 NonCon=     1 RMS=2.95D+15 Max=3.55D+16 NDo=     1
 LinEq1:  Iter=129 NonCon=     1 RMS=9.21D+14 Max=7.58D+15 NDo=     1
 LinEq1:  Iter=130 NonCon=     1 RMS=3.33D+14 Max=4.31D+15 NDo=     1
 LinEq1:  Iter=131 NonCon=     1 RMS=1.19D+14 Max=1.17D+15 NDo=     1
 LinEq1:  Iter=132 NonCon=     1 RMS=3.35D+13 Max=3.57D+14 NDo=     1
 LinEq1:  Iter=133 NonCon=     1 RMS=1.45D+13 Max=2.09D+14 NDo=     1
 LinEq1:  Iter=134 NonCon=     1 RMS=4.95D+12 Max=3.89D+13 NDo=     1
 LinEq1:  Iter=135 NonCon=     1 RMS=1.51D+12 Max=2.16D+13 NDo=     1
 LinEq1:  Iter=136 NonCon=     1 RMS=5.63D+11 Max=5.07D+12 NDo=     1
 LinEq1:  Iter=137 NonCon=     1 RMS=1.75D+11 Max=1.40D+12 NDo=     1
 LinEq1:  Iter=138 NonCon=     1 RMS=6.94D+10 Max=9.35D+11 NDo=     1
 LinEq1:  Iter=139 NonCon=     1 RMS=1.98D+10 Max=1.68D+11 NDo=     1
 LinEq1:  Iter=140 NonCon=     1 RMS=4.64D+09 Max=6.04D+10 NDo=     1
 LinEq1:  Iter=141 NonCon=     1 RMS=1.33D+09 Max=1.64D+10 NDo=     1
 LinEq1:  Iter=142 NonCon=     1 RMS=5.82D+08 Max=5.90D+09 NDo=     1
 LinEq1:  Iter=143 NonCon=     1 RMS=1.41D+08 Max=1.33D+09 NDo=     1
 LinEq1:  Iter=144 NonCon=     1 RMS=4.66D+07 Max=9.74D+08 NDo=     1
 LinEq1:  Iter=145 NonCon=     1 RMS=1.54D+07 Max=2.19D+08 NDo=     1
 LinEq1:  Iter=146 NonCon=     1 RMS=3.93D+06 Max=3.65D+07 NDo=     1
 LinEq1:  Iter=147 NonCon=     1 RMS=1.11D+06 Max=1.25D+07 NDo=     1
 LinEq1:  Iter=148 NonCon=     1 RMS=4.56D+05 Max=4.76D+06 NDo=     1
 LinEq1:  Iter=149 NonCon=     1 RMS=1.30D+05 Max=1.32D+06 NDo=     1
 LinEq1:  Iter=150 NonCon=     1 RMS=5.38D+04 Max=4.02D+05 NDo=     1
 LinEq1:  Iter=151 NonCon=     1 RMS=1.15D+04 Max=1.60D+05 NDo=     1
 LinEq1:  Iter=152 NonCon=     1 RMS=4.93D+03 Max=9.36D+04 NDo=     1
 LinEq1:  Iter=153 NonCon=     1 RMS=1.36D+03 Max=1.20D+04 NDo=     1
 LinEq1:  Iter=154 NonCon=     1 RMS=4.39D+02 Max=5.46D+03 NDo=     1
 LinEq1:  Iter=155 NonCon=     1 RMS=1.45D+02 Max=1.29D+03 NDo=     1
 LinEq1:  Iter=156 NonCon=     1 RMS=3.10D+01 Max=2.84D+02 NDo=     1
 LinEq1:  Iter=157 NonCon=     1 RMS=1.05D+01 Max=1.18D+02 NDo=     1
 LinEq1:  Iter=158 NonCon=     1 RMS=2.73D+00 Max=1.90D+01 NDo=     1
 LinEq1:  Iter=159 NonCon=     1 RMS=5.32D-01 Max=5.19D+00 NDo=     1
 LinEq1:  Iter=160 NonCon=     1 RMS=1.55D-01 Max=2.22D+00 NDo=     1
 LinEq1:  Iter=161 NonCon=     1 RMS=5.12D-02 Max=5.34D-01 NDo=     1
 LinEq1:  Iter=162 NonCon=     1 RMS=1.11D-02 Max=9.07D-02 NDo=     1
 LinEq1:  Iter=163 NonCon=     1 RMS=3.60D-03 Max=4.42D-02 NDo=     1
 LinEq1:  Iter=164 NonCon=     1 RMS=8.68D-04 Max=6.31D-03 NDo=     1
 LinEq1:  Iter=165 NonCon=     1 RMS=1.72D-04 Max=1.19D-03 NDo=     1
 LinEq1:  Iter=166 NonCon=     1 RMS=4.32D-05 Max=4.65D-04 NDo=     1
 LinEq1:  Iter=167 NonCon=     1 RMS=1.19D-05 Max=1.34D-04 NDo=     1
 LinEq1:  Iter=168 NonCon=     1 RMS=3.03D-06 Max=4.31D-05 NDo=     1
 LinEq1:  Iter=169 NonCon=     1 RMS=8.48D-07 Max=1.16D-05 NDo=     1
 LinEq1:  Iter=170 NonCon=     1 RMS=2.00D-07 Max=2.41D-06 NDo=     1
 LinEq1:  Iter=171 NonCon=     1 RMS=6.28D-08 Max=4.78D-07 NDo=     1
 LinEq1:  Iter=172 NonCon=     0 RMS=1.28D-08 Max=8.30D-08 NDo=     1
 Linear equations converged to 6.190D-08 6.190D-07 after   172 iterations.
 Angle between quadratic step and gradient=  69.71 degrees.
     ILin= 1 X=0.000D+00 Y=-1.757357229372D+02 DE= 0.00D+00 F= -5.86D-04
     ILin= 2 X=1.000D+00 Y=-1.757360315417D+02 DE=-3.09D-04 F= -3.27D-05
     Reject lnstep minimum 1.060D+00 FVal=-1.757360325171D+02 Lims=  0.00D+00  1.00D+00
     ILin= 3 X=1.500D+00 Y=-1.757359717088D+02 DE=-2.49D-04 F=  2.82D-04
     An  expanding polynomial of degree  3 produced  1.0404
[...]
 LinEq1:  Iter=148 NonCon=     1 RMS=1.75D+04 Max=1.89D+05 NDo=     1
 LinEq1:  Iter=149 NonCon=     1 RMS=5.38D+03 Max=5.65D+04 NDo=     1
 LinEq1:  Iter=150 NonCon=     1 RMS=1.41D+03 Max=1.10D+04 NDo=     1
 LinEq1:  Iter=151 NonCon=     1 RMS=4.99D+02 Max=7.24D+03 NDo=     1
 LinEq1:  Iter=152 NonCon=     1 RMS=2.13D+02 Max=2.84D+03 NDo=     1
 LinEq1:  Iter=153 NonCon=     1 RMS=6.16D+01 Max=4.44D+02 NDo=     1
 LinEq1:  Iter=154 NonCon=     1 RMS=1.69D+01 Max=1.47D+02 NDo=     1
 LinEq1:  Iter=155 NonCon=     1 RMS=4.57D+00 Max=3.45D+01 NDo=     1
 LinEq1:  Iter=156 NonCon=     1 RMS=1.23D+00 Max=1.06D+01 NDo=     1
 LinEq1:  Iter=157 NonCon=     1 RMS=3.33D-01 Max=2.52D+00 NDo=     1
 LinEq1:  Iter=158 NonCon=     1 RMS=8.37D-02 Max=7.11D-01 NDo=     1
 LinEq1:  Iter=159 NonCon=     1 RMS=2.40D-02 Max=2.47D-01 NDo=     1
 LinEq1:  Iter=160 NonCon=     1 RMS=6.33D-03 Max=5.13D-02 NDo=     1
 LinEq1:  Iter=161 NonCon=     1 RMS=1.37D-03 Max=1.22D-02 NDo=     1
 LinEq1:  Iter=162 NonCon=     1 RMS=3.69D-04 Max=2.61D-03 NDo=     1
 LinEq1:  Iter=163 NonCon=     1 RMS=1.02D-04 Max=8.65D-04 NDo=     1
 LinEq1:  Iter=164 NonCon=     1 RMS=3.29D-05 Max=3.11D-04 NDo=     1
 LinEq1:  Iter=165 NonCon=     1 RMS=8.48D-06 Max=6.07D-05 NDo=     1
 LinEq1:  Iter=166 NonCon=     1 RMS=2.29D-06 Max=2.14D-05 NDo=     1
 LinEq1:  Iter=167 NonCon=     1 RMS=7.31D-07 Max=6.73D-06 NDo=     1
 LinEq1:  Iter=168 NonCon=     1 RMS=1.78D-07 Max=1.60D-06 NDo=     1
 LinEq1:  Iter=169 NonCon=     1 RMS=5.42D-08 Max=4.13D-07 NDo=     1
 LinEq1:  Iter=170 NonCon=     1 RMS=1.08D-08 Max=7.99D-08 NDo=     1
 LinEq1:  Iter=171 NonCon=     1 RMS=2.34D-09 Max=3.42D-08 NDo=     1
 LinEq1:  Iter=172 NonCon=     1 RMS=7.93D-10 Max=8.94D-09 NDo=     1
 LinEq1:  Iter=173 NonCon=     0 RMS=1.55D-10 Max=1.38D-09 NDo=     1
 Linear equations converged to 7.908D-10 7.908D-09 after   173 iterations.
 Angle between quadratic step and gradient=  67.28 degrees.
     ILin= 1 X=0.000D+00 Y=-1.757360483849D+02 DE= 0.00D+00 F= -1.54D-07
     ILin= 2 X=1.000D+00 Y=-1.757360484621D+02 DE=-7.71D-08
 Iteration  15 EE= -175.736048462076     Delta-E=       -0.000000077142 Grad=1.154D-06 Max rot=    0.0000 deg.
 Rotation gradient small -- convergence achieved.
 Orbital symmetries in SymMO:
    1=1    2=4    3=1    4=4    5=1    6=1    7=4    8=1    9=4   10=1
   11=1   12=4   13=4   14=1   15=3   16=1   17=2   18=4   19=1   20=3
   21=2   22=3   23=1   24=4   25=1   26=4   27=1   28=1   29=4   30=1
   31=4   32=3   33=4   34=3   35=1   36=2   37=1   38=4   39=1   40=2
   41=3   42=1   43=4   44=1   45=1   46=4   47=1   48=4   49=1   50=4
   51=1   52=1   53=4   54=4   55=1   56=1   57=4
 Orbital symmetries in SymMO:
    1=4    2=1    3=1    4=4    5=1    6=1    7=4    8=1    9=4   10=1
   11=1   12=4   13=4   14=1   15=3   16=2   17=3   18=1   19=1   20=4
   21=2   22=1   23=3   24=4   25=1   26=4   27=1   28=1   29=4   30=1
   31=4   32=3   33=4   34=3   35=2   36=1   37=1   38=4   39=1   40=2
   41=3   42=1   43=4   44=1   45=4   46=1   47=1   48=4   49=1   50=4
   51=1   52=1   53=4   54=4   55=1   56=1   57=4
 SCF Done:  E(ULC-wHPBE) =  -175.736048462     a.u. after   15 cycles
            Convg  =    0.1154D-05                   714 Fock formations.
              S**2 =  1.7640                  -V/T =  1.9228
 <Sx>= 0.0000 <Sy>= 0.0000 <Sz>= 0.5000 <S**2>= 1.7640 S= 0.9191
 <L.S>= 0.000000000000E+00
 Annihilation of the first spin contaminant:
 S**2 before annihilation     1.7640,   after     0.7970
 Leave Link  508 at Thu Mar  5 12:42:10 2020, MaxMem=  6710886400 cpu:            3752.4 elap:             242.3
 (Enter /opt/ohpc/pub/libs/gaussian/g16-A.03/sandybridge/g16/l601.exe)
 Copying SCF densities to generalized density rwf, IOpCl= 1 IROHF=0.

 **********************************************************************

            Population analysis using the SCF density.

 **********************************************************************

 Orbital symmetries:
 Alpha Orbitals:
       Occupied  (A1) (B2) (A1) (B2) (A1) (A1) (B2) (A1) (B2) (A1)
                 (A1) (B2) (B2) (A1) (B1) (A1) (A2) (B2)
       Virtual   (A1) (B1) (A2) (B1) (A1) (B2) (A1) (B2) (A1) (A1)
                 (B2) (A1) (B2) (B1) (B2) (B1) (A1) (A2) (A1) (B2)
                 (A1) (A2) (B1) (A1) (B2) (A1) (A1) (B2) (A1) (B2)
                 (A1) (B2) (A1) (A1) (B2) (B2) (A1) (A1) (B2)
 Beta  Orbitals:
       Occupied  (B2) (A1) (A1) (B2) (A1) (A1) (B2) (A1) (B2) (A1)
                 (A1) (B2) (B2) (A1) (B1) (A2) (B1)
       Virtual   (A1) (A1) (B2) (A2) (A1) (B1) (B2) (A1) (B2) (A1)
                 (A1) (B2) (A1) (B2) (B1) (B2) (B1) (A2) (A1) (A1)
                 (B2) (A1) (A2) (B1) (A1) (B2) (A1) (B2) (A1) (A1)
                 (B2) (A1) (B2) (A1) (A1) (B2) (B2) (A1) (A1) (B2)
 The electronic state is 2-A2.
 Alpha  occ. eigenvalues --   -9.52906  -9.52905  -9.51059  -9.51057  -9.50358
 Alpha  occ. eigenvalues --   -0.37593  -0.29456  -0.23699  -0.15416  -0.11459
 Alpha  occ. eigenvalues --   -0.09186  -0.03475  -0.01000  -0.00842   0.00944
 Alpha  occ. eigenvalues --    0.02095   0.08333   0.18473
 Alpha virt. eigenvalues --   -0.03985  -0.02584   0.08528   0.15202   0.15210
 Alpha virt. eigenvalues --    0.19391   0.21720   0.23374   0.24380   0.34282
 Alpha virt. eigenvalues --    0.35333   0.43375   0.44476   0.53172   0.53733
 Alpha virt. eigenvalues --    0.61500   0.62190   0.62352   0.64255   0.65525
 Alpha virt. eigenvalues --    0.67141   0.68176   0.70080   0.71740   0.73768
 Alpha virt. eigenvalues --    0.81130   0.86219   0.87064   0.91165   0.91402
 Alpha virt. eigenvalues --    0.96864   1.00383   1.00761   1.07742   1.14103
 Alpha virt. eigenvalues --    1.18649   1.22237   1.44970   1.48090
  Beta  occ. eigenvalues --   -9.52318  -9.52313  -9.50967  -9.50964  -9.50587
  Beta  occ. eigenvalues --   -0.37485  -0.29181  -0.23269  -0.15999  -0.11617
  Beta  occ. eigenvalues --   -0.10641  -0.03519  -0.01176   0.00729   0.02409
  Beta  occ. eigenvalues --    0.09547   0.14995
  Beta virt. eigenvalues --   -0.15988  -0.04516   0.00839   0.10221   0.15194
  Beta virt. eigenvalues --    0.16146   0.19410   0.21665   0.23247   0.24181
  Beta virt. eigenvalues --    0.34194   0.35364   0.43469   0.44230   0.52769
  Beta virt. eigenvalues --    0.54234   0.61046   0.62161   0.62459   0.64708
  Beta virt. eigenvalues --    0.66174   0.67840   0.67989   0.69445   0.73989
  Beta virt. eigenvalues --    0.74765   0.83663   0.87865   0.88389   0.91967
  Beta virt. eigenvalues --    0.92077   0.97506   1.00639   1.01461   1.08498
  Beta virt. eigenvalues --    1.14262   1.19215   1.22577   1.45247   1.48813
          Condensed to atoms (all electrons):
               1          2          3          4          5          6
     1  C    5.312980   0.589878  -0.052218  -0.056626  -0.023013   0.079637
     2  C    0.589878   4.939897   0.498056  -0.090880  -0.056626  -0.002154
     3  C   -0.052218   0.498056   4.923935   0.498056  -0.052218  -0.002707
     4  C   -0.056626  -0.090880   0.498056   4.939897   0.589878  -0.002154
     5  C   -0.023013  -0.056626  -0.052218   0.589878   5.312980   0.079637
     6  H    0.079637  -0.002154  -0.002707  -0.002154   0.079637   0.566174
     7  H    0.215916  -0.035633   0.011698   0.003809   0.004702  -0.004998
     8  H   -0.040110   0.274224  -0.047244   0.003703  -0.000201   0.000201
     9  H    0.009412  -0.036264   0.247554  -0.036264   0.009412   0.000043
    10  H   -0.000201   0.003703  -0.047244   0.274224  -0.040110   0.000201
    11  H    0.004702   0.003809   0.011698  -0.035633   0.215916  -0.004998
               7          8          9         10         11
     1  C    0.215916  -0.040110   0.009412  -0.000201   0.004702
     2  C   -0.035633   0.274224  -0.036264   0.003703   0.003809
     3  C    0.011698  -0.047244   0.247554  -0.047244   0.011698
     4  C    0.003809   0.003703  -0.036264   0.274224  -0.035633
     5  C    0.004702  -0.000201   0.009412  -0.040110   0.215916
     6  H   -0.004998   0.000201   0.000043   0.000201  -0.004998
     7  H    0.675141  -0.017324  -0.000426   0.000049  -0.000480
     8  H   -0.017324   0.603821  -0.001731  -0.000789   0.000049
     9  H   -0.000426  -0.001731   0.601325  -0.001731  -0.000426
    10  H    0.000049  -0.000789  -0.001731   0.603821  -0.017324
    11  H   -0.000480   0.000049  -0.000426  -0.017324   0.675141
          Atomic-Atomic Spin Densities.
               1          2          3          4          5          6
     1  C    0.459079   0.016586   0.036947  -0.026804  -0.139067   0.019814
     2  C    0.016586   0.071725  -0.028730  -0.014871  -0.026804  -0.000163
     3  C    0.036947  -0.028730  -0.229062  -0.028730   0.036947  -0.001009
     4  C   -0.026804  -0.014871  -0.028730   0.071725   0.016586  -0.000163
     5  C   -0.139067  -0.026804   0.036947   0.016586   0.459079   0.019814
     6  H    0.019814  -0.000163  -0.001009  -0.000163   0.019814   0.317529
     7  H   -0.108133   0.009562   0.003024   0.002590   0.010948   0.000733
     8  H   -0.032715   0.016817  -0.032429  -0.004055  -0.001334   0.000274
     9  H    0.002882  -0.016654   0.042564  -0.016654   0.002882  -0.000069
    10  H   -0.001334  -0.004055  -0.032429   0.016817  -0.032715   0.000274
    11  H    0.010948   0.002590   0.003024   0.009562  -0.108133   0.000733
               7          8          9         10         11
     1  C   -0.108133  -0.032715   0.002882  -0.001334   0.010948
     2  C    0.009562   0.016817  -0.016654  -0.004055   0.002590
     3  C    0.003024  -0.032429   0.042564  -0.032429   0.003024
     4  C    0.002590  -0.004055  -0.016654   0.016817   0.009562
     5  C    0.010948  -0.001334   0.002882  -0.032715  -0.108133
     6  H    0.000733   0.000274  -0.000069   0.000274   0.000733
     7  H    0.142540  -0.017881   0.000009   0.000085  -0.000568
     8  H   -0.017881   0.157665  -0.005313  -0.000328   0.000085
     9  H    0.000009  -0.005313   0.091961  -0.005313   0.000009
    10  H    0.000085  -0.000328  -0.005313   0.157665  -0.017881
    11  H   -0.000568   0.000085   0.000009  -0.017881   0.142540
 Mulliken charges and spin densities:
               1          2
     1  C   -0.040358   0.238203
     2  C   -0.088012   0.026004
     3  C    0.010634  -0.229882
     4  C   -0.088012   0.026004
     5  C   -0.040358   0.238203
     6  H    0.291118   0.357767
     7  H    0.147545   0.042911
     8  H    0.225402   0.080787
     9  H    0.209096   0.096305
    10  H    0.225402   0.080787
    11  H    0.147545   0.042911
 Sum of Mulliken charges =   1.00000   1.00000
 Mulliken charges and spin densities with hydrogens summed into heavy atoms:
               1          2
     1  C    0.398304   0.638881
     2  C    0.137390   0.106791
     3  C    0.219730  -0.133576
     4  C    0.137390   0.106791
     5  C    0.107187   0.281114
 Electronic spatial extent (au):  <R**2>=            383.7282
 Charge=              1.0000 electrons
 Dipole moment (field-independent basis, Debye):
    X=             -0.0000    Y=              0.0000    Z=             -1.2073  Tot=              1.2073
 Quadrupole moment (field-independent basis, Debye-Ang):
   XX=            -35.4594   YY=            -19.5622   ZZ=            -13.1197
   XY=              0.0000   XZ=             -0.0000   YZ=             -0.0000
 Traceless Quadrupole moment (field-independent basis, Debye-Ang):
   XX=            -12.7456   YY=              3.1516   ZZ=              9.5941
   XY=              0.0000   XZ=             -0.0000   YZ=             -0.0000
 Octapole moment (field-independent basis, Debye-Ang**2):
  XXX=              0.0000  YYY=              0.0000  ZZZ=            -18.2542  XYY=              0.0000
  XXY=             -0.0000  XXZ=              1.5133  XZZ=              0.0000  YZZ=             -0.0000
  YYZ=              2.6916  XYZ=              0.0000
 Hexadecapole moment (field-independent basis, Debye-Ang**3):
 XXXX=            -39.2071 YYYY=           -252.7673 ZZZZ=           -125.5403 XXXY=             -0.0000
 XXXZ=             -0.0000 YYYX=             -0.0000 YYYZ=             -0.0000 ZZZX=             -0.0000
 ZZZY=              0.0000 XXYY=            -63.1678 XXZZ=            -50.0223 YYZZ=            -73.8950
 XXYZ=             -0.0000 YYXZ=             -0.0000 ZZXY=             -0.0000
 N-N= 1.450218997931D+02 E-N=-7.260400562015D+02  KE= 1.904380757265D+02
 Symmetry A1   KE= 1.090134207133D+02
 Symmetry A2   KE= 2.181392095400D+00
 Symmetry B1   KE= 2.899586850125D+00
 Symmetry B2   KE= 7.634367606768D+01
 Symmetry A1   SP= 1.000000000000D+00
 Symmetry A2   SP=-4.228388472693D-18
 Symmetry B1   SP=-1.000000000000D+00
 Symmetry B2   SP= 1.000000000000D+00
                          Isotropic Fermi Contact Couplings
        Atom                 a.u.       MegaHertz       Gauss      10(-4) cm-1
     1  C(13)              0.35586     400.05713     142.75033     133.44469
     2  C(13)              0.04600      51.71677      18.45383      17.25086
     3  C(13)              0.01740      19.55841       6.97893       6.52398
     4  C(13)              0.04600      51.71677      18.45383      17.25086
     5  C(13)              0.35586     400.05713     142.75033     133.44469
     6  H(1)               0.08769     391.95481     139.85922     130.74205
     7  H(1)               0.02112      94.40162      33.68484      31.48899
     8  H(1)               0.03585     160.26392      57.18615      53.45829
     9  H(1)               0.04410     197.13485      70.34262      65.75711
    10  H(1)               0.03585     160.26392      57.18615      53.45829
    11  H(1)               0.02112      94.40162      33.68484      31.48899
 --------------------------------------------------------
       Center         ----  Spin Dipole Couplings  ----
                      3XX-RR        3YY-RR        3ZZ-RR
 --------------------------------------------------------
     1   Atom       -0.583159      0.482592      0.100567
     2   Atom       -0.135386      0.000884      0.134502
     3   Atom       -0.456724      0.177070      0.279654
     4   Atom       -0.135386      0.000884      0.134502
     5   Atom       -0.583159      0.482592      0.100567
     6   Atom       -0.022989     -0.000675      0.023664
     7   Atom       -0.042516      0.026440      0.016076
     8   Atom       -0.015020      0.015557     -0.000537
     9   Atom       -0.019376      0.007133      0.012243
    10   Atom       -0.015020      0.015557     -0.000537
    11   Atom       -0.042516      0.026440      0.016076
 --------------------------------------------------------
                        XY            XZ            YZ
 --------------------------------------------------------
     1   Atom        0.000000     -0.000000      0.345782
     2   Atom        0.000000      0.000000      0.053746
     3   Atom        0.000000      0.000000      0.000000
     4   Atom        0.000000     -0.000000     -0.053746
     5   Atom        0.000000      0.000000     -0.345782
     6   Atom        0.000000     -0.000000      0.000000
     7   Atom        0.000000     -0.000000     -0.009383
     8   Atom        0.000000      0.000000      0.011055
     9   Atom       -0.000000     -0.000000     -0.000000
    10   Atom        0.000000     -0.000000     -0.011055
    11   Atom        0.000000      0.000000      0.009383
 --------------------------------------------------------


 ---------------------------------------------------------------------------------
              Anisotropic Spin Dipole Couplings in Principal Axis System
 ---------------------------------------------------------------------------------

       Atom             a.u.   MegaHertz   Gauss  10(-4) cm-1        Axes

              Baa    -0.5832   -78.254   -27.923   -26.103  1.0000  0.0000  0.0000
     1 C(13)  Bbb    -0.1035   -13.883    -4.954    -4.631  0.0000 -0.5082  0.8613
              Bcc     0.6866    92.137    32.877    30.734 -0.0000  0.8613  0.5082
 
              Baa    -0.1354   -18.168    -6.483    -6.060  1.0000 -0.0000  0.0000
     2 C(13)  Bbb    -0.0181    -2.422    -0.864    -0.808  0.0000  0.9432 -0.3323
              Bcc     0.1534    20.590     7.347     6.868  0.0000  0.3323  0.9432
 
              Baa    -0.4567   -61.288   -21.869   -20.443  1.0000  0.0000 -0.0000
     3 C(13)  Bbb     0.1771    23.761     8.479     7.926  0.0000  1.0000 -0.0000
              Bcc     0.2797    37.527    13.391    12.518  0.0000  0.0000  1.0000
 
              Baa    -0.1354   -18.168    -6.483    -6.060  1.0000 -0.0000  0.0000
     4 C(13)  Bbb    -0.0181    -2.422    -0.864    -0.808  0.0000  0.9432  0.3323
              Bcc     0.1534    20.590     7.347     6.868 -0.0000 -0.3323  0.9432
 
              Baa    -0.5832   -78.254   -27.923   -26.103  1.0000  0.0000  0.0000
     5 C(13)  Bbb    -0.1035   -13.883    -4.954    -4.631 -0.0000  0.5082  0.8613
              Bcc     0.6866    92.137    32.877    30.734 -0.0000  0.8613 -0.5082
 
              Baa    -0.0230   -12.266    -4.377    -4.091  1.0000 -0.0000  0.0000
     6 H(1)   Bbb    -0.0007    -0.360    -0.128    -0.120  0.0000  1.0000  0.0000
              Bcc     0.0237    12.626     4.505     4.211 -0.0000  0.0000  1.0000
 
              Baa    -0.0425   -22.684    -8.094    -7.567  1.0000 -0.0000  0.0000
     7 H(1)   Bbb     0.0105     5.623     2.007     1.876  0.0000  0.5082  0.8612
              Bcc     0.0320    17.061     6.088     5.691  0.0000  0.8612 -0.5082
 
              Baa    -0.0150    -8.014    -2.860    -2.673  1.0000 -0.0000  0.0000
     8 H(1)   Bbb    -0.0062    -3.289    -1.174    -1.097 -0.0000 -0.4536  0.8912
              Bcc     0.0212    11.303     4.033     3.770  0.0000  0.8912  0.4536
 
              Baa    -0.0194   -10.338    -3.689    -3.448  1.0000  0.0000 -0.0000
     9 H(1)   Bbb     0.0071     3.806     1.358     1.270 -0.0000  1.0000 -0.0000
              Bcc     0.0122     6.532     2.331     2.179  0.0000  0.0000  1.0000
 
              Baa    -0.0150    -8.014    -2.860    -2.673  1.0000 -0.0000  0.0000
    10 H(1)   Bbb    -0.0062    -3.289    -1.174    -1.097 -0.0000  0.4536  0.8912
              Bcc     0.0212    11.303     4.033     3.770  0.0000  0.8912 -0.4536
 
              Baa    -0.0425   -22.684    -8.094    -7.567  1.0000 -0.0000 -0.0000
    11 H(1)   Bbb     0.0105     5.623     2.007     1.876 -0.0000 -0.5082  0.8612
              Bcc     0.0320    17.061     6.088     5.691  0.0000  0.8612  0.5082
 

 ---------------------------------------------------------------------------------

 No NMR shielding tensors so no spin-rotation constants.
 Leave Link  601 at Thu Mar  5 12:42:11 2020, MaxMem=  6710886400 cpu:               3.9 elap:               0.3
 (Enter /opt/ohpc/pub/libs/gaussian/g16-A.03/sandybridge/g16/l9999.exe)

 Test job not archived.
 1\1\GINC-CNODE212\SP\ULC-wHPBE\6-31G\C5H6(1+,2)\SMGO234\05-Mar-2020\0\
 \#P uLC-wHPBE/6-31G iop(3/130=0221900000, 3/131=0221900000, 3/119=0778
 100000, 3/120=0778100000) scf=(conver=6,fermi,ndamp=35,noincfock,novar
 acc,vshift=500,xqc)\\H6 C5\\1,2\C,0,-1.206512,0.69658,0.\C,0,-1.206512
 ,-0.69658,0.\C,0,0.,-1.39316,0.\C,0,1.206512,-0.69658,0.\C,0,1.206512,
 0.69658,0.\H,0,0.,2.482681,0.\H,0,-2.150065,1.24134,0.\H,0,-2.150065,-
 1.24134,0.\H,0,0.,-2.482681,0.\H,0,2.150065,-1.24134,0.\H,0,2.150065,1
 .24134,0.\\Version=EM64L-G16RevA.03\State=2-A2\HF=-175.7360485\S2=1.76
 3964\S2-1=0.\S2A=0.79698\RMSD=3.104e-08\Dipole=0.,0.4750062,0.\Quadrup
 ole=2.3431064,7.132957,-9.4760634,0.,0.,0.\PG=C02V [C2(H1C1H1),SGV(C4H
 4)]\\@


 THE DIFFERENCE BETWEEN A NOOSE AND A HALO IS ONLY 12 INCHES.
 Job cpu time:       0 days  1 hours  3 minutes 53.6 seconds.
 Elapsed time:       0 days  0 hours  4 minutes  7.7 seconds.
 File lengths (MBytes):  RWF=    272 Int=      0 D2E=      0 Chk=     32 Scr=     32
 Normal termination of Gaussian 16 at Thu Mar  5 12:42:11 2020.
