 Entering Gaussian System, Link 0=g16
 Input=a1b_tune_n2.gjf
 Output=a1b_tune_n2.log
 Initial command:
 /opt/ohpc/pub/libs/gaussian/g16-A.03/sandybridge/g16/l1.exe "/scratch/smgo234/Ocelot/test/a1b/tuning_a1b_acycle0/Gau-71038.inp" -scrdir="/scratch/smgo234/Ocelot/test/a1b/tuning_a1b_acycle0/"
 Entering Link 1 = /opt/ohpc/pub/libs/gaussian/g16-A.03/sandybridge/g16/l1.exe PID=     71039.
  
 Copyright (c) 1988,1990,1992,1993,1995,1998,2003,2009,2016,
            Gaussian, Inc.  All Rights Reserved.
  
 This is part of the Gaussian(R) 16 program.  It is based on
 the Gaussian(R) 09 system (copyright 2009, Gaussian, Inc.),
 the Gaussian(R) 03 system (copyright 2003, Gaussian, Inc.),
 the Gaussian(R) 98 system (copyright 1998, Gaussian, Inc.),
 the Gaussian(R) 94 system (copyright 1995, Gaussian, Inc.),
 the Gaussian 92(TM) system (copyright 1992, Gaussian, Inc.),
 the Gaussian 90(TM) system (copyright 1990, Gaussian, Inc.),
 the Gaussian 88(TM) system (copyright 1988, Gaussian, Inc.),
 the Gaussian 86(TM) system (copyright 1986, Carnegie Mellon
 University), and the Gaussian 82(TM) system (copyright 1983,
 Carnegie Mellon University). Gaussian is a federally registered
 trademark of Gaussian, Inc.
  
 This software contains proprietary and confidential information,
 including trade secrets, belonging to Gaussian, Inc.
  
 This software is provided under written license and may be
 used, copied, transmitted, or stored only in accord with that
 written license.
  
 The following legend is applicable only to US Government
 contracts under FAR:
  
                    RESTRICTED RIGHTS LEGEND
  
 Use, reproduction and disclosure by the US Government is
 subject to restrictions as set forth in subparagraphs (a)
 and (c) of the Commercial Computer Software - Restricted
 Rights clause in FAR 52.227-19.
  
 Gaussian, Inc.
 340 Quinnipiac St., Bldg. 40, Wallingford CT 06492
  
  
 ---------------------------------------------------------------
 Warning -- This program may not be used in any manner that
 competes with the business of Gaussian, Inc. or will provide
 assistance to any competitor of Gaussian, Inc.  The licensee
 of this program is prohibited from giving any competitor of
 Gaussian, Inc. access to this program.  By using this program,
 the user acknowledges that Gaussian, Inc. is engaged in the
 business of creating and licensing software in the field of
 computational chemistry and represents and warrants to the
 licensee that it is not a competitor of Gaussian, Inc. and that
 it will not use this program in any manner prohibited above.
 ---------------------------------------------------------------
  

 Cite this work as:
 Gaussian 16, Revision A.03,
 M. J. Frisch, G. W. Trucks, H. B. Schlegel, G. E. Scuseria, 
 M. A. Robb, J. R. Cheeseman, G. Scalmani, V. Barone, 
 G. A. Petersson, H. Nakatsuji, X. Li, M. Caricato, A. V. Marenich, 
 J. Bloino, B. G. Janesko, R. Gomperts, B. Mennucci, H. P. Hratchian, 
 J. V. Ortiz, A. F. Izmaylov, J. L. Sonnenberg, D. Williams-Young, 
 F. Ding, F. Lipparini, F. Egidi, J. Goings, B. Peng, A. Petrone, 
 T. Henderson, D. Ranasinghe, V. G. Zakrzewski, J. Gao, N. Rega, 
 G. Zheng, W. Liang, M. Hada, M. Ehara, K. Toyota, R. Fukuda, 
 J. Hasegawa, M. Ishida, T. Nakajima, Y. Honda, O. Kitao, H. Nakai, 
 T. Vreven, K. Throssell, J. A. Montgomery, Jr., J. E. Peralta, 
 F. Ogliaro, M. J. Bearpark, J. J. Heyd, E. N. Brothers, K. N. Kudin, 
 V. N. Staroverov, T. A. Keith, R. Kobayashi, J. Normand, 
 K. Raghavachari, A. P. Rendell, J. C. Burant, S. S. Iyengar, 
 J. Tomasi, M. Cossi, J. M. Millam, M. Klene, C. Adamo, R. Cammi, 
 J. W. Ochterski, R. L. Martin, K. Morokuma, O. Farkas, 
 J. B. Foresman, and D. J. Fox, Gaussian, Inc., Wallingford CT, 2016.
 
 ******************************************
 Gaussian 16:  EM64L-G16RevA.03 25-Dec-2016
                 5-Mar-2020 
 ******************************************
 %mem=50GB
 %nproc=16
 Will use up to   16 processors via shared memory.
 ----------------------------------------------------------------------
 #P uLC-wHPBE/6-31G iop(3/130=0393800000, 3/131=0393800000, 3/119=06062
 00000, 3/120=0606200000) scf=(conver=6,fermi,ndamp=35,noincfock,novara
 cc,vshift=500,xqc)
 ----------------------------------------------------------------------
 1/38=1,172=1/1;
 2/12=2,17=6,18=5,40=1/2;
 3/5=1,6=6,11=2,25=1,30=1,74=-71,116=2,119=606200000,120=606200000,130=393800000,131=393800000/1,2,3;
 4//1;
 5/5=100002,6=6,8=3,10=500,13=1,18=-1,22=13,38=1,93=35/2,8;
 6/7=2,8=2,9=2,10=2,28=1/1;
 99/5=1,9=1/99;
 Leave Link    1 at Thu Mar  5 12:42:26 2020, MaxMem=  6710886400 cpu:              16.9 elap:               1.1
 (Enter /opt/ohpc/pub/libs/gaussian/g16-A.03/sandybridge/g16/l101.exe)
 -----
 H6 C5
 -----
 Symbolic Z-matrix:
 Charge =  0 Multiplicity = 1
 C                    -1.20651   0.69658   0. 
 C                    -1.20651  -0.69658   0. 
 C                     0.       -1.39316   0. 
 C                     1.20651  -0.69658   0. 
 C                     1.20651   0.69658   0. 
 H                     0.        2.48268   0. 
 H                    -2.15007   1.24134   0. 
 H                    -2.15007  -1.24134   0. 
 H                     0.       -2.48268   0. 
 H                     2.15007  -1.24134   0. 
 H                     2.15007   1.24134   0. 
 
 ITRead=  0  0  0  0  0  0  0  0  0  0  0
 MicOpt= -1 -1 -1 -1 -1 -1 -1 -1 -1 -1 -1
 NAtoms=     11 NQM=       11 NQMF=       0 NMMI=      0 NMMIF=      0
                NMic=       0 NMicF=      0.
                    Isotopes and Nuclear Properties:
 (Nuclear quadrupole moments (NQMom) in fm**2, nuclear magnetic moments (NMagM)
  in nuclear magnetons)

  Atom         1           2           3           4           5           6           7           8           9          10
 IAtWgt=          12          12          12          12          12           1           1           1           1           1
 AtmWgt=  12.0000000  12.0000000  12.0000000  12.0000000  12.0000000   1.0078250   1.0078250   1.0078250   1.0078250   1.0078250
 NucSpn=           0           0           0           0           0           1           1           1           1           1
 AtZEff=  -0.0000000  -0.0000000  -0.0000000  -0.0000000  -0.0000000  -0.0000000  -0.0000000  -0.0000000  -0.0000000  -0.0000000
 NQMom=    0.0000000   0.0000000   0.0000000   0.0000000   0.0000000   0.0000000   0.0000000   0.0000000   0.0000000   0.0000000
 NMagM=    0.0000000   0.0000000   0.0000000   0.0000000   0.0000000   2.7928460   2.7928460   2.7928460   2.7928460   2.7928460
 AtZNuc=   6.0000000   6.0000000   6.0000000   6.0000000   6.0000000   1.0000000   1.0000000   1.0000000   1.0000000   1.0000000

  Atom        11
 IAtWgt=           1
 AtmWgt=   1.0078250
 NucSpn=           1
 AtZEff=  -0.0000000
 NQMom=    0.0000000
 NMagM=    2.7928460
 AtZNuc=   1.0000000
 Leave Link  101 at Thu Mar  5 12:42:27 2020, MaxMem=  6710886400 cpu:               2.6 elap:               0.2
 (Enter /opt/ohpc/pub/libs/gaussian/g16-A.03/sandybridge/g16/l202.exe)
                          Input orientation:                          
 ---------------------------------------------------------------------
 Center     Atomic      Atomic             Coordinates (Angstroms)
 Number     Number       Type             X           Y           Z
 ---------------------------------------------------------------------
      1          6           0       -1.206512    0.696580    0.000000
      2          6           0       -1.206512   -0.696580    0.000000
      3          6           0        0.000000   -1.393160    0.000000
      4          6           0        1.206512   -0.696580    0.000000
      5          6           0        1.206512    0.696580    0.000000
      6          1           0        0.000000    2.482681    0.000000
      7          1           0       -2.150065    1.241340    0.000000
      8          1           0       -2.150065   -1.241340    0.000000
      9          1           0        0.000000   -2.482681    0.000000
     10          1           0        2.150065   -1.241340    0.000000
     11          1           0        2.150065    1.241340    0.000000
 ---------------------------------------------------------------------
                    Distance matrix (angstroms):
                    1          2          3          4          5
     1  C    0.000000
     2  C    1.393160   0.000000
     3  C    2.413024   1.393160   0.000000
     4  C    2.786320   2.413024   1.393160   0.000000
     5  C    2.413024   2.786320   2.413024   1.393160   0.000000
     6  H    2.155418   3.400496   3.875841   3.400496   2.155418
     7  H    1.089521   2.155418   3.400496   3.875841   3.400496
     8  H    2.155418   1.089521   2.155418   3.400496   3.875841
     9  H    3.400496   2.155418   1.089521   2.155418   3.400496
    10  H    3.875841   3.400496   2.155418   1.089521   2.155418
    11  H    3.400496   3.875841   3.400496   2.155418   1.089521
                    6          7          8          9         10
     6  H    0.000000
     7  H    2.482681   0.000000
     8  H    4.300129   2.482680   0.000000
     9  H    4.965362   4.300129   2.482681   0.000000
    10  H    4.300129   4.965362   4.300130   2.482681   0.000000
    11  H    2.482681   4.300130   4.965362   4.300129   2.482680
                   11
    11  H    0.000000
 Stoichiometry    C5H6
 Framework group  C2V[C2(HCH),SGV(C4H4)]
 Deg. of freedom    10
 Full point group                 C2V     NOp   4
 Largest Abelian subgroup         C2V     NOp   4
 Largest concise Abelian subgroup C2      NOp   2
                         Standard orientation:                         
 ---------------------------------------------------------------------
 Center     Atomic      Atomic             Coordinates (Angstroms)
 Number     Number       Type             X           Y           Z
 ---------------------------------------------------------------------
      1          6           0       -0.000000    1.206512   -0.928773
      2          6           0       -0.000000    1.206512    0.464387
      3          6           0        0.000000    0.000000    1.160967
      4          6           0       -0.000000   -1.206512    0.464387
      5          6           0       -0.000000   -1.206512   -0.928773
      6          1           0       -0.000000   -0.000000   -2.714874
      7          1           0       -0.000000    2.150065   -1.473533
      8          1           0       -0.000000    2.150065    1.009147
      9          1           0        0.000000    0.000000    2.250488
     10          1           0       -0.000000   -2.150065    1.009147
     11          1           0       -0.000000   -2.150065   -1.473533
 ---------------------------------------------------------------------
 Rotational constants (GHZ):           8.2868568           5.7099792           3.3806054
 Leave Link  202 at Thu Mar  5 12:42:27 2020, MaxMem=  6710886400 cpu:               0.3 elap:               0.0
 (Enter /opt/ohpc/pub/libs/gaussian/g16-A.03/sandybridge/g16/l301.exe)
 Standard basis: 6-31G (6D, 7F)
 Ernie: Thresh=  0.10000D-02 Tol=  0.10000D-05 Strict=F.
 There are    27 symmetry adapted cartesian basis functions of A1  symmetry.
 There are     4 symmetry adapted cartesian basis functions of A2  symmetry.
 There are     6 symmetry adapted cartesian basis functions of B1  symmetry.
 There are    20 symmetry adapted cartesian basis functions of B2  symmetry.
 There are    27 symmetry adapted basis functions of A1  symmetry.
 There are     4 symmetry adapted basis functions of A2  symmetry.
 There are     6 symmetry adapted basis functions of B1  symmetry.
 There are    20 symmetry adapted basis functions of B2  symmetry.
    57 basis functions,   134 primitive gaussians,    57 cartesian basis functions
    18 alpha electrons       18 beta electrons
       nuclear repulsion energy       145.0218997931 Hartrees.
 IExCor=33909 DFT=T Ex+Corr=LC-wHPBE ExCW=0 ScaHFX=  1.000000
 ScaDFX=  1.000000  1.000000  1.000000  1.000000 ScalE2=  1.000000  1.000000
 IRadAn=      5 IRanWt=     -1 IRanGd=            0 ICorTp=0 IEmpDi=  4
 HFx  wShort=  0.000000 wLong=  0.400000 cFull=  0.000000 cShort=  0.000000 cLong=  0.606200
 DFx  wShort=  0.000000 wLong=  0.400000 cFull=  0.000000 cShort=  1.000000 cLong=  0.606200
 NAtoms=   11 NActive=   11 NUniq=    7 SFac= 2.47D+00 NAtFMM=   60 NAOKFM=F Big=F
 Integral buffers will be    131072 words long.
 Raffenetti 2 integral format.
 Two-electron integral symmetry is turned on.
 Leave Link  301 at Thu Mar  5 12:42:27 2020, MaxMem=  6710886400 cpu:               0.9 elap:               0.3
 (Enter /opt/ohpc/pub/libs/gaussian/g16-A.03/sandybridge/g16/l302.exe)
 NPDir=0 NMtPBC=     1 NCelOv=     1 NCel=       1 NClECP=     1 NCelD=      1
         NCelK=      1 NCelE2=     1 NClLst=     1 CellRange=     0.0.
 One-electron integrals computed using PRISM.
 One-electron integral symmetry used in STVInt
 NBasis=    57 RedAO= T EigKep=  2.88D-03  NBF=    27     4     6    20
 NBsUse=    57 1.00D-06 EigRej= -1.00D+00 NBFU=    27     4     6    20
 Precomputing XC quadrature grid using
 IXCGrd= 4 IRadAn=           5 IRanWt=          -1 IRanGd=           0 AccXCQ= 0.00D+00.
 Generated NRdTot=       0 NPtTot=           0 NUsed=           0 NTot=          32
 NSgBfM=    57    57    57    57    57 MxSgAt=    11 MxSgA2=    11.
 Leave Link  302 at Thu Mar  5 12:42:27 2020, MaxMem=  6710886400 cpu:               2.3 elap:               0.2
 (Enter /opt/ohpc/pub/libs/gaussian/g16-A.03/sandybridge/g16/l303.exe)
 DipDrv:  MaxL=1.
 Leave Link  303 at Thu Mar  5 12:42:27 2020, MaxMem=  6710886400 cpu:               0.4 elap:               0.0
 (Enter /opt/ohpc/pub/libs/gaussian/g16-A.03/sandybridge/g16/l401.exe)
 ExpMin= 1.61D-01 ExpMax= 3.05D+03 ExpMxC= 4.57D+02 IAcc=3 IRadAn=         5 AccDes= 0.00D+00
 Harris functional with IExCor=33909 and IRadAn=       5 diagonalized for initial guess.
 HarFok:  IExCor=33909 AccDes= 0.00D+00 IRadAn=         5 IDoV= 1 UseB2=F ITyADJ=14
 ICtDFT=  3500011 ScaDFX=  1.000000  1.000000  1.000000  1.000000
 FoFCou: FMM=F IPFlag=           0 FMFlag=      100000 FMFlg1=           0
         NFxFlg=           0 DoJE=T BraDBF=F KetDBF=T FulRan=T
         wScrn=  0.000000 ICntrl=       500 IOpCl=  0 I1Cent=   200000004 NGrid=           0
         NMat0=    1 NMatS0=      1 NMatT0=    0 NMatD0=    1 NMtDS0=    0 NMtDT0=    0
 Petite list used in FoFCou.
 Harris En= -190.875829179042    
 JPrj=0 DoOrth=F DoCkMO=F.
 Initial guess orbital symmetries:
 Alpha Orbitals:
       Occupied  (A1) (B2) (A1) (B2) (A1) (A1) (B2) (A1) (B2) (A1)
                 (A1) (B2) (B2) (A1) (B1) (A1) (A2) (B1)
       Virtual   (B2) (A1) (A2) (B1) (A1) (B2) (A1) (B2) (A1) (A1)
                 (B2) (A1) (B2) (B1) (B2) (A1) (B1) (A2) (A1) (B2)
                 (A1) (A2) (B1) (B2) (A1) (A1) (B2) (A1) (B2) (A1)
                 (A1) (B2) (A1) (A1) (B2) (B2) (A1) (A1) (B2)
 Beta  Orbitals:
       Occupied  (A1) (B2) (A1) (B2) (A1) (A1) (B2) (A1) (B2) (A1)
                 (A1) (B2) (B2) (A1) (B1) (A1) (A2) (B1)
       Virtual   (B2) (A1) (A2) (B1) (A1) (B2) (A1) (B2) (A1) (A1)
                 (B2) (A1) (B2) (B1) (B2) (A1) (B1) (A2) (A1) (B2)
                 (A1) (A2) (B1) (B2) (A1) (A1) (B2) (A1) (B2) (A1)
                 (A1) (B2) (A1) (A1) (B2) (B2) (A1) (A1) (B2)
 The electronic state of the initial guess is 1-A1.
 Initial guess <Sx>= 0.0000 <Sy>= 0.0000 <Sz>= 0.0000 <S**2>=-0.0000 S=-0.0000
 Leave Link  401 at Thu Mar  5 12:42:27 2020, MaxMem=  6710886400 cpu:               3.0 elap:               0.2
 (Enter /opt/ohpc/pub/libs/gaussian/g16-A.03/sandybridge/g16/l502.exe)
 Keep R1 and R2 ints in memory in symmetry-blocked form, NReq=16815659.
 FoFCou: FMM=F IPFlag=           0 FMFlag=           0 FMFlg1=           0
         NFxFlg=           0 DoJE=F BraDBF=F KetDBF=F FulRan=T
         wScrn=  0.000000 ICntrl=       600 IOpCl=  0 I1Cent=           0 NGrid=           0
         NMat0=    1 NMatS0=   1653 NMatT0=    0 NMatD0=    1 NMtDS0=    0 NMtDT0=    0
 Petite list used in FoFCou.
 UHF open shell SCF:
 Using DIIS extrapolation, IDIIS=    10.
 NGot=  6710886400 LenX=  6710059583 LenY=  6710055893
 Requested convergence on RMS density matrix=1.00D-06 within  32 cycles.
 Requested convergence on MAX density matrix=1.00D-04.
 Requested convergence on             energy=1.00D-04.
 Virtual orbitals will be shifted by   0.500 hartree.
 No special actions if energy rises.
 Dynamic level shift is on during FON iterations.

 Cycle   1  Pass 1  IDiag  1:
 E= -194.824599069839    
 DIIS: error= 4.76D-02 at cycle   1 NSaved=   1.
 NSaved= 1 IEnMin= 1 EnMin= -194.824599069839     IErMin= 1 ErrMin= 4.76D-02
 ErrMax= 4.76D-02  0.00D+00 EMaxC= 1.00D+00 BMatC= 4.75D-01 BMatP= 4.75D-01
 IDIUse=1 WtCom= 1.00D+00 WtEn= 0.00D+00
 Coeff-Com:  0.100D+01
 Coeff:      0.100D+01
 Gap=     0.081 Goal=   None    Shift=    0.500
 T= 1773. Gap= 0.537 NK=0 IS=   19 IE=   57 IFin=   18
          NO(<0.9)=   0  NV(>0.1)=   0     18.00e < EF      0.00e >EF  Err=0.0D+00
 Gap=     0.081 Goal=   None    Shift=    0.500
 T= 1773. Gap= 0.537 NK=0 IS=   19 IE=   57 IFin=   18
          NO(<0.9)=   0  NV(>0.1)=   0     18.00e < EF      0.00e >EF  Err=0.0D+00
 GapD=    0.081 DampG=0.500 DampE=0.500 DampFc=0.2500 IDamp=-1.
 Damping current iteration by 2.50D-01
 RMSDP=2.24D-02 MaxDP=4.81D-01              OVMax= 1.43D-01

 Cycle   2  Pass 1  IDiag  1:
 E= -194.901958014534     Delta-E=       -0.077358944695 Rises=F Damp=T
 DIIS: error= 2.32D-02 at cycle   2 NSaved=   2.
 NSaved= 2 IEnMin= 2 EnMin= -194.901958014534     IErMin= 2 ErrMin= 2.32D-02
 ErrMax= 2.32D-02  0.00D+00 EMaxC= 1.00D+00 BMatC= 1.25D-01 BMatP= 4.75D-01
 IDIUse=1 WtCom= 1.00D+00 WtEn= 0.00D+00
 Coeff-Com: -0.914D+00 0.191D+01
 Coeff:     -0.914D+00 0.191D+01
 Gap=     0.004 Goal=   None    Shift=    0.500
 T= 1661. Gap= 0.447 NK=0 IS=   19 IE=   57 IFin=   18
          NO(<0.9)=   0  NV(>0.1)=   0     18.00e < EF      0.00e >EF  Err=0.0D+00
 Gap=     0.004 Goal=   None    Shift=    0.500
 T= 1661. Gap= 0.447 NK=0 IS=   19 IE=   57 IFin=   18
          NO(<0.9)=   0  NV(>0.1)=   0     18.00e < EF      0.00e >EF  Err=0.0D+00
 GapD=    0.004 DampG=0.250 DampE=0.500 DampFc=0.1250 IDamp=-1.
 Damping current iteration by 1.25D-01
 RMSDP=1.67D-02 MaxDP=4.14D-01 DE=-7.74D-02 OVMax= 3.23D-02

 Cycle   3  Pass 1  IDiag  1:
 E= -194.912691135872     Delta-E=       -0.010733121338 Rises=F Damp=T
 DIIS: error= 1.71D-02 at cycle   3 NSaved=   3.
 NSaved= 3 IEnMin= 3 EnMin= -194.912691135872     IErMin= 3 ErrMin= 1.71D-02
 ErrMax= 1.71D-02  0.00D+00 EMaxC= 1.00D+00 BMatC= 6.80D-02 BMatP= 1.25D-01
 IDIUse=1 WtCom= 1.00D+00 WtEn= 0.00D+00
 Coeff-Com:  0.668D+00-0.533D+01 0.566D+01
 Coeff:      0.668D+00-0.533D+01 0.566D+01
 Gap=     0.089 Goal=   None    Shift=    0.500
 T= 1482. Gap= 0.586 NK=0 IS=   19 IE=   57 IFin=   18
          NO(<0.9)=   0  NV(>0.1)=   0     18.00e < EF      0.00e >EF  Err=0.0D+00
 Gap=     0.089 Goal=   None    Shift=    0.500
 T= 1482. Gap= 0.586 NK=0 IS=   19 IE=   57 IFin=   18
          NO(<0.9)=   0  NV(>0.1)=   0     18.00e < EF      0.00e >EF  Err=0.0D+00
 GapD=    0.089 DampG=0.500 DampE=0.500 DampFc=0.2500 IDamp=-1.
 Damping current iteration by 2.50D-01
 RMSDP=7.83D-03 MaxDP=1.68D-01 DE=-1.07D-02 OVMax= 4.63D-02

 Cycle   4  Pass 1  IDiag  1:
 E= -194.921718476580     Delta-E=       -0.009027340708 Rises=F Damp=T
 DIIS: error= 1.74D-02 at cycle   4 NSaved=   4.
 NSaved= 4 IEnMin= 4 EnMin= -194.921718476580     IErMin= 3 ErrMin= 1.71D-02
 ErrMax= 1.74D-02  0.00D+00 EMaxC= 1.00D+00 BMatC= 6.21D-02 BMatP= 6.80D-02
 IDIUse=1 WtCom= 1.00D+00 WtEn= 0.00D+00
 Coeff-Com: -0.173D-01-0.240D+01 0.201D+01 0.142D+01
 Coeff:     -0.173D-01-0.240D+01 0.201D+01 0.142D+01
 Gap=     0.052 Goal=   None    Shift=    0.500
 T= 1230. Gap= 0.550 NK=0 IS=   19 IE=   57 IFin=   18
          NO(<0.9)=   0  NV(>0.1)=   0     18.00e < EF      0.00e >EF  Err=0.0D+00
 Gap=     0.052 Goal=   None    Shift=    0.500
 T= 1230. Gap= 0.550 NK=0 IS=   19 IE=   57 IFin=   18
          NO(<0.9)=   0  NV(>0.1)=   0     18.00e < EF      0.00e >EF  Err=0.0D+00
 GapD=    0.052 DampG=0.500 DampE=0.500 DampFc=0.2500 IDamp=-1.
 Damping current iteration by 2.50D-01
 RMSDP=5.87D-03 MaxDP=1.24D-01 DE=-9.03D-03 OVMax= 1.41D-02

 Cycle   5  Pass 1  IDiag  1:
 E= -194.927528393141     Delta-E=       -0.005809916561 Rises=F Damp=T
 DIIS: error= 2.24D-02 at cycle   5 NSaved=   5.
 NSaved= 5 IEnMin= 5 EnMin= -194.927528393141     IErMin= 3 ErrMin= 1.71D-02
 ErrMax= 2.24D-02  0.00D+00 EMaxC= 1.00D+00 BMatC= 6.47D-02 BMatP= 6.21D-02
 IDIUse=1 WtCom= 1.00D+00 WtEn= 0.00D+00
 Coeff-Com: -0.993D-01-0.209D+01 0.304D+01-0.207D+01 0.221D+01
 Coeff:     -0.993D-01-0.209D+01 0.304D+01-0.207D+01 0.221D+01
 Gap=     0.050 Goal=   None    Shift=    0.500
 T= 1222. Gap= 0.551 NK=0 IS=   19 IE=   57 IFin=   18
          NO(<0.9)=   0  NV(>0.1)=   0     18.00e < EF      0.00e >EF  Err=0.0D+00
 Gap=     0.050 Goal=   None    Shift=    0.500
 T= 1222. Gap= 0.551 NK=0 IS=   19 IE=   57 IFin=   18
          NO(<0.9)=   0  NV(>0.1)=   0     18.00e < EF      0.00e >EF  Err=0.0D+00
 GapD=    0.050 DampG=0.500 DampE=0.500 DampFc=0.2500 IDamp=-1.
 Damping current iteration by 2.50D-01
 RMSDP=4.49D-03 MaxDP=8.92D-02 DE=-5.81D-03 OVMax= 1.60D-02

 Cycle   6  Pass 1  IDiag  1:
 E= -194.932775086823     Delta-E=       -0.005246693682 Rises=F Damp=T
 DIIS: error= 2.60D-02 at cycle   6 NSaved=   6.
 NSaved= 6 IEnMin= 6 EnMin= -194.932775086823     IErMin= 3 ErrMin= 1.71D-02
 ErrMax= 2.60D-02  0.00D+00 EMaxC= 1.00D+00 BMatC= 6.78D-02 BMatP= 6.21D-02
 IDIUse=1 WtCom= 1.00D+00 WtEn= 0.00D+00
 Large coefficients: NSaved=  6 BigCof=   20.84 CofMax=   10.00 Det=-6.54D-07
 Inversion failed.  Reducing to  5 matrices.
 Large coefficients: NSaved=  5 BigCof=   20.42 CofMax=   10.00 Det=-7.66D-07
 Inversion failed.  Reducing to  4 matrices.
 Large coefficients: NSaved=  4 BigCof=  122.23 CofMax=   10.00 Det=-2.62D-06
 Inversion failed.  Reducing to  3 matrices.
 Large coefficients: NSaved=  3 BigCof=   50.69 CofMax=   10.00 Det=-6.50D-06
 Inversion failed.  Reducing to  2 matrices.
 Coeff-Com:  0.207D+01-0.107D+01
 Coeff:      0.207D+01-0.107D+01
 Gap=     0.018 Goal=   None    Shift=    0.500
 T= 1222. Gap= 0.506 NK=0 IS=   19 IE=   57 IFin=   18
          NO(<0.9)=   0  NV(>0.1)=   0     18.00e < EF      0.00e >EF  Err=0.0D+00
 Gap=     0.018 Goal=   None    Shift=    0.500
 T= 1222. Gap= 0.506 NK=0 IS=   19 IE=   57 IFin=   18
          NO(<0.9)=   0  NV(>0.1)=   0     18.00e < EF      0.00e >EF  Err=0.0D+00
 GapD=    0.018 DampG=0.250 DampE=0.500 DampFc=0.1250 IDamp=-1.
 Damping current iteration by 1.25D-01
 RMSDP=1.85D-02 MaxDP=4.46D-01 DE=-5.25D-03 OVMax= 4.10D-02

 Cycle   7  Pass 1  IDiag  1:
 E= -194.940684246455     Delta-E=       -0.007909159633 Rises=F Damp=T
 DIIS: error= 1.57D-02 at cycle   7 NSaved=   3.
 NSaved= 3 IEnMin= 3 EnMin= -194.940684246455     IErMin= 3 ErrMin= 1.57D-02
 ErrMax= 1.57D-02  0.00D+00 EMaxC= 1.00D+00 BMatC= 2.53D-02 BMatP= 6.47D-02
 IDIUse=1 WtCom= 1.00D+00 WtEn= 0.00D+00
 Coeff-Com: -0.729D+00-0.859D+00 0.259D+01
 Coeff:     -0.729D+00-0.859D+00 0.259D+01
 Gap=     0.038 Goal=   None    Shift=    0.500
 T= 1200. Gap= 0.540 NK=0 IS=   19 IE=   57 IFin=   18
          NO(<0.9)=   0  NV(>0.1)=   0     18.00e < EF      0.00e >EF  Err=0.0D+00
 Gap=     0.038 Goal=   None    Shift=    0.500
 T= 1200. Gap= 0.540 NK=0 IS=   19 IE=   57 IFin=   18
          NO(<0.9)=   0  NV(>0.1)=   0     18.00e < EF      0.00e >EF  Err=0.0D+00
 GapD=    0.038 DampG=0.250 DampE=0.500 DampFc=0.1250 IDamp=-1.
 Damping current iteration by 1.25D-01
 RMSDP=6.83D-03 MaxDP=5.88D-02 DE=-7.91D-03 OVMax= 5.21D-02

 Cycle   8  Pass 1  IDiag  1:
 E= -194.946298876652     Delta-E=       -0.005614630197 Rises=F Damp=T
 DIIS: error= 1.52D-02 at cycle   8 NSaved=   4.
 NSaved= 4 IEnMin= 4 EnMin= -194.946298876652     IErMin= 4 ErrMin= 1.52D-02
 ErrMax= 1.52D-02  0.00D+00 EMaxC= 1.00D+00 BMatC= 2.25D-02 BMatP= 2.53D-02
 IDIUse=1 WtCom= 1.00D+00 WtEn= 0.00D+00
 Coeff-Com: -0.903D-01-0.130D+01 0.540D+00 0.185D+01
 Coeff:     -0.903D-01-0.130D+01 0.540D+00 0.185D+01
 Gap=     0.053 Goal=   None    Shift=    0.500
 T=  900. Gap= 0.553 NK=0 IS=   19 IE=   57 IFin=   18
          NO(<0.9)=   0  NV(>0.1)=   0     18.00e < EF      0.00e >EF  Err=0.0D+00
 Gap=     0.053 Goal=   None    Shift=    0.500
 T=  900. Gap= 0.553 NK=0 IS=   19 IE=   57 IFin=   18
          NO(<0.9)=   0  NV(>0.1)=   0     18.00e < EF      0.00e >EF  Err=0.0D+00
 GapD=    0.053 DampG=0.500 DampE=0.500 DampFc=0.2500 IDamp=-1.
 Damping current iteration by 2.50D-01
 RMSDP=5.66D-03 MaxDP=6.34D-02 DE=-5.61D-03 OVMax= 2.82D-02

 Cycle   9  Pass 1  IDiag  1:
 E= -194.956886508591     Delta-E=       -0.010587631939 Rises=F Damp=T
 DIIS: error= 1.56D-02 at cycle   9 NSaved=   5.
 NSaved= 5 IEnMin= 5 EnMin= -194.956886508591     IErMin= 4 ErrMin= 1.52D-02
 ErrMax= 1.56D-02  0.00D+00 EMaxC= 1.00D+00 BMatC= 2.20D-02 BMatP= 2.25D-02
 IDIUse=1 WtCom= 1.00D+00 WtEn= 0.00D+00
 Large coefficients: NSaved=  5 BigCof=   17.90 CofMax=   10.00 Det=-6.91D-07
 Inversion failed.  Reducing to  4 matrices.
 Large coefficients: NSaved=  4 BigCof=   14.19 CofMax=   10.00 Det=-8.38D-07
 Inversion failed.  Reducing to  3 matrices.
 Large coefficients: NSaved=  3 BigCof=   33.94 CofMax=   10.00 Det=-1.58D-05
 Inversion failed.  Reducing to  2 matrices.
 Coeff-Com: -0.382D+00 0.138D+01
 Coeff:     -0.382D+00 0.138D+01
 Gap=     0.028 Goal=   None    Shift=    0.500
 T=  600. Gap= 0.526 NK=0 IS=   19 IE=   57 IFin=   18
          NO(<0.9)=   0  NV(>0.1)=   0     18.00e < EF      0.00e >EF  Err=0.0D+00
 Gap=     0.028 Goal=   None    Shift=    0.500
 T=  600. Gap= 0.526 NK=0 IS=   19 IE=   57 IFin=   18
          NO(<0.9)=   0  NV(>0.1)=   0     18.00e < EF      0.00e >EF  Err=0.0D+00
 GapD=    0.028 DampG=0.250 DampE=0.500 DampFc=0.1250 IDamp=-1.
 Damping current iteration by 1.25D-01
 RMSDP=5.10D-03 MaxDP=4.33D-02 DE=-1.06D-02 OVMax= 3.08D-02

 Cycle  10  Pass 1  IDiag  1:
 E= -194.962283060457     Delta-E=       -0.005396551866 Rises=F Damp=T
 DIIS: error= 1.49D-02 at cycle  10 NSaved=   3.
 NSaved= 3 IEnMin= 3 EnMin= -194.962283060457     IErMin= 3 ErrMin= 1.49D-02
 ErrMax= 1.49D-02  0.00D+00 EMaxC= 1.00D+00 BMatC= 1.79D-02 BMatP= 2.20D-02
 IDIUse=1 WtCom= 1.00D+00 WtEn= 0.00D+00
 Large coefficients: NSaved=  3 BigCof=   10.06 CofMax=   10.00 Det=-9.42D-05
 Inversion failed.  Reducing to  2 matrices.
 Coeff-Com: -0.656D+01 0.756D+01
 Coeff:     -0.656D+01 0.756D+01
 Gap=     0.078 Goal=   None    Shift=    0.500
 T=  300. Gap= 0.578 NK=0 IS=   19 IE=   57 IFin=   18
          NO(<0.9)=   0  NV(>0.1)=   0     18.00e < EF      0.00e >EF  Err=0.0D+00
 Gap=     0.078 Goal=   None    Shift=    0.500
 T=  300. Gap= 0.578 NK=0 IS=   19 IE=   57 IFin=   18
          NO(<0.9)=   0  NV(>0.1)=   0     18.00e < EF      0.00e >EF  Err=0.0D+00
 GapD=    0.078 DampG=0.500 DampE=0.500 DampFc=0.2500 IDamp=-1.
 Damping current iteration by 2.50D-01
 RMSDP=5.07D-03 MaxDP=3.11D-02 DE=-5.40D-03 OVMax= 2.67D-02

 Cycle  11  Pass 1  IDiag  1:
 E= -194.973015913354     Delta-E=       -0.010732852897 Rises=F Damp=T
 DIIS: error= 1.25D-02 at cycle  11 NSaved=   3.
 NSaved= 3 IEnMin= 3 EnMin= -194.973015913354     IErMin= 3 ErrMin= 1.25D-02
 ErrMax= 1.25D-02  0.00D+00 EMaxC= 1.00D+00 BMatC= 1.08D-02 BMatP= 1.79D-02
 IDIUse=1 WtCom= 1.00D+00 WtEn= 0.00D+00
 Coeff-Com:  0.307D+01-0.778D+01 0.571D+01
 Coeff:      0.307D+01-0.778D+01 0.571D+01
 Gap=     0.103 Goal=   None    Shift=    0.500
 Gap=     0.103 Goal=   None    Shift=    0.500
 GapD=    0.103 DampG=1.000 DampE=0.500 DampFc=0.5000 IDamp=-1.
 Damping current iteration by 5.00D-01
 RMSDP=3.89D-03 MaxDP=2.31D-02 DE=-1.07D-02 OVMax= 1.13D-02

 Cycle  12  Pass 1  IDiag  1:
 E= -194.991697965577     Delta-E=       -0.018682052223 Rises=F Damp=T
 DIIS: error= 7.82D-03 at cycle  12 NSaved=   4.
 NSaved= 4 IEnMin= 4 EnMin= -194.991697965577     IErMin= 4 ErrMin= 7.82D-03
 ErrMax= 7.82D-03  0.00D+00 EMaxC= 1.00D+00 BMatC= 3.34D-03 BMatP= 1.08D-02
 IDIUse=1 WtCom= 1.00D+00 WtEn= 0.00D+00
 Coeff-Com:  0.161D+01-0.165D+01-0.159D+01 0.264D+01
 Coeff:      0.161D+01-0.165D+01-0.159D+01 0.264D+01
 Gap=     0.108 Goal=   None    Shift=    0.500
 Gap=     0.108 Goal=   None    Shift=    0.500
 GapD=    0.108 DampG=1.000 DampE=1.000 DampFc=1.0000 IDamp=-1.
 RMSDP=1.97D-03 MaxDP=1.21D-02 DE=-1.87D-02 OVMax= 7.31D-03

 Cycle  13  Pass 1  IDiag  1:
 E= -195.013716704998     Delta-E=       -0.022018739421 Rises=F Damp=F
 DIIS: error= 1.66D-03 at cycle  13 NSaved=   5.
 NSaved= 5 IEnMin= 5 EnMin= -195.013716704998     IErMin= 5 ErrMin= 1.66D-03
 ErrMax= 1.66D-03  0.00D+00 EMaxC= 1.00D+00 BMatC= 1.03D-04 BMatP= 3.34D-03
 IDIUse=1 WtCom= 1.00D+00 WtEn= 0.00D+00
 Coeff-Com: -0.498D+00 0.202D+01-0.201D+01 0.937D-01 0.140D+01
 Coeff:     -0.498D+00 0.202D+01-0.201D+01 0.937D-01 0.140D+01
 Gap=     0.108 Goal=   None    Shift=    0.500
 Gap=     0.108 Goal=   None    Shift=    0.500
 GapD=    0.108 DampG=1.000 DampE=1.000 DampFc=1.0000 IDamp=-1.
 RMSDP=1.65D-04 MaxDP=3.07D-03 DE=-2.20D-02 OVMax= 4.99D-03

 Cycle  14  Pass 1  IDiag  1:
 E= -195.013808337510     Delta-E=       -0.000091632513 Rises=F Damp=F
 DIIS: error= 9.33D-04 at cycle  14 NSaved=   6.
 NSaved= 6 IEnMin= 6 EnMin= -195.013808337510     IErMin= 6 ErrMin= 9.33D-04
 ErrMax= 9.33D-04  0.00D+00 EMaxC= 1.00D+00 BMatC= 2.91D-05 BMatP= 1.03D-04
 IDIUse=1 WtCom= 1.00D+00 WtEn= 0.00D+00
 Coeff-Com: -0.184D+00 0.466D+00-0.309D+00-0.691D-01-0.681D+00 0.178D+01
 Coeff:     -0.184D+00 0.466D+00-0.309D+00-0.691D-01-0.681D+00 0.178D+01
 Gap=     0.108 Goal=   None    Shift=    0.500
 Gap=     0.108 Goal=   None    Shift=    0.500
 RMSDP=9.55D-05 MaxDP=1.67D-03 DE=-9.16D-05 OVMax= 2.56D-03

 Cycle  15  Pass 1  IDiag  1:
 E= -195.013833312815     Delta-E=       -0.000024975305 Rises=F Damp=F
 DIIS: error= 5.80D-04 at cycle  15 NSaved=   7.
 NSaved= 7 IEnMin= 7 EnMin= -195.013833312815     IErMin= 7 ErrMin= 5.80D-04
 ErrMax= 5.80D-04  0.00D+00 EMaxC= 1.00D+00 BMatC= 1.06D-05 BMatP= 2.91D-05
 IDIUse=1 WtCom= 1.00D+00 WtEn= 0.00D+00
 Coeff-Com:  0.293D-01-0.113D+00 0.106D+00-0.188D-01-0.343D+00-0.156D+00
 Coeff-Com:  0.150D+01
 Coeff:      0.293D-01-0.113D+00 0.106D+00-0.188D-01-0.343D+00-0.156D+00
 Coeff:      0.150D+01
 Gap=     0.109 Goal=   None    Shift=    0.500
 Gap=     0.109 Goal=   None    Shift=    0.500
 RMSDP=4.96D-05 MaxDP=8.54D-04 DE=-2.50D-05 OVMax= 1.48D-03

 Cycle  16  Pass 1  IDiag  1:
 E= -195.013842035309     Delta-E=       -0.000008722494 Rises=F Damp=F
 DIIS: error= 3.75D-04 at cycle  16 NSaved=   8.
 NSaved= 8 IEnMin= 8 EnMin= -195.013842035309     IErMin= 8 ErrMin= 3.75D-04
 ErrMax= 3.75D-04  0.00D+00 EMaxC= 1.00D+00 BMatC= 3.90D-06 BMatP= 1.06D-05
 IDIUse=1 WtCom= 1.00D+00 WtEn= 0.00D+00
 Coeff-Com:  0.792D-01-0.145D+00 0.457D-01 0.312D-01 0.509D+00-0.152D+01
 Coeff-Com: -0.400D-01 0.204D+01
 Coeff:      0.792D-01-0.145D+00 0.457D-01 0.312D-01 0.509D+00-0.152D+01
 Coeff:     -0.400D-01 0.204D+01
 Gap=     0.109 Goal=   None    Shift=    0.500
 Gap=     0.109 Goal=   None    Shift=    0.500
 RMSDP=2.81D-05 MaxDP=4.90D-04 DE=-8.72D-06 OVMax= 9.92D-04

 Cycle  17  Pass 1  IDiag  1:
 E= -195.013845334274     Delta-E=       -0.000003298965 Rises=F Damp=F
 DIIS: error= 2.15D-04 at cycle  17 NSaved=   9.
 NSaved= 9 IEnMin= 9 EnMin= -195.013845334274     IErMin= 9 ErrMin= 2.15D-04
 ErrMax= 2.15D-04  0.00D+00 EMaxC= 1.00D+00 BMatC= 1.31D-06 BMatP= 3.90D-06
 IDIUse=1 WtCom= 1.00D+00 WtEn= 0.00D+00
 Coeff-Com: -0.513D-02 0.136D-01-0.199D-01 0.158D-01 0.155D+00-0.382D+00
 Coeff-Com:  0.228D+00-0.142D+01 0.241D+01
 Coeff:     -0.513D-02 0.136D-01-0.199D-01 0.158D-01 0.155D+00-0.382D+00
 Coeff:      0.228D+00-0.142D+01 0.241D+01
 Gap=     0.108 Goal=   None    Shift=    0.500
 Gap=     0.108 Goal=   None    Shift=    0.500
 RMSDP=1.49D-05 MaxDP=2.52D-04 DE=-3.30D-06 OVMax= 5.08D-04

 Cycle  18  Pass 1  IDiag  1:
 E= -195.013846326743     Delta-E=       -0.000000992468 Rises=F Damp=F
 DIIS: error= 1.34D-04 at cycle  18 NSaved=  10.
 NSaved=10 IEnMin=10 EnMin= -195.013846326743     IErMin=10 ErrMin= 1.34D-04
 ErrMax= 1.34D-04  0.00D+00 EMaxC= 1.00D+00 BMatC= 4.86D-07 BMatP= 1.31D-06
 IDIUse=1 WtCom= 1.00D+00 WtEn= 0.00D+00
 Coeff-Com: -0.297D-02 0.803D-02-0.293D-02-0.827D-02-0.588D-01 0.234D+00
 Coeff-Com: -0.883D-01-0.477D-01-0.182D+01 0.279D+01
 Coeff:     -0.297D-02 0.803D-02-0.293D-02-0.827D-02-0.588D-01 0.234D+00
 Coeff:     -0.883D-01-0.477D-01-0.182D+01 0.279D+01
 Gap=     0.108 Goal=   None    Shift=    0.500
 Gap=     0.108 Goal=   None    Shift=    0.500
 RMSDP=7.79D-06 MaxDP=1.42D-04 DE=-9.92D-07 OVMax= 3.08D-04

 Cycle  19  Pass 1  IDiag  1:
 E= -195.013846688984     Delta-E=       -0.000000362242 Rises=F Damp=F
 DIIS: error= 8.31D-05 at cycle  19 NSaved=  11.
 NSaved=11 IEnMin=11 EnMin= -195.013846688984     IErMin=11 ErrMin= 8.31D-05
 ErrMax= 8.31D-05  0.00D+00 EMaxC= 1.00D+00 BMatC= 1.85D-07 BMatP= 4.86D-07
 IDIUse=1 WtCom= 1.00D+00 WtEn= 0.00D+00
 Coeff-Com:  0.353D-02-0.842D-02 0.961D-02-0.841D-02 0.555D-02 0.651D-02
 Coeff-Com: -0.460D-01 0.207D+00 0.509D-01-0.243D+01 0.321D+01
 Coeff:      0.353D-02-0.842D-02 0.961D-02-0.841D-02 0.555D-02 0.651D-02
 Coeff:     -0.460D-01 0.207D+00 0.509D-01-0.243D+01 0.321D+01
 Gap=     0.108 Goal=   None    Shift=    0.500
 Gap=     0.108 Goal=   None    Shift=    0.500
 RMSDP=4.51D-06 MaxDP=8.33D-05 DE=-3.62D-07 OVMax= 1.87D-04

 Cycle  20  Pass 1  IDiag  1:
 E= -195.013846824182     Delta-E=       -0.000000135198 Rises=F Damp=F
 DIIS: error= 5.23D-05 at cycle  20 NSaved=  12.
 NSaved=12 IEnMin=12 EnMin= -195.013846824182     IErMin=12 ErrMin= 5.23D-05
 ErrMax= 5.23D-05  0.00D+00 EMaxC= 1.00D+00 BMatC= 7.34D-08 BMatP= 1.85D-07
 IDIUse=1 WtCom= 1.00D+00 WtEn= 0.00D+00
 Coeff-Com:  0.257D-02-0.291D-02 0.262D-02-0.647D-02 0.235D-01-0.491D-01
 Coeff-Com:  0.351D-01 0.831D-01-0.107D+00 0.157D-01-0.176D+01 0.277D+01
 Coeff:      0.257D-02-0.291D-02 0.262D-02-0.647D-02 0.235D-01-0.491D-01
 Coeff:      0.351D-01 0.831D-01-0.107D+00 0.157D-01-0.176D+01 0.277D+01
 Gap=     0.108 Goal=   None    Shift=    0.500
 Gap=     0.108 Goal=   None    Shift=    0.500
 RMSDP=2.77D-06 MaxDP=5.19D-05 DE=-1.35D-07 OVMax= 1.22D-04

 Cycle  21  Pass 1  IDiag  1:
 E= -195.013846877963     Delta-E=       -0.000000053781 Rises=F Damp=F
 DIIS: error= 3.14D-05 at cycle  21 NSaved=  13.
 NSaved=13 IEnMin=13 EnMin= -195.013846877963     IErMin=13 ErrMin= 3.14D-05
 ErrMax= 3.14D-05  0.00D+00 EMaxC= 1.00D+00 BMatC= 2.67D-08 BMatP= 7.34D-08
 IDIUse=1 WtCom= 1.00D+00 WtEn= 0.00D+00
 Coeff-Com:  0.354D-03-0.627D-03-0.524D-03 0.214D-02-0.218D-02-0.876D-02
 Coeff-Com:  0.151D-01 0.201D-01-0.341D-01 0.324D-01 0.584D+00-0.329D+01
 Coeff-Com:  0.368D+01
 Coeff:      0.354D-03-0.627D-03-0.524D-03 0.214D-02-0.218D-02-0.876D-02
 Coeff:      0.151D-01 0.201D-01-0.341D-01 0.324D-01 0.584D+00-0.329D+01
 Coeff:      0.368D+01
 Gap=     0.108 Goal=   None    Shift=    0.500
 Gap=     0.108 Goal=   None    Shift=    0.500
 RMSDP=1.60D-06 MaxDP=2.89D-05 DE=-5.38D-08 OVMax= 6.44D-05

 Cycle  22  Pass 1  IDiag  1:
 E= -195.013846895511     Delta-E=       -0.000000017548 Rises=F Damp=F
 DIIS: error= 2.10D-05 at cycle  22 NSaved=  14.
 NSaved=14 IEnMin=14 EnMin= -195.013846895511     IErMin=14 ErrMin= 2.10D-05
 ErrMax= 2.10D-05  0.00D+00 EMaxC= 1.00D+00 BMatC= 1.23D-08 BMatP= 2.67D-08
 IDIUse=1 WtCom= 1.00D+00 WtEn= 0.00D+00
 Coeff-Com:  0.315D-03-0.535D-03 0.633D-04 0.176D-03-0.291D-02 0.102D-01
 Coeff-Com: -0.103D-01-0.110D-01 0.134D+00-0.518D+00 0.135D+01-0.190D+01
 Coeff-Com: -0.657D+00 0.261D+01
 Coeff:      0.315D-03-0.535D-03 0.633D-04 0.176D-03-0.291D-02 0.102D-01
 Coeff:     -0.103D-01-0.110D-01 0.134D+00-0.518D+00 0.135D+01-0.190D+01
 Coeff:     -0.657D+00 0.261D+01
 Gap=     0.108 Goal=   None    Shift=    0.500
 Gap=     0.108 Goal=   None    Shift=    0.500
 RMSDP=1.02D-06 MaxDP=1.86D-05 DE=-1.75D-08 OVMax= 4.60D-05

 Cycle  23  Pass 1  IDiag  1:
 E= -195.013846903552     Delta-E=       -0.000000008041 Rises=F Damp=F
 DIIS: error= 1.31D-05 at cycle  23 NSaved=  15.
 NSaved=15 IEnMin=15 EnMin= -195.013846903552     IErMin=15 ErrMin= 1.31D-05
 ErrMax= 1.31D-05  0.00D+00 EMaxC= 1.00D+00 BMatC= 4.82D-09 BMatP= 1.23D-08
 IDIUse=1 WtCom= 1.00D+00 WtEn= 0.00D+00
 Coeff-Com:  0.158D-03-0.191D-03 0.608D-04-0.109D-03 0.350D-03-0.385D-02
 Coeff-Com:  0.211D-02 0.390D-01-0.106D+00 0.128D+00-0.135D+00 0.258D+00
 Coeff-Com:  0.307D+00-0.319D+01 0.370D+01
 Coeff:      0.158D-03-0.191D-03 0.608D-04-0.109D-03 0.350D-03-0.385D-02
 Coeff:      0.211D-02 0.390D-01-0.106D+00 0.128D+00-0.135D+00 0.258D+00
 Coeff:      0.307D+00-0.319D+01 0.370D+01
 Gap=     0.108 Goal=   None    Shift=    0.500
 Gap=     0.108 Goal=   None    Shift=    0.500
 RMSDP=6.18D-07 MaxDP=1.16D-05 DE=-8.04D-09 OVMax= 2.80D-05

 SCF Done:  E(ULC-wHPBE) =  -195.013846904     A.U. after   23 cycles
            NFock= 23  Conv=0.62D-06     -V/T= 2.0154
 <Sx>= 0.0000 <Sy>= 0.0000 <Sz>= 0.0000 <S**2>=-0.0000 S=-0.0000
 <L.S>= 0.000000000000E+00
 KE= 1.920565850859D+02 PE=-7.387911582029D+02 EE= 2.066988264203D+02
 Annihilation of the first spin contaminant:
 S**2 before annihilation    -0.0000,   after    -0.0000
 Leave Link  502 at Thu Mar  5 12:42:30 2020, MaxMem=  6710886400 cpu:              40.0 elap:               2.6
 (Enter /opt/ohpc/pub/libs/gaussian/g16-A.03/sandybridge/g16/l508.exe)
 QCSCF skips out because SCF is already converged.
 Leave Link  508 at Thu Mar  5 12:42:30 2020, MaxMem=  6710886400 cpu:               0.1 elap:               0.0
 (Enter /opt/ohpc/pub/libs/gaussian/g16-A.03/sandybridge/g16/l601.exe)
 Copying SCF densities to generalized density rwf, IOpCl= 1 IROHF=0.

 **********************************************************************

            Population analysis using the SCF density.

 **********************************************************************

 Orbital symmetries:
 Alpha Orbitals:
       Occupied  (B2) (A1) (B2) (A1) (A1) (A1) (B2) (A1) (B2) (A1)
                 (A1) (B2) (B2) (A1) (B1) (A1) (A2) (B1)
       Virtual   (A1) (B2) (A2) (A1) (B1) (B2) (A1) (B2) (A1) (A1)
                 (B2) (A1) (B2) (B2) (B1) (A2) (B1) (A1) (A1) (B2)
                 (A1) (A2) (A1) (B1) (B2) (A1) (B2) (A1) (B2) (A1)
                 (A1) (A1) (B2) (A1) (B2) (B2) (A1) (A1) (B2)
 Beta  Orbitals:
       Occupied  (B2) (A1) (B2) (A1) (A1) (A1) (B2) (A1) (B2) (A1)
                 (A1) (B2) (B2) (A1) (B1) (A1) (A2) (B1)
       Virtual   (A1) (B2) (A2) (A1) (B1) (B2) (A1) (B2) (A1) (A1)
                 (B2) (A1) (B2) (B2) (B1) (A2) (B1) (A1) (A1) (B2)
                 (A1) (A2) (A1) (B1) (B2) (A1) (B2) (A1) (B2) (A1)
                 (A1) (A1) (B2) (A1) (B2) (B2) (A1) (A1) (B2)
 The electronic state is 1-A1.
 Alpha  occ. eigenvalues --  -10.12455 -10.12454 -10.08047 -10.08047 -10.02582
 Alpha  occ. eigenvalues --   -0.91266  -0.83406  -0.75442  -0.66413  -0.60503
 Alpha  occ. eigenvalues --   -0.58898  -0.52089  -0.47566  -0.44710  -0.42876
 Alpha  occ. eigenvalues --   -0.42011  -0.33894  -0.24044
 Alpha virt. eigenvalues --   -0.13207  -0.08863   0.01697   0.12381   0.12702
 Alpha virt. eigenvalues --    0.16158   0.20028   0.20978   0.22554   0.33172
 Alpha virt. eigenvalues --    0.34477   0.42507   0.43549   0.54702   0.54820
 Alpha virt. eigenvalues --    0.63536   0.63823   0.64762   0.65415   0.67241
 Alpha virt. eigenvalues --    0.67796   0.69483   0.72793   0.73086   0.73956
 Alpha virt. eigenvalues --    0.80973   0.86607   0.88619   0.91190   0.93183
 Alpha virt. eigenvalues --    0.97733   1.00272   1.02535   1.08498   1.14805
 Alpha virt. eigenvalues --    1.20237   1.24225   1.48009   1.48737
  Beta  occ. eigenvalues --  -10.12455 -10.12454 -10.08047 -10.08047 -10.02582
  Beta  occ. eigenvalues --   -0.91266  -0.83406  -0.75442  -0.66413  -0.60503
  Beta  occ. eigenvalues --   -0.58898  -0.52089  -0.47566  -0.44710  -0.42876
  Beta  occ. eigenvalues --   -0.42011  -0.33894  -0.24044
  Beta virt. eigenvalues --   -0.13207  -0.08863   0.01697   0.12381   0.12702
  Beta virt. eigenvalues --    0.16158   0.20028   0.20978   0.22554   0.33172
  Beta virt. eigenvalues --    0.34477   0.42507   0.43549   0.54702   0.54820
  Beta virt. eigenvalues --    0.63536   0.63823   0.64762   0.65415   0.67241
  Beta virt. eigenvalues --    0.67796   0.69483   0.72793   0.73086   0.73956
  Beta virt. eigenvalues --    0.80973   0.86607   0.88619   0.91190   0.93183
  Beta virt. eigenvalues --    0.97733   1.00272   1.02535   1.08498   1.14805
  Beta virt. eigenvalues --    1.20237   1.24225   1.48009   1.48737
          Condensed to atoms (all electrons):
               1          2          3          4          5          6
     1  C    5.295901   0.512564  -0.078909  -0.040319   0.146037   0.115571
     2  C    0.512564   4.909573   0.544423  -0.052439  -0.040319  -0.002590
     3  C   -0.078909   0.544423   4.896754   0.544423  -0.078909  -0.000526
     4  C   -0.040319  -0.052439   0.544423   4.909573   0.512564  -0.002590
     5  C    0.146037  -0.040319  -0.078909   0.512564   5.295901   0.115571
     6  H    0.115571  -0.002590  -0.000526  -0.002590   0.115571   0.664733
     7  H    0.351613  -0.037075   0.002995   0.000872  -0.003818  -0.008862
     8  H   -0.034897   0.356220  -0.014421   0.004417   0.000520   0.000208
     9  H    0.005531  -0.039844   0.370870  -0.039844   0.005531  -0.000004
    10  H    0.000520   0.004417  -0.014421   0.356220  -0.034897   0.000208
    11  H   -0.003818   0.000872   0.002995  -0.037075   0.351613  -0.008862
               7          8          9         10         11
     1  C    0.351613  -0.034897   0.005531   0.000520  -0.003818
     2  C   -0.037075   0.356220  -0.039844   0.004417   0.000872
     3  C    0.002995  -0.014421   0.370870  -0.014421   0.002995
     4  C    0.000872   0.004417  -0.039844   0.356220  -0.037075
     5  C   -0.003818   0.000520   0.005531  -0.034897   0.351613
     6  H   -0.008862   0.000208  -0.000004   0.000208  -0.008862
     7  H    0.508273   0.000968  -0.000156  -0.000012   0.000046
     8  H    0.000968   0.489522  -0.004007  -0.000099  -0.000012
     9  H   -0.000156  -0.004007   0.580227  -0.004007  -0.000156
    10  H   -0.000012  -0.000099  -0.004007   0.489522   0.000968
    11  H    0.000046  -0.000012  -0.000156   0.000968   0.508273
          Atomic-Atomic Spin Densities.
               1          2          3          4          5          6
     1  C   -0.000000   0.000000  -0.000000   0.000000  -0.000000  -0.000000
     2  C    0.000000   0.000000  -0.000000   0.000000   0.000000   0.000000
     3  C   -0.000000  -0.000000  -0.000000  -0.000000  -0.000000  -0.000000
     4  C    0.000000   0.000000  -0.000000   0.000000   0.000000   0.000000
     5  C   -0.000000   0.000000  -0.000000   0.000000  -0.000000  -0.000000
     6  H   -0.000000   0.000000  -0.000000   0.000000  -0.000000   0.000000
     7  H   -0.000000  -0.000000   0.000000  -0.000000   0.000000   0.000000
     8  H   -0.000000   0.000000  -0.000000  -0.000000  -0.000000   0.000000
     9  H    0.000000  -0.000000  -0.000000  -0.000000   0.000000  -0.000000
    10  H   -0.000000  -0.000000  -0.000000   0.000000  -0.000000   0.000000
    11  H    0.000000  -0.000000   0.000000  -0.000000  -0.000000   0.000000
               7          8          9         10         11
     1  C   -0.000000  -0.000000   0.000000  -0.000000   0.000000
     2  C   -0.000000   0.000000  -0.000000  -0.000000  -0.000000
     3  C    0.000000  -0.000000  -0.000000  -0.000000   0.000000
     4  C   -0.000000  -0.000000  -0.000000   0.000000  -0.000000
     5  C    0.000000  -0.000000   0.000000  -0.000000  -0.000000
     6  H    0.000000   0.000000  -0.000000   0.000000   0.000000
     7  H    0.000000  -0.000000  -0.000000   0.000000  -0.000000
     8  H   -0.000000   0.000000  -0.000000   0.000000   0.000000
     9  H   -0.000000  -0.000000   0.000000  -0.000000  -0.000000
    10  H    0.000000   0.000000  -0.000000   0.000000  -0.000000
    11  H   -0.000000   0.000000  -0.000000  -0.000000   0.000000
 Mulliken charges and spin densities:
               1          2
     1  C   -0.269795  -0.000000
     2  C   -0.155804   0.000000
     3  C   -0.175274  -0.000000
     4  C   -0.155804   0.000000
     5  C   -0.269795  -0.000000
     6  H    0.127143   0.000000
     7  H    0.185155  -0.000000
     8  H    0.201581   0.000000
     9  H    0.125857  -0.000000
    10  H    0.201581   0.000000
    11  H    0.185155  -0.000000
 Sum of Mulliken charges =  -0.00000   0.00000
 Mulliken charges and spin densities with hydrogens summed into heavy atoms:
               1          2
     1  C    0.042503  -0.000000
     2  C    0.045777   0.000000
     3  C   -0.049418  -0.000000
     4  C    0.045777   0.000000
     5  C   -0.084640  -0.000000
 Electronic spatial extent (au):  <R**2>=            395.1054
 Charge=             -0.0000 electrons
 Dipole moment (field-independent basis, Debye):
    X=             -0.0000    Y=              0.0000    Z=             -1.1793  Tot=              1.1793
 Quadrupole moment (field-independent basis, Debye-Ang):
   XX=            -36.3817   YY=            -23.0850   ZZ=            -23.9775
   XY=              0.0000   XZ=             -0.0000   YZ=              0.0000
 Traceless Quadrupole moment (field-independent basis, Debye-Ang):
   XX=             -8.5670   YY=              4.7298   ZZ=              3.8372
   XY=              0.0000   XZ=             -0.0000   YZ=              0.0000
 Octapole moment (field-independent basis, Debye-Ang**2):
  XXX=              0.0000  YYY=              0.0000  ZZZ=            -11.1965  XYY=              0.0000
  XXY=             -0.0000  XXZ=              2.6295  XZZ=              0.0000  YZZ=             -0.0000
  YYZ=              1.5316  XYZ=             -0.0000
 Hexadecapole moment (field-independent basis, Debye-Ang**3):
 XXXX=            -39.4273 YYYY=           -231.8590 ZZZZ=           -176.8774 XXXY=             -0.0000
 XXXZ=             -0.0000 YYYX=             -0.0000 YYYZ=             -0.0000 ZZZX=             -0.0000
 ZZZY=              0.0000 XXYY=            -61.4690 XXZZ=            -52.2456 YYZZ=            -70.7447
 XXYZ=             -0.0000 YYXZ=             -0.0000 ZZXY=             -0.0000
 N-N= 1.450218997931D+02 E-N=-7.387909841046D+02  KE= 1.920565850859D+02
 Symmetry A1   KE= 1.103103292393D+02
 Symmetry A2   KE= 2.332402232986D+00
 Symmetry B1   KE= 4.348789932035D+00
 Symmetry B2   KE= 7.506506368162D+01
 Symmetry A1   SP= 1.676372865014D-15
 Symmetry A2   SP=-1.832169732451D-15
 Symmetry B1   SP=-9.853097926244D-15
 Symmetry B2   SP= 4.190028983240D-14
                          Isotropic Fermi Contact Couplings
        Atom                 a.u.       MegaHertz       Gauss      10(-4) cm-1
     1  C(13)              0.00000       0.00000       0.00000       0.00000
     2  C(13)              0.00000       0.00000       0.00000       0.00000
     3  C(13)             -0.00000      -0.00000      -0.00000      -0.00000
     4  C(13)              0.00000       0.00000       0.00000       0.00000
     5  C(13)              0.00000       0.00000       0.00000       0.00000
     6  H(1)               0.00000       0.00000       0.00000       0.00000
     7  H(1)               0.00000       0.00000       0.00000       0.00000
     8  H(1)               0.00000       0.00000       0.00000       0.00000
     9  H(1)               0.00000       0.00000       0.00000       0.00000
    10  H(1)               0.00000       0.00000       0.00000       0.00000
    11  H(1)               0.00000       0.00000       0.00000       0.00000
 --------------------------------------------------------
       Center         ----  Spin Dipole Couplings  ----
                      3XX-RR        3YY-RR        3ZZ-RR
 --------------------------------------------------------
     1   Atom        0.000000      0.000000      0.000000
     2   Atom        0.000000      0.000000      0.000000
     3   Atom        0.000000      0.000000      0.000000
     4   Atom        0.000000      0.000000      0.000000
     5   Atom        0.000000      0.000000      0.000000
     6   Atom        0.000000      0.000000      0.000000
     7   Atom        0.000000      0.000000      0.000000
     8   Atom        0.000000      0.000000      0.000000
     9   Atom        0.000000      0.000000      0.000000
    10   Atom        0.000000      0.000000      0.000000
    11   Atom        0.000000      0.000000      0.000000
 --------------------------------------------------------
                        XY            XZ            YZ
 --------------------------------------------------------
     1   Atom        0.000000      0.000000      0.000000
     2   Atom        0.000000      0.000000      0.000000
     3   Atom        0.000000      0.000000      0.000000
     4   Atom        0.000000      0.000000      0.000000
     5   Atom        0.000000      0.000000      0.000000
     6   Atom        0.000000      0.000000      0.000000
     7   Atom        0.000000      0.000000      0.000000
     8   Atom        0.000000      0.000000      0.000000
     9   Atom        0.000000      0.000000      0.000000
    10   Atom        0.000000      0.000000      0.000000
    11   Atom        0.000000      0.000000      0.000000
 --------------------------------------------------------


 ---------------------------------------------------------------------------------
              Anisotropic Spin Dipole Couplings in Principal Axis System
 ---------------------------------------------------------------------------------

       Atom             a.u.   MegaHertz   Gauss  10(-4) cm-1        Axes

              Baa     0.0000     0.000     0.000     0.000  1.0000  0.0000  0.0000
     1 C(13)  Bbb     0.0000     0.000     0.000     0.000 -0.0000  1.0000  0.0000
              Bcc     0.0000     0.000     0.000     0.000  0.0000  0.0000  1.0000
 
              Baa     0.0000     0.000     0.000     0.000  1.0000  0.0000  0.0000
     2 C(13)  Bbb     0.0000     0.000     0.000     0.000 -0.0000  1.0000  0.0000
              Bcc     0.0000     0.000     0.000     0.000  0.0000  0.0000  1.0000
 
              Baa     0.0000     0.000     0.000     0.000  1.0000  0.0000  0.0000
     3 C(13)  Bbb     0.0000     0.000     0.000     0.000 -0.0000  1.0000  0.0000
              Bcc     0.0000     0.000     0.000     0.000  0.0000  0.0000  1.0000
 
              Baa     0.0000     0.000     0.000     0.000  1.0000  0.0000  0.0000
     4 C(13)  Bbb     0.0000     0.000     0.000     0.000 -0.0000  1.0000  0.0000
              Bcc     0.0000     0.000     0.000     0.000  0.0000  0.0000  1.0000
 
              Baa     0.0000     0.000     0.000     0.000  1.0000  0.0000  0.0000
     5 C(13)  Bbb     0.0000     0.000     0.000     0.000 -0.0000  1.0000  0.0000
              Bcc     0.0000     0.000     0.000     0.000  0.0000  0.0000  1.0000
 
              Baa     0.0000     0.000     0.000     0.000  1.0000  0.0000  0.0000
     6 H(1)   Bbb     0.0000     0.000     0.000     0.000 -0.0000  1.0000  0.0000
              Bcc     0.0000     0.000     0.000     0.000  0.0000  0.0000  1.0000
 
              Baa     0.0000     0.000     0.000     0.000  1.0000  0.0000  0.0000
     7 H(1)   Bbb     0.0000     0.000     0.000     0.000 -0.0000  1.0000  0.0000
              Bcc     0.0000     0.000     0.000     0.000  0.0000  0.0000  1.0000
 
              Baa     0.0000     0.000     0.000     0.000  1.0000  0.0000  0.0000
     8 H(1)   Bbb     0.0000     0.000     0.000     0.000 -0.0000  1.0000  0.0000
              Bcc     0.0000     0.000     0.000     0.000  0.0000  0.0000  1.0000
 
              Baa     0.0000     0.000     0.000     0.000  1.0000  0.0000  0.0000
     9 H(1)   Bbb     0.0000     0.000     0.000     0.000 -0.0000  1.0000  0.0000
              Bcc     0.0000     0.000     0.000     0.000  0.0000  0.0000  1.0000
 
              Baa     0.0000     0.000     0.000     0.000  1.0000  0.0000  0.0000
    10 H(1)   Bbb     0.0000     0.000     0.000     0.000 -0.0000  1.0000  0.0000
              Bcc     0.0000     0.000     0.000     0.000  0.0000  0.0000  1.0000
 
              Baa     0.0000     0.000     0.000     0.000  1.0000  0.0000  0.0000
    11 H(1)   Bbb     0.0000     0.000     0.000     0.000 -0.0000  1.0000  0.0000
              Bcc     0.0000     0.000     0.000     0.000  0.0000  0.0000  1.0000
 

 ---------------------------------------------------------------------------------

 No NMR shielding tensors so no spin-rotation constants.
 Leave Link  601 at Thu Mar  5 12:42:30 2020, MaxMem=  6710886400 cpu:               2.8 elap:               0.2
 (Enter /opt/ohpc/pub/libs/gaussian/g16-A.03/sandybridge/g16/l9999.exe)

 Test job not archived.
 1\1\GINC-CNODE212\SP\ULC-wHPBE\6-31G\C5H6\SMGO234\05-Mar-2020\0\\#P uL
 C-wHPBE/6-31G iop(3/130=0393800000, 3/131=0393800000, 3/119=0606200000
 , 3/120=0606200000) scf=(conver=6,fermi,ndamp=35,noincfock,novaracc,vs
 hift=500,xqc)\\H6 C5\\0,1\C,0,-1.206512,0.69658,0.\C,0,-1.206512,-0.69
 658,0.\C,0,0.,-1.39316,0.\C,0,1.206512,-0.69658,0.\C,0,1.206512,0.6965
 8,0.\H,0,0.,2.482681,0.\H,0,-2.150065,1.24134,0.\H,0,-2.150065,-1.2413
 4,0.\H,0,0.,-2.482681,0.\H,0,2.150065,-1.24134,0.\H,0,2.150065,1.24134
 ,0.\\Version=EM64L-G16RevA.03\State=1-A1\HF=-195.0138469\S2=0.\S2-1=0.
 \S2A=0.\RMSD=6.185e-07\Dipole=0.,0.4639686,0.\Quadrupole=3.516465,2.85
 28799,-6.3693448,0.,0.,0.\PG=C02V [C2(H1C1H1),SGV(C4H4)]\\@


 THE TEST OF A FIRST RATE INTELLIGENCE IS THE ABILITY TO HOLD TWO OPPOSED
 IDEAS IN THE MIND AT THE SAME TIME, AND STILL RETAIN THE ABILITY TO FUNCTION.
 ONE SHOULD, FOR EXAMPLE, BE ABLE TO SEE THAT THINGS ARE HOPELESS AND YET BE
 DETERMINED TO MAKE THEM OTHERWISE.

                                                       -- F. SCOTT FITZGERALD
 Job cpu time:       0 days  0 hours  1 minutes  9.9 seconds.
 Elapsed time:       0 days  0 hours  0 minutes  4.9 seconds.
 File lengths (MBytes):  RWF=    272 Int=      0 D2E=      0 Chk=     32 Scr=     32
 Normal termination of Gaussian 16 at Thu Mar  5 12:42:30 2020.
