 Entering Gaussian System, Link 0=g16
 Input=a1b_tune_n0.gjf
 Output=a1b_tune_n0.log
 Initial command:
 /opt/ohpc/pub/libs/gaussian/g16-A.03/sandybridge/g16/l1.exe "/scratch/smgo234/Ocelot/test/a1b/tuning_a1b_acycle0/Gau-70017.inp" -scrdir="/scratch/smgo234/Ocelot/test/a1b/tuning_a1b_acycle0/"
 Entering Link 1 = /opt/ohpc/pub/libs/gaussian/g16-A.03/sandybridge/g16/l1.exe PID=     70018.
  
 Copyright (c) 1988,1990,1992,1993,1995,1998,2003,2009,2016,
            Gaussian, Inc.  All Rights Reserved.
  
 This is part of the Gaussian(R) 16 program.  It is based on
 the Gaussian(R) 09 system (copyright 2009, Gaussian, Inc.),
 the Gaussian(R) 03 system (copyright 2003, Gaussian, Inc.),
 the Gaussian(R) 98 system (copyright 1998, Gaussian, Inc.),
 the Gaussian(R) 94 system (copyright 1995, Gaussian, Inc.),
 the Gaussian 92(TM) system (copyright 1992, Gaussian, Inc.),
 the Gaussian 90(TM) system (copyright 1990, Gaussian, Inc.),
 the Gaussian 88(TM) system (copyright 1988, Gaussian, Inc.),
 the Gaussian 86(TM) system (copyright 1986, Carnegie Mellon
 University), and the Gaussian 82(TM) system (copyright 1983,
 Carnegie Mellon University). Gaussian is a federally registered
 trademark of Gaussian, Inc.
  
 This software contains proprietary and confidential information,
 including trade secrets, belonging to Gaussian, Inc.
  
 This software is provided under written license and may be
 used, copied, transmitted, or stored only in accord with that
 written license.
  
 The following legend is applicable only to US Government
 contracts under FAR:
  
                    RESTRICTED RIGHTS LEGEND
  
 Use, reproduction and disclosure by the US Government is
 subject to restrictions as set forth in subparagraphs (a)
 and (c) of the Commercial Computer Software - Restricted
 Rights clause in FAR 52.227-19.
  
 Gaussian, Inc.
 340 Quinnipiac St., Bldg. 40, Wallingford CT 06492
  
  
 ---------------------------------------------------------------
 Warning -- This program may not be used in any manner that
 competes with the business of Gaussian, Inc. or will provide
 assistance to any competitor of Gaussian, Inc.  The licensee
 of this program is prohibited from giving any competitor of
 Gaussian, Inc. access to this program.  By using this program,
 the user acknowledges that Gaussian, Inc. is engaged in the
 business of creating and licensing software in the field of
 computational chemistry and represents and warrants to the
 licensee that it is not a competitor of Gaussian, Inc. and that
 it will not use this program in any manner prohibited above.
 ---------------------------------------------------------------
  

 Cite this work as:
 Gaussian 16, Revision A.03,
 M. J. Frisch, G. W. Trucks, H. B. Schlegel, G. E. Scuseria, 
 M. A. Robb, J. R. Cheeseman, G. Scalmani, V. Barone, 
 G. A. Petersson, H. Nakatsuji, X. Li, M. Caricato, A. V. Marenich, 
 J. Bloino, B. G. Janesko, R. Gomperts, B. Mennucci, H. P. Hratchian, 
 J. V. Ortiz, A. F. Izmaylov, J. L. Sonnenberg, D. Williams-Young, 
 F. Ding, F. Lipparini, F. Egidi, J. Goings, B. Peng, A. Petrone, 
 T. Henderson, D. Ranasinghe, V. G. Zakrzewski, J. Gao, N. Rega, 
 G. Zheng, W. Liang, M. Hada, M. Ehara, K. Toyota, R. Fukuda, 
 J. Hasegawa, M. Ishida, T. Nakajima, Y. Honda, O. Kitao, H. Nakai, 
 T. Vreven, K. Throssell, J. A. Montgomery, Jr., J. E. Peralta, 
 F. Ogliaro, M. J. Bearpark, J. J. Heyd, E. N. Brothers, K. N. Kudin, 
 V. N. Staroverov, T. A. Keith, R. Kobayashi, J. Normand, 
 K. Raghavachari, A. P. Rendell, J. C. Burant, S. S. Iyengar, 
 J. Tomasi, M. Cossi, J. M. Millam, M. Klene, C. Adamo, R. Cammi, 
 J. W. Ochterski, R. L. Martin, K. Morokuma, O. Farkas, 
 J. B. Foresman, and D. J. Fox, Gaussian, Inc., Wallingford CT, 2016.
 
 ******************************************
 Gaussian 16:  EM64L-G16RevA.03 25-Dec-2016
                 5-Mar-2020 
 ******************************************
 %mem=50GB
 %nproc=16
 Will use up to   16 processors via shared memory.
 ----------------------------------------------------------------------
 #P uLC-wHPBE/6-31G iop(3/130=0221900000, 3/131=0221900000, 3/119=07781
 00000, 3/120=0778100000) scf=(conver=6,fermi,ndamp=35,noincfock,novara
 cc,vshift=500,xqc)
 ----------------------------------------------------------------------
 1/38=1,172=1/1;
 2/12=2,17=6,18=5,40=1/2;
 3/5=1,6=6,11=2,25=1,30=1,74=-71,116=2,119=778100000,120=778100000,130=221900000,131=221900000/1,2,3;
 4//1;
 5/5=100002,6=6,8=3,10=500,13=1,18=-1,22=13,38=1,93=35/2,8;
 6/7=2,8=2,9=2,10=2,28=1/1;
 99/5=1,9=1/99;
 Leave Link    1 at Thu Mar  5 12:35:49 2020, MaxMem=  6710886400 cpu:              14.9 elap:               1.0
 (Enter /opt/ohpc/pub/libs/gaussian/g16-A.03/sandybridge/g16/l101.exe)
 -----
 H6 C5
 -----
 Symbolic Z-matrix:
 Charge =  0 Multiplicity = 1
 C                    -1.20651   0.69658   0. 
 C                    -1.20651  -0.69658   0. 
 C                     0.       -1.39316   0. 
 C                     1.20651  -0.69658   0. 
 C                     1.20651   0.69658   0. 
 H                     0.        2.48268   0. 
 H                    -2.15007   1.24134   0. 
 H                    -2.15007  -1.24134   0. 
 H                     0.       -2.48268   0. 
 H                     2.15007  -1.24134   0. 
 H                     2.15007   1.24134   0. 
 
 ITRead=  0  0  0  0  0  0  0  0  0  0  0
 MicOpt= -1 -1 -1 -1 -1 -1 -1 -1 -1 -1 -1
 NAtoms=     11 NQM=       11 NQMF=       0 NMMI=      0 NMMIF=      0
                NMic=       0 NMicF=      0.
                    Isotopes and Nuclear Properties:
 (Nuclear quadrupole moments (NQMom) in fm**2, nuclear magnetic moments (NMagM)
  in nuclear magnetons)

  Atom         1           2           3           4           5           6           7           8           9          10
 IAtWgt=          12          12          12          12          12           1           1           1           1           1
 AtmWgt=  12.0000000  12.0000000  12.0000000  12.0000000  12.0000000   1.0078250   1.0078250   1.0078250   1.0078250   1.0078250
 NucSpn=           0           0           0           0           0           1           1           1           1           1
 AtZEff=  -0.0000000  -0.0000000  -0.0000000  -0.0000000  -0.0000000  -0.0000000  -0.0000000  -0.0000000  -0.0000000  -0.0000000
 NQMom=    0.0000000   0.0000000   0.0000000   0.0000000   0.0000000   0.0000000   0.0000000   0.0000000   0.0000000   0.0000000
 NMagM=    0.0000000   0.0000000   0.0000000   0.0000000   0.0000000   2.7928460   2.7928460   2.7928460   2.7928460   2.7928460
 AtZNuc=   6.0000000   6.0000000   6.0000000   6.0000000   6.0000000   1.0000000   1.0000000   1.0000000   1.0000000   1.0000000

  Atom        11
 IAtWgt=           1
 AtmWgt=   1.0078250
 NucSpn=           1
 AtZEff=  -0.0000000
 NQMom=    0.0000000
 NMagM=    2.7928460
 AtZNuc=   1.0000000
 Leave Link  101 at Thu Mar  5 12:35:49 2020, MaxMem=  6710886400 cpu:               2.5 elap:               0.2
 (Enter /opt/ohpc/pub/libs/gaussian/g16-A.03/sandybridge/g16/l202.exe)
                          Input orientation:                          
 ---------------------------------------------------------------------
 Center     Atomic      Atomic             Coordinates (Angstroms)
 Number     Number       Type             X           Y           Z
 ---------------------------------------------------------------------
      1          6           0       -1.206512    0.696580    0.000000
      2          6           0       -1.206512   -0.696580    0.000000
      3          6           0        0.000000   -1.393160    0.000000
      4          6           0        1.206512   -0.696580    0.000000
      5          6           0        1.206512    0.696580    0.000000
      6          1           0        0.000000    2.482681    0.000000
      7          1           0       -2.150065    1.241340    0.000000
      8          1           0       -2.150065   -1.241340    0.000000
      9          1           0        0.000000   -2.482681    0.000000
     10          1           0        2.150065   -1.241340    0.000000
     11          1           0        2.150065    1.241340    0.000000
 ---------------------------------------------------------------------
                    Distance matrix (angstroms):
                    1          2          3          4          5
     1  C    0.000000
     2  C    1.393160   0.000000
     3  C    2.413024   1.393160   0.000000
     4  C    2.786320   2.413024   1.393160   0.000000
     5  C    2.413024   2.786320   2.413024   1.393160   0.000000
     6  H    2.155418   3.400496   3.875841   3.400496   2.155418
     7  H    1.089521   2.155418   3.400496   3.875841   3.400496
     8  H    2.155418   1.089521   2.155418   3.400496   3.875841
     9  H    3.400496   2.155418   1.089521   2.155418   3.400496
    10  H    3.875841   3.400496   2.155418   1.089521   2.155418
    11  H    3.400496   3.875841   3.400496   2.155418   1.089521
                    6          7          8          9         10
     6  H    0.000000
     7  H    2.482681   0.000000
     8  H    4.300129   2.482680   0.000000
     9  H    4.965362   4.300129   2.482681   0.000000
    10  H    4.300129   4.965362   4.300130   2.482681   0.000000
    11  H    2.482681   4.300130   4.965362   4.300129   2.482680
                   11
    11  H    0.000000
 Stoichiometry    C5H6
 Framework group  C2V[C2(HCH),SGV(C4H4)]
 Deg. of freedom    10
 Full point group                 C2V     NOp   4
 Largest Abelian subgroup         C2V     NOp   4
 Largest concise Abelian subgroup C2      NOp   2
                         Standard orientation:                         
 ---------------------------------------------------------------------
 Center     Atomic      Atomic             Coordinates (Angstroms)
 Number     Number       Type             X           Y           Z
 ---------------------------------------------------------------------
      1          6           0       -0.000000    1.206512   -0.928773
      2          6           0       -0.000000    1.206512    0.464387
      3          6           0        0.000000    0.000000    1.160967
      4          6           0       -0.000000   -1.206512    0.464387
      5          6           0       -0.000000   -1.206512   -0.928773
      6          1           0       -0.000000   -0.000000   -2.714874
      7          1           0       -0.000000    2.150065   -1.473533
      8          1           0       -0.000000    2.150065    1.009147
      9          1           0        0.000000    0.000000    2.250488
     10          1           0       -0.000000   -2.150065    1.009147
     11          1           0       -0.000000   -2.150065   -1.473533
 ---------------------------------------------------------------------
 Rotational constants (GHZ):           8.2868568           5.7099792           3.3806054
 Leave Link  202 at Thu Mar  5 12:35:50 2020, MaxMem=  6710886400 cpu:               0.7 elap:               0.1
 (Enter /opt/ohpc/pub/libs/gaussian/g16-A.03/sandybridge/g16/l301.exe)
 Standard basis: 6-31G (6D, 7F)
 Ernie: Thresh=  0.10000D-02 Tol=  0.10000D-05 Strict=F.
 There are    27 symmetry adapted cartesian basis functions of A1  symmetry.
 There are     4 symmetry adapted cartesian basis functions of A2  symmetry.
 There are     6 symmetry adapted cartesian basis functions of B1  symmetry.
 There are    20 symmetry adapted cartesian basis functions of B2  symmetry.
 There are    27 symmetry adapted basis functions of A1  symmetry.
 There are     4 symmetry adapted basis functions of A2  symmetry.
 There are     6 symmetry adapted basis functions of B1  symmetry.
 There are    20 symmetry adapted basis functions of B2  symmetry.
    57 basis functions,   134 primitive gaussians,    57 cartesian basis functions
    18 alpha electrons       18 beta electrons
       nuclear repulsion energy       145.0218997931 Hartrees.
 IExCor=33909 DFT=T Ex+Corr=LC-wHPBE ExCW=0 ScaHFX=  1.000000
 ScaDFX=  1.000000  1.000000  1.000000  1.000000 ScalE2=  1.000000  1.000000
 IRadAn=      5 IRanWt=     -1 IRanGd=            0 ICorTp=0 IEmpDi=  4
 HFx  wShort=  0.000000 wLong=  0.400000 cFull=  0.000000 cShort=  0.000000 cLong= -0.778100
 DFx  wShort=  0.000000 wLong=  0.400000 cFull=  0.000000 cShort=  1.000000 cLong= -0.778100
 NAtoms=   11 NActive=   11 NUniq=    7 SFac= 2.47D+00 NAtFMM=   60 NAOKFM=F Big=F
 Integral buffers will be    131072 words long.
 Raffenetti 2 integral format.
 Two-electron integral symmetry is turned on.
 Leave Link  301 at Thu Mar  5 12:35:50 2020, MaxMem=  6710886400 cpu:               1.4 elap:               0.1
 (Enter /opt/ohpc/pub/libs/gaussian/g16-A.03/sandybridge/g16/l302.exe)
 NPDir=0 NMtPBC=     1 NCelOv=     1 NCel=       1 NClECP=     1 NCelD=      1
         NCelK=      1 NCelE2=     1 NClLst=     1 CellRange=     0.0.
 One-electron integrals computed using PRISM.
 One-electron integral symmetry used in STVInt
 NBasis=    57 RedAO= T EigKep=  2.88D-03  NBF=    27     4     6    20
 NBsUse=    57 1.00D-06 EigRej= -1.00D+00 NBFU=    27     4     6    20
 Precomputing XC quadrature grid using
 IXCGrd= 4 IRadAn=           5 IRanWt=          -1 IRanGd=           0 AccXCQ= 0.00D+00.
 Generated NRdTot=       0 NPtTot=           0 NUsed=           0 NTot=          32
 NSgBfM=    57    57    57    57    57 MxSgAt=    11 MxSgA2=    11.
 Leave Link  302 at Thu Mar  5 12:35:51 2020, MaxMem=  6710886400 cpu:               3.6 elap:               0.4
 (Enter /opt/ohpc/pub/libs/gaussian/g16-A.03/sandybridge/g16/l303.exe)
 DipDrv:  MaxL=1.
 Leave Link  303 at Thu Mar  5 12:35:51 2020, MaxMem=  6710886400 cpu:               0.6 elap:               0.1
 (Enter /opt/ohpc/pub/libs/gaussian/g16-A.03/sandybridge/g16/l401.exe)
 ExpMin= 1.61D-01 ExpMax= 3.05D+03 ExpMxC= 4.57D+02 IAcc=3 IRadAn=         5 AccDes= 0.00D+00
 Harris functional with IExCor=33909 and IRadAn=       5 diagonalized for initial guess.
 HarFok:  IExCor=33909 AccDes= 0.00D+00 IRadAn=         5 IDoV= 1 UseB2=F ITyADJ=14
 ICtDFT=  3500011 ScaDFX=  1.000000  1.000000  1.000000  1.000000
 FoFCou: FMM=F IPFlag=           0 FMFlag=      100000 FMFlg1=           0
         NFxFlg=           0 DoJE=T BraDBF=F KetDBF=T FulRan=T
         wScrn=  0.000000 ICntrl=       500 IOpCl=  0 I1Cent=   200000004 NGrid=           0
         NMat0=    1 NMatS0=      1 NMatT0=    0 NMatD0=    1 NMtDS0=    0 NMtDT0=    0
 Petite list used in FoFCou.
 Harris En= -181.220813437962    
 JPrj=0 DoOrth=F DoCkMO=F.
 Initial guess orbital symmetries:
 Alpha Orbitals:
       Occupied  (A1) (B2) (A1) (B2) (A1) (A1) (B2) (A1) (B2) (A1)
                 (A1) (B2) (B2) (A1) (B1) (A1) (A2) (B1)
       Virtual   (B2) (A1) (A2) (B1) (A1) (B2) (A1) (B2) (A1) (A1)
                 (B2) (A1) (B2) (B1) (B2) (B1) (A2) (A1) (A1) (B2)
                 (A1) (A2) (B1) (B2) (A1) (A1) (B2) (A1) (B2) (A1)
                 (A1) (B2) (A1) (A1) (B2) (B2) (A1) (A1) (B2)
 Beta  Orbitals:
       Occupied  (A1) (B2) (A1) (B2) (A1) (A1) (B2) (A1) (B2) (A1)
                 (A1) (B2) (B2) (A1) (B1) (A1) (A2) (B1)
       Virtual   (B2) (A1) (A2) (B1) (A1) (B2) (A1) (B2) (A1) (A1)
                 (B2) (A1) (B2) (B1) (B2) (B1) (A2) (A1) (A1) (B2)
                 (A1) (A2) (B1) (B2) (A1) (A1) (B2) (A1) (B2) (A1)
                 (A1) (B2) (A1) (A1) (B2) (B2) (A1) (A1) (B2)
 The electronic state of the initial guess is 1-A1.
 Initial guess <Sx>= 0.0000 <Sy>= 0.0000 <Sz>= 0.0000 <S**2>=-0.0000 S=-0.0000
 Leave Link  401 at Thu Mar  5 12:35:52 2020, MaxMem=  6710886400 cpu:               4.4 elap:               0.4
 (Enter /opt/ohpc/pub/libs/gaussian/g16-A.03/sandybridge/g16/l502.exe)
 Keep R1 and R2 ints in memory in symmetry-blocked form, NReq=16815659.
 FoFCou: FMM=F IPFlag=           0 FMFlag=           0 FMFlg1=           0
         NFxFlg=           0 DoJE=F BraDBF=F KetDBF=F FulRan=T
         wScrn=  0.000000 ICntrl=       600 IOpCl=  0 I1Cent=           0 NGrid=           0
         NMat0=    1 NMatS0=   1653 NMatT0=    0 NMatD0=    1 NMtDS0=    0 NMtDT0=    0
 Petite list used in FoFCou.
 UHF open shell SCF:
 Using DIIS extrapolation, IDIIS=    10.
 NGot=  6710886400 LenX=  6710059583 LenY=  6710055893
 Requested convergence on RMS density matrix=1.00D-06 within  32 cycles.
 Requested convergence on MAX density matrix=1.00D-04.
 Requested convergence on             energy=1.00D-04.
 Virtual orbitals will be shifted by   0.500 hartree.
 No special actions if energy rises.
 Dynamic level shift is on during FON iterations.

 Cycle   1  Pass 1  IDiag  1:
 E= -175.531944704519    
 DIIS: error= 5.00D-02 at cycle   1 NSaved=   1.
 NSaved= 1 IEnMin= 1 EnMin= -175.531944704519     IErMin= 1 ErrMin= 5.00D-02
 ErrMax= 5.00D-02  0.00D+00 EMaxC= 1.00D+00 BMatC= 4.65D-01 BMatP= 4.65D-01
 IDIUse=1 WtCom= 1.00D+00 WtEn= 0.00D+00
 Coeff-Com:  0.100D+01
 Coeff:      0.100D+01
 Gap=     0.003 Goal=   None    Shift=    0.500
 T= 1803. Gap= 0.416 NK=0 IS=   19 IE=   57 IFin=   18
          NO(<0.9)=   0  NV(>0.1)=   0     18.00e < EF      0.00e >EF  Err=0.0D+00
 Gap=     0.003 Goal=   None    Shift=    0.500
 T= 1803. Gap= 0.416 NK=0 IS=   19 IE=   57 IFin=   18
          NO(<0.9)=   0  NV(>0.1)=   0     18.00e < EF      0.00e >EF  Err=0.0D+00
 GapD=    0.003 DampG=0.250 DampE=0.500 DampFc=0.1250 IDamp=-1.
 Damping current iteration by 1.25D-01
 RMSDP=1.24D-01 MaxDP=1.20D+00              OVMax= 1.59D-01

 Cycle   2  Pass 1  IDiag  1:
 E= -175.670727150598     Delta-E=       -0.138782446079 Rises=F Damp=T
 DIIS: error= 2.91D-02 at cycle   2 NSaved=   2.
 NSaved= 2 IEnMin= 2 EnMin= -175.670727150598     IErMin= 2 ErrMin= 2.91D-02
 ErrMax= 2.91D-02  0.00D+00 EMaxC= 1.00D+00 BMatC= 1.62D-01 BMatP= 4.65D-01
 IDIUse=1 WtCom= 1.00D+00 WtEn= 0.00D+00
 Coeff-Com: -0.122D+01 0.222D+01
 Coeff:     -0.122D+01 0.222D+01
 Gap=     0.011 Goal=   None    Shift=    0.500
 T= 1713. Gap= 0.347 NK=0 IS=   19 IE=   57 IFin=   18
          NO(<0.9)=   0  NV(>0.1)=   0     18.00e < EF      0.00e >EF  Err=0.0D+00
 Gap=     0.011 Goal=   None    Shift=    0.500
 T= 1713. Gap= 0.347 NK=0 IS=   19 IE=   57 IFin=   18
          NO(<0.9)=   0  NV(>0.1)=   0     18.00e < EF      0.00e >EF  Err=0.0D+00
 GapD=    0.011 DampG=0.250 DampE=0.500 DampFc=0.1250 IDamp=-1.
 Damping current iteration by 1.25D-01
 RMSDP=4.72D-02 MaxDP=6.03D-01 DE=-1.39D-01 OVMax= 1.31D-01

 Cycle   3  Pass 1  IDiag  1:
 E= -175.649798727678     Delta-E=        0.020928422920 Rises=F Damp=T
 DIIS: error= 1.34D-02 at cycle   3 NSaved=   3.
 NSaved= 3 IEnMin= 2 EnMin= -175.670727150598     IErMin= 3 ErrMin= 1.34D-02
 ErrMax= 1.34D-02  0.00D+00 EMaxC= 1.00D+00 BMatC= 4.05D-02 BMatP= 1.62D-01
 IDIUse=1 WtCom= 1.00D+00 WtEn= 0.00D+00
 Coeff-Com: -0.717D+00 0.113D+01 0.590D+00
 Coeff:     -0.717D+00 0.113D+01 0.590D+00
 Gap=     0.002 Goal=   None    Shift=    0.000
 T= 1513. Gap= 0.008 NK=0 IS=    1 IE=   57 IFin=   21
          NO(<0.9)=   1  NV(>0.1)=   1     17.69e < EF      0.31e >EF  Err=3.6D-15
 Gap=     0.002 Goal=   None    Shift=    0.000
 T= 1513. Gap= 0.008 NK=0 IS=    1 IE=   57 IFin=   21
          NO(<0.9)=   1  NV(>0.1)=   1     17.69e < EF      0.31e >EF  Err=3.6D-15
 GapD=    0.002 DampG=0.250 DampE=0.500 DampFc=0.1250 IDamp=-1.
 Damping current iteration by 1.25D-01
 RMSDP=3.08D-02 MaxDP=4.84D-01 DE= 2.09D-02 OVMax= 2.93D-01

 Cycle   4  Pass 1  IDiag  1:
 E= -175.691041986371     Delta-E=       -0.041243258693 Rises=F Damp=T
 DIIS: error= 9.42D-03 at cycle   4 NSaved=   4.
 NSaved= 4 IEnMin= 4 EnMin= -175.691041986371     IErMin= 4 ErrMin= 9.42D-03
 ErrMax= 9.42D-03  0.00D+00 EMaxC= 1.00D+00 BMatC= 2.12D-02 BMatP= 4.05D-02
 IDIUse=1 WtCom= 1.00D+00 WtEn= 0.00D+00
 Coeff-Com: -0.472D+00 0.689D+00-0.424D+00 0.121D+01
 Coeff:     -0.472D+00 0.689D+00-0.424D+00 0.121D+01
 Gap=     0.002 Goal=   None    Shift=    0.500
 T= 1167. Gap= 0.473 NK=0 IS=   19 IE=   57 IFin=   18
          NO(<0.9)=   0  NV(>0.1)=   0     18.00e < EF      0.00e >EF  Err=0.0D+00
 Gap=     0.002 Goal=   None    Shift=    0.500
 T= 1167. Gap= 0.473 NK=0 IS=   19 IE=   57 IFin=   18
          NO(<0.9)=   0  NV(>0.1)=   0     18.00e < EF      0.00e >EF  Err=0.0D+00
 GapD=    0.002 DampG=0.250 DampE=1.000 DampFc=0.2500 IDamp=-1.
 Damping current iteration by 2.50D-01
 RMSDP=2.97D-02 MaxDP=4.52D-01 DE=-4.12D-02 OVMax= 3.45D-02

 Cycle   5  Pass 1  IDiag  1:
 E= -175.713820779342     Delta-E=       -0.022778792970 Rises=F Damp=T
 DIIS: error= 1.89D-02 at cycle   5 NSaved=   5.
 NSaved= 5 IEnMin= 5 EnMin= -175.713820779342     IErMin= 4 ErrMin= 9.42D-03
 ErrMax= 1.89D-02  0.00D+00 EMaxC= 1.00D+00 BMatC= 2.77D-02 BMatP= 2.12D-02
 IDIUse=1 WtCom= 1.00D+00 WtEn= 0.00D+00
 Coeff-Com: -0.496D+00 0.731D+00 0.124D+01-0.174D+01 0.126D+01
 Coeff:     -0.496D+00 0.731D+00 0.124D+01-0.174D+01 0.126D+01
 Gap=     0.011 Goal=   None    Shift=    0.500
 T= 1036. Gap= 0.511 NK=0 IS=   19 IE=   57 IFin=   18
          NO(<0.9)=   0  NV(>0.1)=   0     18.00e < EF      0.00e >EF  Err=0.0D+00
 Gap=     0.011 Goal=   None    Shift=    0.500
 T= 1036. Gap= 0.511 NK=0 IS=   19 IE=   57 IFin=   18
          NO(<0.9)=   0  NV(>0.1)=   0     18.00e < EF      0.00e >EF  Err=0.0D+00
 GapD=    0.011 DampG=0.250 DampE=0.500 DampFc=0.1250 IDamp=-1.
 Damping current iteration by 1.25D-01
 RMSDP=2.99D-02 MaxDP=3.26D-01 DE=-2.28D-02 OVMax= 3.69D-02

 Cycle   6  Pass 1  IDiag  1:
 E= -175.735830910536     Delta-E=       -0.022010131195 Rises=F Damp=T
 DIIS: error= 2.01D-02 at cycle   6 NSaved=   6.
 NSaved= 6 IEnMin= 6 EnMin= -175.735830910536     IErMin= 4 ErrMin= 9.42D-03
 ErrMax= 2.01D-02  0.00D+00 EMaxC= 1.00D+00 BMatC= 2.18D-02 BMatP= 2.12D-02
 IDIUse=1 WtCom= 1.00D+00 WtEn= 0.00D+00
 Coeff-Com: -0.519D+00 0.788D+00 0.449D+00-0.606D+00-0.466D+00 0.135D+01
 Coeff:     -0.519D+00 0.788D+00 0.449D+00-0.606D+00-0.466D+00 0.135D+01
 Gap=     0.018 Goal=   None    Shift=    0.500
 T= 1036. Gap= 0.519 NK=0 IS=   19 IE=   57 IFin=   18
          NO(<0.9)=   0  NV(>0.1)=   0     18.00e < EF      0.00e >EF  Err=0.0D+00
 Gap=     0.018 Goal=   None    Shift=    0.500
 T= 1036. Gap= 0.519 NK=0 IS=   19 IE=   57 IFin=   18
          NO(<0.9)=   0  NV(>0.1)=   0     18.00e < EF      0.00e >EF  Err=0.0D+00
 GapD=    0.018 DampG=0.250 DampE=0.500 DampFc=0.1250 IDamp=-1.
 Damping current iteration by 1.25D-01
 RMSDP=1.72D-02 MaxDP=2.75D-01 DE=-2.20D-02 OVMax= 4.68D-02

 Cycle   7  Pass 1  IDiag  1:
 E= -175.748383532021     Delta-E=       -0.012552621485 Rises=F Damp=T
 DIIS: error= 2.16D-02 at cycle   7 NSaved=   7.
 NSaved= 7 IEnMin= 7 EnMin= -175.748383532021     IErMin= 4 ErrMin= 9.42D-03
 ErrMax= 2.16D-02  0.00D+00 EMaxC= 1.00D+00 BMatC= 2.21D-02 BMatP= 2.12D-02
 IDIUse=1 WtCom= 1.00D+00 WtEn= 0.00D+00
 Coeff-Com: -0.483D+00 0.435D+00 0.567D-01 0.627D+00-0.113D+00-0.186D+01
 Coeff-Com:  0.233D+01
 Coeff:     -0.483D+00 0.435D+00 0.567D-01 0.627D+00-0.113D+00-0.186D+01
 Coeff:      0.233D+01
 Gap=     0.015 Goal=   None    Shift=    0.500
 T= 1036. Gap= 0.506 NK=0 IS=   19 IE=   57 IFin=   18
          NO(<0.9)=   0  NV(>0.1)=   0     18.00e < EF      0.00e >EF  Err=0.0D+00
 Gap=     0.015 Goal=   None    Shift=    0.500
 T= 1036. Gap= 0.506 NK=0 IS=   19 IE=   57 IFin=   18
          NO(<0.9)=   0  NV(>0.1)=   0     18.00e < EF      0.00e >EF  Err=0.0D+00
 GapD=    0.015 DampG=0.250 DampE=0.500 DampFc=0.1250 IDamp=-1.
 Damping current iteration by 1.25D-01
 RMSDP=3.08D-02 MaxDP=4.00D-01 DE=-1.26D-02 OVMax= 1.53D-02

 Cycle   8  Pass 1  IDiag  1:
 E= -175.752986534718     Delta-E=       -0.004603002697 Rises=F Damp=T
 DIIS: error= 1.18D-02 at cycle   8 NSaved=   8.
 NSaved= 8 IEnMin= 8 EnMin= -175.752986534718     IErMin= 4 ErrMin= 9.42D-03
 ErrMax= 1.18D-02  0.00D+00 EMaxC= 1.00D+00 BMatC= 7.54D-03 BMatP= 2.12D-02
 IDIUse=1 WtCom= 1.00D+00 WtEn= 0.00D+00
 Coeff-Com: -0.149D+00 0.811D-02-0.422D+00 0.139D+01-0.592D+00-0.156D+01
 Coeff-Com:  0.142D+01 0.893D+00
 Coeff:     -0.149D+00 0.811D-02-0.422D+00 0.139D+01-0.592D+00-0.156D+01
 Coeff:      0.142D+01 0.893D+00
 Gap=     0.015 Goal=   None    Shift=    0.500
 T=  900. Gap= 0.513 NK=0 IS=   19 IE=   57 IFin=   18
          NO(<0.9)=   0  NV(>0.1)=   0     18.00e < EF      0.00e >EF  Err=0.0D+00
 Gap=     0.015 Goal=   None    Shift=    0.500
 T=  900. Gap= 0.513 NK=0 IS=   19 IE=   57 IFin=   18
          NO(<0.9)=   0  NV(>0.1)=   0     18.00e < EF      0.00e >EF  Err=0.0D+00
 GapD=    0.015 DampG=0.250 DampE=0.500 DampFc=0.1250 IDamp=-1.
 Damping current iteration by 1.25D-01
 RMSDP=1.91D-02 MaxDP=3.56D-01 DE=-4.60D-03 OVMax= 1.45D-02

 Cycle   9  Pass 1  IDiag  1:
 E= -175.750119491449     Delta-E=        0.002867043269 Rises=F Damp=T
 DIIS: error= 6.82D-03 at cycle   9 NSaved=   9.
 NSaved= 9 IEnMin= 8 EnMin= -175.752986534718     IErMin= 9 ErrMin= 6.82D-03
 ErrMax= 6.82D-03  0.00D+00 EMaxC= 1.00D+00 BMatC= 7.39D-03 BMatP= 7.54D-03
 IDIUse=1 WtCom= 1.00D+00 WtEn= 0.00D+00
 Coeff-Com: -0.254D+00 0.254D+00-0.772D+00 0.175D+01-0.124D+01-0.130D+01
 Coeff-Com:  0.240D+01-0.157D+01 0.173D+01
 Coeff:     -0.254D+00 0.254D+00-0.772D+00 0.175D+01-0.124D+01-0.130D+01
 Coeff:      0.240D+01-0.157D+01 0.173D+01
 Gap=     0.006 Goal=   None    Shift=    0.000
 T=  600. Gap= 0.004 NK=0 IS=   17 IE=   57 IFin=   20
          NO(<0.9)=   2  NV(>0.1)=   1     17.62e < EF      0.38e >EF  Err=7.1D-15
 Gap=     0.006 Goal=   None    Shift=    0.000
 T=  600. Gap= 0.004 NK=0 IS=   17 IE=   57 IFin=   20
          NO(<0.9)=   2  NV(>0.1)=   1     17.62e < EF      0.38e >EF  Err=0.0D+00
 GapD=    0.006 DampG=0.250 DampE=1.000 DampFc=0.2500 IDamp=-1.
 Damping current iteration by 2.50D-01
 RMSDP=1.97D-02 MaxDP=2.32D-01 DE= 2.87D-03 OVMax= 4.19D-02

 Cycle  10  Pass 1  IDiag  1:
 E= -175.707534871464     Delta-E=        0.042584619985 Rises=F Damp=T
 DIIS: error= 1.22D-02 at cycle  10 NSaved=  10.
 NSaved=10 IEnMin= 8 EnMin= -175.752986534718     IErMin= 9 ErrMin= 6.82D-03
 ErrMax= 1.22D-02  0.00D+00 EMaxC= 1.00D+00 BMatC= 2.14D-02 BMatP= 7.39D-03
 IDIUse=1 WtCom= 1.00D+00 WtEn= 0.00D+00
 Coeff-Com: -0.277D+00 0.266D+00-0.849D+00 0.191D+01-0.133D+01-0.146D+01
 Coeff-Com:  0.300D+01-0.201D+01 0.138D+01 0.371D+00
 Coeff:     -0.277D+00 0.266D+00-0.849D+00 0.191D+01-0.133D+01-0.146D+01
 Coeff:      0.300D+01-0.201D+01 0.138D+01 0.371D+00
 Gap=     0.002 Goal=   None    Shift=    0.000
 T=  300. Gap= 0.002 NK=0 IS=   17 IE=   57 IFin=   20
          NO(<0.9)=   1  NV(>0.1)=   1     17.76e < EF      0.24e >EF  Err=0.0D+00
 Gap=     0.002 Goal=   None    Shift=    0.000
 T=  300. Gap= 0.002 NK=0 IS=   17 IE=   57 IFin=   20
          NO(<0.9)=   1  NV(>0.1)=   1     17.76e < EF      0.24e >EF  Err=3.6D-15
 GapD=    0.002 DampG=0.250 DampE=0.500 DampFc=0.1250 IDamp=-1.
 Damping current iteration by 1.25D-01
 RMSDP=1.55D-02 MaxDP=2.52D-01 DE= 4.26D-02 OVMax= 8.14D-03

 Cycle  11  Pass 1  IDiag  1:
 E= -175.672129284745     Delta-E=        0.035405586720 Rises=F Damp=T
 DIIS: error= 1.51D-02 at cycle  11 NSaved=  11.
 NSaved=11 IEnMin= 8 EnMin= -175.752986534718     IErMin= 9 ErrMin= 6.82D-03
 ErrMax= 1.51D-02  0.00D+00 EMaxC= 1.00D+00 BMatC= 3.39D-02 BMatP= 7.39D-03
 IDIUse=1 WtCom= 1.00D+00 WtEn= 0.00D+00
 Coeff-Com: -0.253D+00 0.269D+00-0.260D-01 0.425D+00-0.792D+00-0.144D+01
 Coeff-Com:  0.366D+01-0.287D+01-0.116D+00 0.498D+01-0.284D+01
 Coeff:     -0.253D+00 0.269D+00-0.260D-01 0.425D+00-0.792D+00-0.144D+01
 Coeff:      0.366D+01-0.287D+01-0.116D+00 0.498D+01-0.284D+01
 Gap=     0.008 Goal=   None    Shift=    0.000
 Gap=     0.008 Goal=   None    Shift=    0.000
 GapD=    0.008 DampG=0.250 DampE=0.500 DampFc=0.1250 IDamp=-1.
 Damping current iteration by 1.25D-01
 RMSDP=1.83D-02 MaxDP=2.26D-01 DE= 3.54D-02 OVMax= 1.98D-02

 Cycle  12  Pass 1  IDiag  1:
 E= -175.661171143108     Delta-E=        0.010958141637 Rises=F Damp=T
 DIIS: error= 1.82D-02 at cycle  12 NSaved=  12.
 NSaved=12 IEnMin= 8 EnMin= -175.752986534718     IErMin= 9 ErrMin= 6.82D-03
 ErrMax= 1.82D-02  0.00D+00 EMaxC= 1.00D+00 BMatC= 4.14D-02 BMatP= 7.39D-03
 IDIUse=1 WtCom= 1.00D+00 WtEn= 0.00D+00
 Coeff-Com: -0.245D+00 0.267D+00-0.112D+00 0.564D+00-0.105D+01-0.112D+01
 Coeff-Com:  0.373D+01-0.323D+01-0.151D+00 0.552D+01-0.340D+01 0.224D+00
 Coeff:     -0.245D+00 0.267D+00-0.112D+00 0.564D+00-0.105D+01-0.112D+01
 Coeff:      0.373D+01-0.323D+01-0.151D+00 0.552D+01-0.340D+01 0.224D+00
 Gap=     0.009 Goal=   None    Shift=    0.000
 Gap=     0.009 Goal=   None    Shift=    0.000
 GapD=    0.009 DampG=0.250 DampE=0.500 DampFc=0.1250 IDamp=-1.
 Damping current iteration by 1.25D-01
 RMSDP=1.60D-02 MaxDP=1.98D-01 DE= 1.10D-02 OVMax= 2.78D-03

 Cycle  13  Pass 1  IDiag  1:
 E= -175.643032620529     Delta-E=        0.018138522579 Rises=F Damp=T
 DIIS: error= 2.11D-02 at cycle  13 NSaved=  13.
 NSaved=13 IEnMin= 8 EnMin= -175.752986534718     IErMin= 9 ErrMin= 6.82D-03
 ErrMax= 2.11D-02  0.00D+00 EMaxC= 1.00D+00 BMatC= 5.15D-02 BMatP= 7.39D-03
 IDIUse=1 WtCom= 1.00D+00 WtEn= 0.00D+00
 Coeff-Com: -0.240D+00 0.257D+00-0.170D+00 0.670D+00-0.111D+01-0.110D+01
 Coeff-Com:  0.376D+01-0.324D+01-0.211D-01 0.499D+01-0.431D+01 0.302D+01
 Coeff-Com: -0.150D+01
 Coeff:     -0.240D+00 0.257D+00-0.170D+00 0.670D+00-0.111D+01-0.110D+01
 Coeff:      0.376D+01-0.324D+01-0.211D-01 0.499D+01-0.431D+01 0.302D+01
 Coeff:     -0.150D+01
 Gap=     0.010 Goal=   None    Shift=    0.000
 Gap=     0.010 Goal=   None    Shift=    0.000
 GapD=    0.010 DampG=0.250 DampE=0.500 DampFc=0.1250 IDamp=-1.
 Damping current iteration by 1.25D-01
 RMSDP=1.40D-02 MaxDP=1.73D-01 DE= 1.81D-02 OVMax= 1.37D-03

 Cycle  14  Pass 1  IDiag  1:
 E= -175.620701817718     Delta-E=        0.022330802811 Rises=F Damp=T
 DIIS: error= 2.39D-02 at cycle  14 NSaved=  14.
 NSaved=14 IEnMin= 8 EnMin= -175.752986534718     IErMin= 9 ErrMin= 6.82D-03
 ErrMax= 2.39D-02  0.00D+00 EMaxC= 1.00D+00 BMatC= 6.30D-02 BMatP= 7.39D-03
 IDIUse=1 WtCom= 1.00D+00 WtEn= 0.00D+00
 Coeff-Com: -0.233D+00 0.246D+00-0.174D+00 0.682D+00-0.112D+01-0.109D+01
 Coeff-Com:  0.371D+01-0.320D+01-0.336D-02 0.492D+01-0.544D+01 0.712D+01
 Coeff-Com: -0.622D+01 0.180D+01
 Coeff:     -0.233D+00 0.246D+00-0.174D+00 0.682D+00-0.112D+01-0.109D+01
 Coeff:      0.371D+01-0.320D+01-0.336D-02 0.492D+01-0.544D+01 0.712D+01
 Coeff:     -0.622D+01 0.180D+01
 Gap=     0.010 Goal=   None    Shift=    0.000
 Gap=     0.010 Goal=   None    Shift=    0.000
 GapD=    0.010 DampG=0.250 DampE=0.500 DampFc=0.1250 IDamp=-1.
 Damping current iteration by 1.25D-01
 RMSDP=1.23D-02 MaxDP=1.51D-01 DE= 2.23D-02 OVMax= 1.22D-03

 Cycle  15  Pass 1  IDiag  1:
 E= -175.596225462096     Delta-E=        0.024476355622 Rises=F Damp=T
 DIIS: error= 2.65D-02 at cycle  15 NSaved=  15.
 NSaved=15 IEnMin= 8 EnMin= -175.752986534718     IErMin= 9 ErrMin= 6.82D-03
 ErrMax= 2.65D-02  0.00D+00 EMaxC= 1.00D+00 BMatC= 7.52D-02 BMatP= 7.39D-03
 IDIUse=1 WtCom= 1.00D+00 WtEn= 0.00D+00
 Large coefficients: NSaved= 15 BigCof=   69.05 CofMax=   10.00 Det=-3.77D-09
 Inversion failed.  Reducing to 14 matrices.
 Large coefficients: NSaved= 14 BigCof=   79.03 CofMax=   10.00 Det=-4.56D-09
 Inversion failed.  Reducing to 13 matrices.
 Large coefficients: NSaved= 13 BigCof=   81.95 CofMax=   10.00 Det=-1.34D-08
 Inversion failed.  Reducing to 12 matrices.
 Large coefficients: NSaved= 12 BigCof=   82.50 CofMax=   10.00 Det=-1.34D-08
 Inversion failed.  Reducing to 11 matrices.
 Coeff-Com: -0.115D+00 0.509D+00-0.109D+01-0.870D+00 0.330D+01-0.281D+01
 Coeff-Com: -0.500D+00 0.619D+01-0.410D+01 0.194D+01-0.145D+01
 Coeff:     -0.115D+00 0.509D+00-0.109D+01-0.870D+00 0.330D+01-0.281D+01
 Coeff:     -0.500D+00 0.619D+01-0.410D+01 0.194D+01-0.145D+01
 Gap=     0.009 Goal=   None    Shift=    0.000
 Gap=     0.009 Goal=   None    Shift=    0.000
 GapD=    0.009 DampG=0.250 DampE=0.500 DampFc=0.1250 IDamp=-1.
 Damping current iteration by 1.25D-01
 RMSDP=1.14D-02 MaxDP=1.34D-01 DE= 2.45D-02 OVMax= 3.74D-02

 Cycle  16  Pass 1  IDiag  1:
 E= -175.572023705350     Delta-E=        0.024201756746 Rises=F Damp=T
 DIIS: error= 2.86D-02 at cycle  16 NSaved=  12.
 NSaved=12 IEnMin= 6 EnMin= -175.752986534718     IErMin= 7 ErrMin= 6.82D-03
 ErrMax= 2.86D-02  0.00D+00 EMaxC= 1.00D+00 BMatC= 8.74D-02 BMatP= 7.39D-03
 IDIUse=1 WtCom= 1.00D+00 WtEn= 0.00D+00
 Coeff-Com: -0.145D+00 0.634D+00-0.130D+01-0.536D+00 0.309D+01-0.284D+01
 Coeff-Com: -0.325D+00 0.568D+01-0.398D+01 0.528D+01-0.713D+01 0.256D+01
 Coeff:     -0.145D+00 0.634D+00-0.130D+01-0.536D+00 0.309D+01-0.284D+01
 Coeff:     -0.325D+00 0.568D+01-0.398D+01 0.528D+01-0.713D+01 0.256D+01
 Gap=     0.010 Goal=   None    Shift=    0.000
 Gap=     0.010 Goal=   None    Shift=    0.000
 GapD=    0.010 DampG=0.250 DampE=0.500 DampFc=0.1250 IDamp=-1.
 Damping current iteration by 1.25D-01
 RMSDP=9.51D-03 MaxDP=1.19D-01 DE= 2.42D-02 OVMax= 2.22D-02

 Cycle  17  Pass 1  IDiag  1:
 E= -175.547438329117     Delta-E=        0.024585376234 Rises=F Damp=T
 DIIS: error= 3.06D-02 at cycle  17 NSaved=  13.
 NSaved=13 IEnMin= 6 EnMin= -175.752986534718     IErMin= 7 ErrMin= 6.82D-03
 ErrMax= 3.06D-02  0.00D+00 EMaxC= 1.00D+00 BMatC= 9.92D-02 BMatP= 7.39D-03
 IDIUse=1 WtCom= 1.00D+00 WtEn= 0.00D+00
 Coeff-Com: -0.172D+00 0.686D+00-0.141D+01-0.366D+00 0.309D+01-0.293D+01
 Coeff-Com: -0.313D+00 0.555D+01-0.417D+01 0.839D+01-0.981D+01 0.251D+00
 Coeff-Com:  0.220D+01
 Coeff:     -0.172D+00 0.686D+00-0.141D+01-0.366D+00 0.309D+01-0.293D+01
 Coeff:     -0.313D+00 0.555D+01-0.417D+01 0.839D+01-0.981D+01 0.251D+00
 Coeff:      0.220D+01
 Gap=     0.008 Goal=   None    Shift=    0.000
 Gap=     0.008 Goal=   None    Shift=    0.000
 GapD=    0.008 DampG=0.250 DampE=0.500 DampFc=0.1250 IDamp=-1.
 Damping current iteration by 1.25D-01
 RMSDP=8.36D-03 MaxDP=1.03D-01 DE= 2.46D-02 OVMax= 4.29D-03

 Cycle  18  Pass 1  IDiag  1:
 E= -175.523770481456     Delta-E=        0.023667847661 Rises=F Damp=T
 DIIS: error= 3.24D-02 at cycle  18 NSaved=  14.
 NSaved=14 IEnMin= 6 EnMin= -175.752986534718     IErMin= 7 ErrMin= 6.82D-03
 ErrMax= 3.24D-02  0.00D+00 EMaxC= 1.00D+00 BMatC= 1.11D-01 BMatP= 7.39D-03
 IDIUse=1 WtCom= 1.00D+00 WtEn= 0.00D+00
 Large coefficients: NSaved= 14 BigCof=   29.93 CofMax=   10.00 Det=-3.18D-08
 Inversion failed.  Reducing to 13 matrices.
 Coeff-Com: -0.134D+00 0.618D+00-0.125D+01-0.616D+00 0.309D+01-0.281D+01
 Coeff-Com: -0.284D+00 0.565D+01-0.370D+01 0.383D+01-0.623D+01 0.674D+01
 Coeff-Com: -0.389D+01
 Coeff:     -0.134D+00 0.618D+00-0.125D+01-0.616D+00 0.309D+01-0.281D+01
 Coeff:     -0.284D+00 0.565D+01-0.370D+01 0.383D+01-0.623D+01 0.674D+01
 Coeff:     -0.389D+01
 Gap=     0.011 Goal=   None    Shift=    0.000
 Gap=     0.011 Goal=   None    Shift=    0.000
 GapD=    0.011 DampG=0.250 DampE=0.500 DampFc=0.1250 IDamp=-1.
 Damping current iteration by 1.25D-01
 RMSDP=7.27D-03 MaxDP=9.04D-02 DE= 2.37D-02 OVMax= 4.11D-03

 Cycle  19  Pass 1  IDiag  1:
 E= -175.501202215943     Delta-E=        0.022568265513 Rises=F Damp=T
 DIIS: error= 3.41D-02 at cycle  19 NSaved=  14.
 NSaved=14 IEnMin= 6 EnMin= -175.752986534718     IErMin= 7 ErrMin= 6.82D-03
 ErrMax= 3.41D-02  0.00D+00 EMaxC= 1.00D+00 BMatC= 1.22D-01 BMatP= 7.39D-03
 IDIUse=1 WtCom= 1.00D+00 WtEn= 0.00D+00
 Large coefficients: NSaved= 14 BigCof=  117.19 CofMax=   10.00 Det=-9.02D-09
 Inversion failed.  Reducing to 13 matrices.
 Large coefficients: NSaved= 13 BigCof=   10.65 CofMax=   10.00 Det=-2.53D-07
 Inversion failed.  Reducing to 12 matrices.
 Large coefficients: NSaved= 12 BigCof=   11.11 CofMax=   10.00 Det=-1.97D-06
 Inversion failed.  Reducing to 11 matrices.
 Coeff-Com: -0.964D-01 0.487D+00-0.114D+01-0.793D+00 0.336D+01-0.298D+01
 Coeff-Com: -0.518D+00 0.644D+01-0.404D+01 0.272D+01-0.244D+01
 Coeff:     -0.964D-01 0.487D+00-0.114D+01-0.793D+00 0.336D+01-0.298D+01
 Coeff:     -0.518D+00 0.644D+01-0.404D+01 0.272D+01-0.244D+01
 Gap=     0.010 Goal=   None    Shift=    0.000
 Gap=     0.010 Goal=   None    Shift=    0.000
 GapD=    0.010 DampG=0.250 DampE=0.500 DampFc=0.1250 IDamp=-1.
 Damping current iteration by 1.25D-01
 RMSDP=6.73D-03 MaxDP=7.89D-02 DE= 2.26D-02 OVMax= 1.70D-02

 Cycle  20  Pass 1  IDiag  1:
 E= -175.480305035722     Delta-E=        0.020897180221 Rises=F Damp=T
 DIIS: error= 3.55D-02 at cycle  20 NSaved=  12.
 NSaved=12 IEnMin= 6 EnMin= -175.752986534718     IErMin= 7 ErrMin= 6.82D-03
 ErrMax= 3.55D-02  0.00D+00 EMaxC= 1.00D+00 BMatC= 1.33D-01 BMatP= 7.39D-03
 IDIUse=1 WtCom= 1.00D+00 WtEn= 0.00D+00
 Coeff-Com: -0.924D-01 0.536D+00-0.113D+01-0.770D+00 0.308D+01-0.271D+01
 Coeff-Com: -0.398D+00 0.607D+01-0.383D+01 0.511D+01-0.789D+01 0.302D+01
 Coeff:     -0.924D-01 0.536D+00-0.113D+01-0.770D+00 0.308D+01-0.271D+01
 Coeff:     -0.398D+00 0.607D+01-0.383D+01 0.511D+01-0.789D+01 0.302D+01
 Gap=     0.013 Goal=   None    Shift=    0.000
 Gap=     0.013 Goal=   None    Shift=    0.000
 GapD=    0.013 DampG=0.250 DampE=0.500 DampFc=0.1250 IDamp=-1.
 Damping current iteration by 1.25D-01
 RMSDP=5.54D-03 MaxDP=7.04D-02 DE= 2.09D-02 OVMax= 2.09D-02

 Cycle  21  Pass 1  IDiag  1:
 E= -175.460700535172     Delta-E=        0.019604500550 Rises=F Damp=T
 DIIS: error= 3.68D-02 at cycle  21 NSaved=  13.
 NSaved=13 IEnMin= 6 EnMin= -175.752986534718     IErMin= 7 ErrMin= 6.82D-03
 ErrMax= 3.68D-02  0.00D+00 EMaxC= 1.00D+00 BMatC= 1.43D-01 BMatP= 7.39D-03
 IDIUse=1 WtCom= 1.00D+00 WtEn= 0.00D+00
 Large coefficients: NSaved= 13 BigCof=   20.06 CofMax=   10.00 Det=-1.11D-07
 Inversion failed.  Reducing to 12 matrices.
 Coeff-Com: -0.114D+00 0.565D+00-0.118D+01-0.714D+00 0.311D+01-0.275D+01
 Coeff-Com: -0.444D+00 0.610D+01-0.368D+01-0.199D+01 0.790D+01-0.581D+01
 Coeff:     -0.114D+00 0.565D+00-0.118D+01-0.714D+00 0.311D+01-0.275D+01
 Coeff:     -0.444D+00 0.610D+01-0.368D+01-0.199D+01 0.790D+01-0.581D+01
 Gap=     0.011 Goal=   None    Shift=    0.000
 Gap=     0.011 Goal=   None    Shift=    0.000
 GapD=    0.011 DampG=0.250 DampE=0.500 DampFc=0.1250 IDamp=-1.
 Damping current iteration by 1.25D-01
 RMSDP=4.90D-03 MaxDP=6.26D-02 DE= 1.96D-02 OVMax= 7.20D-03

 Cycle  22  Pass 1  IDiag  1:
 E= -175.442767914746     Delta-E=        0.017932620426 Rises=F Damp=T
 DIIS: error= 3.80D-02 at cycle  22 NSaved=  13.
 NSaved=13 IEnMin= 6 EnMin= -175.752986534718     IErMin= 7 ErrMin= 6.82D-03
 ErrMax= 3.80D-02  0.00D+00 EMaxC= 1.00D+00 BMatC= 1.52D-01 BMatP= 7.39D-03
 IDIUse=1 WtCom= 1.00D+00 WtEn= 0.00D+00
 Large coefficients: NSaved= 13 BigCof=   21.88 CofMax=   10.00 Det=-6.66D-08
 Inversion failed.  Reducing to 12 matrices.
 Large coefficients: NSaved= 12 BigCof=   11.40 CofMax=   10.00 Det=-1.33D-06
 Inversion failed.  Reducing to 11 matrices.
 Coeff-Com: -0.963D-01 0.486D+00-0.113D+01-0.821D+00 0.337D+01-0.297D+01
 Coeff-Com: -0.573D+00 0.659D+01-0.405D+01 0.307D+01-0.287D+01
 Coeff:     -0.963D-01 0.486D+00-0.113D+01-0.821D+00 0.337D+01-0.297D+01
 Coeff:     -0.573D+00 0.659D+01-0.405D+01 0.307D+01-0.287D+01
 Gap=     0.010 Goal=   None    Shift=    0.000
 Gap=     0.010 Goal=   None    Shift=    0.000
 GapD=    0.010 DampG=0.250 DampE=0.500 DampFc=0.1250 IDamp=-1.
 Damping current iteration by 1.25D-01
 RMSDP=4.55D-03 MaxDP=5.37D-02 DE= 1.79D-02 OVMax= 1.60D-02

 Cycle  23  Pass 1  IDiag  1:
 E= -175.426645285267     Delta-E=        0.016122629479 Rises=F Damp=T
 DIIS: error= 3.90D-02 at cycle  23 NSaved=  12.
 NSaved=12 IEnMin= 6 EnMin= -175.752986534718     IErMin= 7 ErrMin= 6.82D-03
 ErrMax= 3.90D-02  0.00D+00 EMaxC= 1.00D+00 BMatC= 1.61D-01 BMatP= 7.39D-03
 IDIUse=1 WtCom= 1.00D+00 WtEn= 0.00D+00
 Coeff-Com: -0.987D-01 0.538D+00-0.108D+01-0.861D+00 0.309D+01-0.263D+01
 Coeff-Com: -0.466D+00 0.618D+01-0.381D+01 0.486D+01-0.796D+01 0.323D+01
 Coeff:     -0.987D-01 0.538D+00-0.108D+01-0.861D+00 0.309D+01-0.263D+01
 Coeff:     -0.466D+00 0.618D+01-0.381D+01 0.486D+01-0.796D+01 0.323D+01
 Gap=     0.012 Goal=   None    Shift=    0.000
 Gap=     0.012 Goal=   None    Shift=    0.000
 GapD=    0.012 DampG=0.250 DampE=0.500 DampFc=0.1250 IDamp=-1.
 Damping current iteration by 1.25D-01
 RMSDP=3.77D-03 MaxDP=4.80D-02 DE= 1.61D-02 OVMax= 1.79D-02

 Cycle  24  Pass 1  IDiag  1:
 E= -175.411880618228     Delta-E=        0.014764667039 Rises=F Damp=T
 DIIS: error= 4.00D-02 at cycle  24 NSaved=  13.
 NSaved=13 IEnMin= 6 EnMin= -175.752986534718     IErMin= 7 ErrMin= 6.82D-03
 ErrMax= 4.00D-02  0.00D+00 EMaxC= 1.00D+00 BMatC= 1.69D-01 BMatP= 7.39D-03
 IDIUse=1 WtCom= 1.00D+00 WtEn= 0.00D+00
 Large coefficients: NSaved= 13 BigCof=   18.44 CofMax=   10.00 Det=-1.02D-08
 Inversion failed.  Reducing to 12 matrices.
 Coeff-Com: -0.106D+00 0.551D+00-0.114D+01-0.754D+00 0.307D+01-0.268D+01
 Coeff-Com: -0.464D+00 0.615D+01-0.373D+01-0.215D+01 0.914D+01-0.690D+01
 Coeff:     -0.106D+00 0.551D+00-0.114D+01-0.754D+00 0.307D+01-0.268D+01
 Coeff:     -0.464D+00 0.615D+01-0.373D+01-0.215D+01 0.914D+01-0.690D+01
 Gap=     0.011 Goal=   None    Shift=    0.000
 Gap=     0.011 Goal=   None    Shift=    0.000
 GapD=    0.011 DampG=0.250 DampE=0.500 DampFc=0.1250 IDamp=-1.
 Damping current iteration by 1.25D-01
 RMSDP=3.29D-03 MaxDP=4.19D-02 DE= 1.48D-02 OVMax= 1.63D-03

 Cycle  25  Pass 1  IDiag  1:
 E= -175.398624776204     Delta-E=        0.013255842025 Rises=F Damp=T
 DIIS: error= 4.08D-02 at cycle  25 NSaved=  13.
 NSaved=13 IEnMin= 6 EnMin= -175.752986534718     IErMin= 7 ErrMin= 6.82D-03
 ErrMax= 4.08D-02  0.00D+00 EMaxC= 1.00D+00 BMatC= 1.76D-01 BMatP= 7.39D-03
 IDIUse=1 WtCom= 1.00D+00 WtEn= 0.00D+00
 Large coefficients: NSaved= 13 BigCof=   46.19 CofMax=   10.00 Det=-8.19D-09
 Inversion failed.  Reducing to 12 matrices.
 Large coefficients: NSaved= 12 BigCof=   14.40 CofMax=   10.00 Det=-1.18D-06
 Inversion failed.  Reducing to 11 matrices.
 Coeff-Com: -0.878D-01 0.485D+00-0.116D+01-0.784D+00 0.341D+01-0.307D+01
 Coeff-Com: -0.554D+00 0.656D+01-0.401D+01 0.542D+01-0.522D+01
 Coeff:     -0.878D-01 0.485D+00-0.116D+01-0.784D+00 0.341D+01-0.307D+01
 Coeff:     -0.554D+00 0.656D+01-0.401D+01 0.542D+01-0.522D+01
 Gap=     0.011 Goal=   None    Shift=    0.000
 Gap=     0.011 Goal=   None    Shift=    0.000
 GapD=    0.011 DampG=0.250 DampE=0.500 DampFc=0.1250 IDamp=-1.
 Damping current iteration by 1.25D-01
 RMSDP=3.03D-03 MaxDP=3.63D-02 DE= 1.33D-02 OVMax= 1.12D-02

 Cycle  26  Pass 1  IDiag  1:
 E= -175.386847730240     Delta-E=        0.011777045963 Rises=F Damp=T
 DIIS: error= 4.15D-02 at cycle  26 NSaved=  12.
 NSaved=12 IEnMin= 6 EnMin= -175.752986534718     IErMin= 7 ErrMin= 6.82D-03
 ErrMax= 4.15D-02  0.00D+00 EMaxC= 1.00D+00 BMatC= 1.82D-01 BMatP= 7.39D-03
 IDIUse=1 WtCom= 1.00D+00 WtEn= 0.00D+00
 Large coefficients: NSaved= 12 BigCof=   10.14 CofMax=   10.00 Det=-2.36D-06
 Inversion failed.  Reducing to 11 matrices.
 Coeff-Com: -0.130D+00 0.563D+00-0.975D+00-0.967D+00 0.286D+01-0.227D+01
 Coeff-Com: -0.531D+00 0.641D+01-0.392D+01-0.319D+01 0.315D+01
 Coeff:     -0.130D+00 0.563D+00-0.975D+00-0.967D+00 0.286D+01-0.227D+01
 Coeff:     -0.531D+00 0.641D+01-0.392D+01-0.319D+01 0.315D+01
 Gap=     0.010 Goal=   None    Shift=    0.000
 Gap=     0.010 Goal=   None    Shift=    0.000
 GapD=    0.010 DampG=0.250 DampE=0.500 DampFc=0.1250 IDamp=-1.
 Damping current iteration by 1.25D-01
 RMSDP=2.71D-03 MaxDP=2.91D-02 DE= 1.18D-02 OVMax= 6.10D-03

 Cycle  27  Pass 1  IDiag  1:
 E= -175.376479635619     Delta-E=        0.010368094622 Rises=F Damp=T
 DIIS: error= 4.21D-02 at cycle  27 NSaved=  12.
 NSaved=12 IEnMin= 6 EnMin= -175.752986534718     IErMin= 7 ErrMin= 6.82D-03
 ErrMax= 4.21D-02  0.00D+00 EMaxC= 1.00D+00 BMatC= 1.88D-01 BMatP= 7.39D-03
 IDIUse=1 WtCom= 1.00D+00 WtEn= 0.00D+00
 Coeff-Com: -0.118D+00 0.545D+00-0.952D+00-0.993D+00 0.286D+01-0.227D+01
 Coeff-Com: -0.514D+00 0.641D+01-0.393D+01-0.412D+01 0.536D+01-0.128D+01
 Coeff:     -0.118D+00 0.545D+00-0.952D+00-0.993D+00 0.286D+01-0.227D+01
 Coeff:     -0.514D+00 0.641D+01-0.393D+01-0.412D+01 0.536D+01-0.128D+01
 Gap=     0.010 Goal=   None    Shift=    0.000
 Gap=     0.010 Goal=   None    Shift=    0.000
 GapD=    0.010 DampG=0.250 DampE=0.500 DampFc=0.1250 IDamp=-1.
 Damping current iteration by 1.25D-01
 RMSDP=2.40D-03 MaxDP=2.50D-02 DE= 1.04D-02 OVMax= 1.78D-03

 Cycle  28  Pass 1  IDiag  1:
 E= -175.367275572411     Delta-E=        0.009204063208 Rises=F Damp=T
 DIIS: error= 4.26D-02 at cycle  28 NSaved=  13.
 NSaved=13 IEnMin= 6 EnMin= -175.752986534718     IErMin= 7 ErrMin= 6.82D-03
 ErrMax= 4.26D-02  0.00D+00 EMaxC= 1.00D+00 BMatC= 1.94D-01 BMatP= 7.39D-03
 IDIUse=1 WtCom= 1.00D+00 WtEn= 0.00D+00
 Large coefficients: NSaved= 13 BigCof=   50.68 CofMax=   10.00 Det=-5.41D-09
 Inversion failed.  Reducing to 12 matrices.
 Coeff-Com: -0.134D+00 0.570D+00-0.997D+00-0.942D+00 0.287D+01-0.230D+01
 Coeff-Com: -0.525D+00 0.640D+01-0.391D+01-0.302D+01 0.624D+01-0.326D+01
 Coeff:     -0.134D+00 0.570D+00-0.997D+00-0.942D+00 0.287D+01-0.230D+01
 Coeff:     -0.525D+00 0.640D+01-0.391D+01-0.302D+01 0.624D+01-0.326D+01
 Gap=     0.011 Goal=   None    Shift=    0.000
 Gap=     0.011 Goal=   None    Shift=    0.000
 GapD=    0.011 DampG=0.250 DampE=0.500 DampFc=0.1250 IDamp=-1.
 Damping current iteration by 1.25D-01
 RMSDP=2.12D-03 MaxDP=2.21D-02 DE= 9.20D-03 OVMax= 1.26D-03

 Cycle  29  Pass 1  IDiag  1:
 E= -175.359068761402     Delta-E=        0.008206811009 Rises=F Damp=T
 DIIS: error= 4.31D-02 at cycle  29 NSaved=  13.
 NSaved=13 IEnMin= 6 EnMin= -175.752986534718     IErMin= 7 ErrMin= 6.82D-03
 ErrMax= 4.31D-02  0.00D+00 EMaxC= 1.00D+00 BMatC= 1.98D-01 BMatP= 7.39D-03
 IDIUse=1 WtCom= 1.00D+00 WtEn= 0.00D+00
 Large coefficients: NSaved= 13 BigCof=  168.40 CofMax=   10.00 Det=-1.25D-09
 Inversion failed.  Reducing to 12 matrices.
 Large coefficients: NSaved= 12 BigCof=   15.13 CofMax=   10.00 Det=-1.03D-07
 Inversion failed.  Reducing to 11 matrices.
 Coeff-Com: -0.153D+00 0.589D+00-0.106D+01-0.865D+00 0.297D+01-0.241D+01
 Coeff-Com: -0.604D+00 0.654D+01-0.398D+01-0.357D+01 0.355D+01
 Coeff:     -0.153D+00 0.589D+00-0.106D+01-0.865D+00 0.297D+01-0.241D+01
 Coeff:     -0.604D+00 0.654D+01-0.398D+01-0.357D+01 0.355D+01
 Gap=     0.010 Goal=   None    Shift=    0.000
 Gap=     0.010 Goal=   None    Shift=    0.000
 GapD=    0.010 DampG=0.250 DampE=0.500 DampFc=0.1250 IDamp=-1.
 Damping current iteration by 1.25D-01
 RMSDP=1.86D-03 MaxDP=2.11D-02 DE= 8.21D-03 OVMax= 5.12D-03

 Cycle  30  Pass 1  IDiag  1:
 E= -175.351662757876     Delta-E=        0.007406003526 Rises=F Damp=T
 DIIS: error= 4.35D-02 at cycle  30 NSaved=  12.
 NSaved=12 IEnMin= 6 EnMin= -175.752986534718     IErMin= 7 ErrMin= 6.82D-03
 ErrMax= 4.35D-02  0.00D+00 EMaxC= 1.00D+00 BMatC= 2.03D-01 BMatP= 7.39D-03
 IDIUse=1 WtCom= 1.00D+00 WtEn= 0.00D+00
 Coeff-Com: -0.156D+00 0.613D+00-0.110D+01-0.808D+00 0.292D+01-0.241D+01
 Coeff-Com: -0.534D+00 0.637D+01-0.388D+01 0.892D+00-0.543D+01 0.453D+01
 Coeff:     -0.156D+00 0.613D+00-0.110D+01-0.808D+00 0.292D+01-0.241D+01
 Coeff:     -0.534D+00 0.637D+01-0.388D+01 0.892D+00-0.543D+01 0.453D+01
 Gap=     0.011 Goal=   None    Shift=    0.000
 Gap=     0.011 Goal=   None    Shift=    0.000
 GapD=    0.011 DampG=0.250 DampE=0.500 DampFc=0.1250 IDamp=-1.
 Damping current iteration by 1.25D-01
 RMSDP=1.70D-03 MaxDP=1.67D-02 DE= 7.41D-03 OVMax= 6.46D-03

 Cycle  31  Pass 1  IDiag  1:
 E= -175.345212034871     Delta-E=        0.006450723005 Rises=F Damp=T
 DIIS: error= 4.39D-02 at cycle  31 NSaved=  13.
 NSaved=13 IEnMin= 6 EnMin= -175.752986534718     IErMin= 7 ErrMin= 6.82D-03
 ErrMax= 4.39D-02  0.00D+00 EMaxC= 1.00D+00 BMatC= 2.07D-01 BMatP= 7.39D-03
 IDIUse=1 WtCom= 1.00D+00 WtEn= 0.00D+00
 Large coefficients: NSaved= 13 BigCof=   39.30 CofMax=   10.00 Det=-1.42D-08
 Inversion failed.  Reducing to 12 matrices.
 Coeff-Com: -0.152D+00 0.605D+00-0.108D+01-0.850D+00 0.291D+01-0.239D+01
 Coeff-Com: -0.503D+00 0.632D+01-0.385D+01-0.403D+01 0.929D+01-0.527D+01
 Coeff:     -0.152D+00 0.605D+00-0.108D+01-0.850D+00 0.291D+01-0.239D+01
 Coeff:     -0.503D+00 0.632D+01-0.385D+01-0.403D+01 0.929D+01-0.527D+01
 Gap=     0.011 Goal=   None    Shift=    0.000
 Gap=     0.011 Goal=   None    Shift=    0.000
 GapD=    0.011 DampG=0.250 DampE=0.500 DampFc=0.1250 IDamp=-1.
 Damping current iteration by 1.25D-01
 RMSDP=1.60D-03 MaxDP=1.42D-02 DE= 6.45D-03 OVMax= 2.00D-03

 Cycle  32  Pass 1  IDiag  1:
 E= -175.339555734283     Delta-E=        0.005656300588 Rises=F Damp=T
 DIIS: error= 4.42D-02 at cycle  32 NSaved=  13.
 NSaved=13 IEnMin= 6 EnMin= -175.752986534718     IErMin= 7 ErrMin= 6.82D-03
 ErrMax= 4.42D-02  0.00D+00 EMaxC= 1.00D+00 BMatC= 2.10D-01 BMatP= 7.39D-03
 IDIUse=1 WtCom= 1.00D+00 WtEn= 0.00D+00
 Large coefficients: NSaved= 13 BigCof=   19.83 CofMax=   10.00 Det=-4.71D-09
 Inversion failed.  Reducing to 12 matrices.
 Coeff-Com: -0.157D+00 0.612D+00-0.109D+01-0.853D+00 0.294D+01-0.240D+01
 Coeff-Com: -0.551D+00 0.642D+01-0.390D+01-0.313D+01 0.968D+01-0.657D+01
 Coeff:     -0.157D+00 0.612D+00-0.109D+01-0.853D+00 0.294D+01-0.240D+01
 Coeff:     -0.551D+00 0.642D+01-0.390D+01-0.313D+01 0.968D+01-0.657D+01
 Gap=     0.011 Goal=   None    Shift=    0.000
 Gap=     0.011 Goal=   None    Shift=    0.000
 GapD=    0.011 DampG=0.250 DampE=0.500 DampFc=0.1250 IDamp=-1.
 Damping current iteration by 1.25D-01
 RMSDP=1.43D-03 MaxDP=1.26D-02 DE= 5.66D-03 OVMax= 2.55D-03

 >>>>>>>>>> Convergence criterion not met.
 SCF Done:  E(ULC-wHPBE) =  -175.339555734     A.U. after   33 cycles
            NFock= 32  Conv=0.14D-02     -V/T= 1.9216
 <Sx>= 0.0000 <Sy>= 0.0000 <Sz>= 0.0000 <S**2>=-0.0000 S=-0.0000
 <L.S>= 0.000000000000E+00
 KE= 1.902569122151D+02 PE=-7.298818957282D+02 EE= 2.192635279857D+02
 Annihilation of the first spin contaminant:
 S**2 before annihilation     0.1239,   after     0.0108
 Leave Link  502 at Thu Mar  5 12:35:56 2020, MaxMem=  6710886400 cpu:              61.9 elap:               4.1
 (Enter /opt/ohpc/pub/libs/gaussian/g16-A.03/sandybridge/g16/l508.exe)
 Keep R1 and R2 ints in memory in symmetry-blocked form, NReq=16816059.
 FoFCou: FMM=F IPFlag=           0 FMFlag=           0 FMFlg1=           0
         NFxFlg=           0 DoJE=F BraDBF=F KetDBF=F FulRan=T
         wScrn=  0.000000 ICntrl=       600 IOpCl=  0 I1Cent=           0 NGrid=           0
         NMat0=    1 NMatS0=   1653 NMatT0=    0 NMatD0=    1 NMtDS0=    0 NMtDT0=    0
 Petite list used in FoFCou.
 Tight linear equation convergence will be used.
 ULC-wHPBE wavefunction.
 Quadratic Convergence SCF Method.
 Line search only if initial step raises energy.
 Iteration   1 EE= -175.297904769687                                    Grad=3.443D-01 Max rot=    5.4498 deg.
 Gradient too large for Newton-Raphson -- use scaled steepest descent instead.
     ILin= 1 X=0.000D+00 Y=-1.752979047697D+02 DE= 0.00D+00 F= -2.58D-01
     ILin= 2 X=3.000D-01 Y=-1.753592436269D+02 DE=-6.13D-02 F= -1.51D-01
     ILin= 3 X=4.000D-01 Y=-1.753725205537D+02 DE=-7.46D-02 F= -1.15D-01
     ILin= 4 X=7.000D-01 Y=-1.753905970701D+02 DE=-9.27D-02 F= -5.69D-03
     ILin= 5 X=1.000D+00 Y=-1.753759364823D+02 DE=-7.80D-02 F=  1.03D-01
     An  expanding polynomial of degree  5 produced  0.7156
     Minimum is close to point  4 DX=  1.56D-02 DF= -4.45D-05 DXR=  2.18D-02 DFR=  4.80D-04 which will be used.
 Iteration   2 EE= -175.390597070119     Delta-E=       -0.092692300432 Grad=1.274D-01 Max rot=    1.7503 deg.
 Gradient too large for Newton-Raphson -- use scaled steepest descent instead.
     ILin= 1 X=0.000D+00 Y=-1.753905970701D+02 DE= 0.00D+00 F= -2.96D-02
     ILin= 2 X=5.000D-01 Y=-1.754024800813D+02 DE=-1.19D-02 F= -1.78D-02
     ILin= 3 X=9.000D-01 Y=-1.754076843099D+02 DE=-1.71D-02 F= -8.15D-03
     ILin= 4 X=1.700D+00 Y=-1.754062539504D+02 DE=-1.57D-02 F=  1.19D-02
     An  expanding polynomial of degree  4 produced  1.2299
 Iteration   3 EE= -175.409031597124     Delta-E=       -0.018434527005 Grad=1.098D-01 Max rot=    1.5932 deg.
 Gradient too large for Newton-Raphson -- use scaled steepest descent instead.
     ILin= 1 X=0.000D+00 Y=-1.754090315971D+02 DE= 0.00D+00 F= -2.43D-02
     ILin= 2 X=9.000D-01 Y=-1.754205929946D+02 DE=-1.16D-02 F= -1.27D-03
     Reject lnstep minimum 9.737D-01 FVal=-1.754206445371D+02 Lims=  0.00D+00  9.00D-01
     ILin= 3 X=1.700D+00 Y=-1.754132499102D+02 DE=-4.22D-03 F=  1.97D-02
     An  expanding polynomial of degree  3 produced  0.9458
     Minimum is close to point  2 DX=  4.58D-02 DF= -2.71D-05 DXR=  4.84D-02 DFR=  2.35D-03 which will be used.
 Iteration   4 EE= -175.420592994630     Delta-E=       -0.011561397506 Grad=8.768D-02 Max rot=    1.7190 deg.
 Gradient too large for Newton-Raphson -- use scaled steepest descent instead.
     ILin= 1 X=0.000D+00 Y=-1.754205929946D+02 DE= 0.00D+00 F= -1.56D-02
     ILin= 2 X=1.100D+00 Y=-1.754297288150D+02 DE=-9.14D-03 F= -8.50D-04
     Reject lnstep minimum 1.145D+00 FVal=-1.754297462188D+02 Lims=  0.00D+00  1.10D+00
     ILin= 3 X=2.100D+00 Y=-1.754235170473D+02 DE=-2.92D-03 F=  1.34D-02
     An  expanding polynomial of degree  3 produced  1.1507
     Minimum is close to point  2 DX=  5.07D-02 DF= -1.78D-05 DXR=  4.41D-02 DFR=  1.95D-03 which will be used.
 Iteration   5 EE= -175.429728814968     Delta-E=       -0.009135820338 Grad=8.973D-02 Max rot=    1.6096 deg.
 Gradient too large for Newton-Raphson -- use scaled steepest descent instead.
     ILin= 1 X=0.000D+00 Y=-1.754297288150D+02 DE= 0.00D+00 F= -1.75D-02
     ILin= 2 X=1.000D+00 Y=-1.754382526910D+02 DE=-8.52D-03 F=  4.41D-04
     Accept linear search using points  1 and  2.
     An  expanding polynomial of degree  2 produced  0.9755
     Minimum is close to point  2 DX= -2.45D-02 DF= -5.41D-06 DXR=  2.51D-02 DFR=  6.34D-04 which will be used.
 Iteration   6 EE= -175.438252690964     Delta-E=       -0.008523875995 Grad=8.861D-02 Max rot=    1.8628 deg.
 Gradient too large for Newton-Raphson -- use scaled steepest descent instead.
     ILin= 1 X=0.000D+00 Y=-1.754382526910D+02 DE= 0.00D+00 F= -1.62D-02
     ILin= 2 X=1.100D+00 Y=-1.754450963281D+02 DE=-6.84D-03 F=  3.95D-03
     Accept linear search using points  1 and  2.
     An  expanding polynomial of degree  2 produced  0.9180
 Iteration   7 EE= -175.445503512877     Delta-E=       -0.007250821913 Grad=7.687D-02 Max rot=    1.6383 deg.
 Gradient too large for Newton-Raphson -- use scaled steepest descent instead.
     ILin= 1 X=0.000D+00 Y=-1.754455035129D+02 DE= 0.00D+00 F= -1.28D-02
     ILin= 2 X=9.000D-01 Y=-1.754515376348D+02 DE=-6.03D-03 F= -6.14D-04
     Reject lnstep minimum 9.681D-01 FVal=-1.754515606126D+02 Lims=  0.00D+00  9.00D-01
     ILin= 3 X=1.800D+00 Y=-1.754466352334D+02 DE=-1.13D-03 F=  1.15D-02
     An  expanding polynomial of degree  3 produced  0.9466
     Minimum is close to point  2 DX=  4.66D-02 DF= -1.46D-05 DXR=  4.92D-02 DFR=  2.43D-03 which will be used.
 Iteration   8 EE= -175.451537634842     Delta-E=       -0.006034121965 Grad=6.904D-02 Max rot=    1.7693 deg.
 Gradient too large for Newton-Raphson -- use scaled steepest descent instead.
     ILin= 1 X=0.000D+00 Y=-1.754515376348D+02 DE= 0.00D+00 F= -9.85D-03
     ILin= 2 X=9.000D-01 Y=-1.754564629944D+02 DE=-4.93D-03 F= -1.01D-03
     Reject lnstep minimum 1.065D+00 FVal=-1.754565536286D+02 Lims=  0.00D+00  9.00D-01
     ILin= 3 X=1.800D+00 Y=-1.754532253424D+02 DE=-1.69D-03 F=  8.28D-03
     An  expanding polynomial of degree  3 produced  0.9930
     Minimum is close to point  2 DX=  9.30D-02 DF= -4.36D-05 DXR=  9.37D-02 DFR=  8.86D-03 which will be used.
 Iteration   9 EE= -175.456462994411     Delta-E=       -0.004925359569 Grad=5.845D-02 Max rot=    1.4484 deg.
 Gradient too large for Newton-Raphson -- use scaled steepest descent instead.
     ILin= 1 X=0.000D+00 Y=-1.754564629944D+02 DE= 0.00D+00 F= -7.54D-03
     ILin= 2 X=1.000D+00 Y=-1.754604942826D+02 DE=-4.03D-03 F= -5.28D-04
     Reject lnstep minimum 1.076D+00 FVal=-1.754605142473D+02 Lims=  0.00D+00  1.00D+00
     ILin= 3 X=1.900D+00 Y=-1.754581471905D+02 DE=-1.68D-03 F=  5.74D-03
     An  expanding polynomial of degree  3 produced  1.0768
     Minimum is close to point  2 DX=  7.68D-02 DF= -2.06D-05 DXR=  7.14D-02 DFR=  5.12D-03 which will be used.
 Iteration  10 EE= -175.460494282593     Delta-E=       -0.004031288183 Grad=5.788D-02 Max rot=    1.5094 deg.
 Gradient too large for Newton-Raphson -- use scaled steepest descent instead.
     ILin= 1 X=0.000D+00 Y=-1.754604942826D+02 DE= 0.00D+00 F= -6.86D-03
     ILin= 2 X=1.000D+00 Y=-1.754635322772D+02 DE=-3.04D-03 F=  8.35D-04
     Accept linear search using points  1 and  2.
     An  expanding polynomial of degree  2 produced  0.8933
 Iteration  11 EE= -175.463576794347     Delta-E=       -0.003082511753 Grad=4.779D-02 Max rot=    1.1417 deg.
 Gradient too large for Newton-Raphson -- use scaled steepest descent instead.
     ILin= 1 X=0.000D+00 Y=-1.754635767943D+02 DE= 0.00D+00 F= -5.05D-03
     ILin= 2 X=1.000D+00 Y=-1.754659471051D+02 DE=-2.37D-03 F=  2.95D-04
     Accept linear search using points  1 and  2.
     An  expanding polynomial of degree  2 produced  0.9445
     Minimum is close to point  2 DX= -5.55D-02 DF= -8.18D-06 DXR=  5.87D-02 DFR=  3.45D-03 which will be used.
 Iteration  12 EE= -175.465947105065     Delta-E=       -0.002370310718 Grad=4.776D-02 Max rot=    1.2100 deg.
 Gradient too large for Newton-Raphson -- use scaled steepest descent instead.
     ILin= 1 X=0.000D+00 Y=-1.754659471051D+02 DE= 0.00D+00 F= -4.64D-03
     ILin= 2 X=9.000D-01 Y=-1.754677655277D+02 DE=-1.82D-03 F=  6.14D-04
     Accept linear search using points  1 and  2.
     An  expanding polynomial of degree  2 produced  0.7711
 Iteration  13 EE= -175.467795735561     Delta-E=       -0.001848630496 Grad=3.328D-02 Max rot=    0.9048 deg.
 Gradient too large for Newton-Raphson -- use scaled steepest descent instead.
     ILin= 1 X=0.000D+00 Y=-1.754677957356D+02 DE= 0.00D+00 F= -2.46D-03
     ILin= 2 X=9.000D-01 Y=-1.754691632165D+02 DE=-1.37D-03 F= -5.78D-04
     Reject lnstep minimum 2.890D+00 FVal=-1.754694670806D+02 Lims=  0.00D+00  9.00D-01
     ILin= 3 X=1.700D+00 Y=-1.754689585793D+02 DE=-1.16D-03 F=  1.09D-03
     An  expanding polynomial of degree  3 produced  1.1775
 Iteration  14 EE= -175.469243262859     Delta-E=       -0.001447527298 Grad=3.800D-02 Max rot=    0.9294 deg.
 Gradient too large for Newton-Raphson -- use scaled steepest descent instead.
     ILin= 1 X=0.000D+00 Y=-1.754692432629D+02 DE= 0.00D+00 F= -2.92D-03
     ILin= 2 X=1.000D+00 Y=-1.754702016317D+02 DE=-9.58D-04 F=  1.01D-03
     Accept linear search using points  1 and  2.
     An  expanding polynomial of degree  2 produced  0.7438
 Iteration  15 EE= -175.470331474827     Delta-E=       -0.001088211968 Grad=2.513D-02 Max rot=    0.6762 deg.
 Gradient too large for Newton-Raphson -- use scaled steepest descent instead.
     ILin= 1 X=0.000D+00 Y=-1.754703314748D+02 DE= 0.00D+00 F= -1.39D-03
     ILin= 2 X=9.000D-01 Y=-1.754711123170D+02 DE=-7.81D-04 F= -3.44D-04
     Reject lnstep minimum 3.033D+00 FVal=-1.754713562190D+02 Lims=  0.00D+00  9.00D-01
     ILin= 3 X=1.900D+00 Y=-1.754708763226D+02 DE=-5.45D-04 F=  8.15D-04
     An  expanding polynomial of degree  3 produced  1.1969
 Iteration  16 EE= -175.471163285396     Delta-E=       -0.000831810569 Grad=2.918D-02 Max rot=    0.7043 deg.
 Gradient too large for Newton-Raphson -- use scaled steepest descent instead.
     ILin= 1 X=0.000D+00 Y=-1.754711632854D+02 DE= 0.00D+00 F= -1.72D-03
     ILin= 2 X=9.000D-01 Y=-1.754717745739D+02 DE=-6.11D-04 F=  3.63D-04
     Accept linear search using points  1 and  2.
     An  expanding polynomial of degree  2 produced  0.7154
 Iteration  17 EE= -175.471802081998     Delta-E=       -0.000638796602 Grad=1.880D-02 Max rot=    0.5116 deg.
 Gradient too large for Newton-Raphson -- use scaled steepest descent instead.
     ILin= 1 X=0.000D+00 Y=-1.754718020820D+02 DE= 0.00D+00 F= -7.69D-04
     ILin= 2 X=9.000D-01 Y=-1.754722698801D+02 DE=-4.68D-04 F= -2.71D-04
     Reject lnstep minimum 3.118D+00 FVal=-1.754726993409D+02 Lims=  0.00D+00  9.00D-01
     ILin= 3 X=1.900D+00 Y=-1.754722639766D+02 DE=-4.62D-04 F=  2.82D-04
     An  expanding polynomial of degree  3 produced  1.3893
 Iteration  18 EE= -175.472336065678     Delta-E=       -0.000533983680 Grad=2.439D-02 Max rot=    0.5328 deg.
 Gradient too large for Newton-Raphson -- use scaled steepest descent instead.
     ILin= 1 X=0.000D+00 Y=-1.754723360657D+02 DE= 0.00D+00 F= -1.20D-03
     ILin= 2 X=1.000D+00 Y=-1.754726692787D+02 DE=-3.33D-04 F=  5.36D-04
     Accept linear search using points  1 and  2.
     An  expanding polynomial of degree  2 produced  0.6922
 Iteration  19 EE= -175.472751685130     Delta-E=       -0.000415619451 Grad=1.483D-02 Max rot=    0.3757 deg.
 Gradient too large for Newton-Raphson -- use scaled steepest descent instead.
     ILin= 1 X=0.000D+00 Y=-1.754727516851D+02 DE= 0.00D+00 F= -5.39D-04
     ILin= 2 X=1.000D+00 Y=-1.754731091385D+02 DE=-3.57D-04 F= -1.76D-04
     Reject lnstep minimum 1.486D+00 FVal=-1.754731519559D+02 Lims=  0.00D+00  1.00D+00
     ILin= 3 X=2.000D+00 Y=-1.754731041605D+02 DE=-3.52D-04 F=  1.86D-04
     An  expanding polynomial of degree  3 produced  1.4863
 Iteration  20 EE= -175.473151954971     Delta-E=       -0.000400269842 Grad=2.096D-02 Max rot=    0.4507 deg.
 Gradient too large for Newton-Raphson -- use scaled steepest descent instead.
     ILin= 1 X=0.000D+00 Y=-1.754731519550D+02 DE= 0.00D+00 F= -9.17D-04
     ILin= 2 X=1.000D+00 Y=-1.754733854981D+02 DE=-2.34D-04 F=  4.51D-04
     Accept linear search using points  1 and  2.
     An  expanding polynomial of degree  2 produced  0.6709
 Iteration  21 EE= -175.473459662235     Delta-E=       -0.000307707264 Grad=1.176D-02 Max rot=    0.3066 deg.
 Gradient too large for Newton-Raphson -- use scaled steepest descent instead.
     ILin= 1 X=0.000D+00 Y=-1.754734596622D+02 DE= 0.00D+00 F= -3.23D-04
     ILin= 2 X=1.000D+00 Y=-1.754736738633D+02 DE=-2.14D-04 F= -1.05D-04
     Reject lnstep minimum 1.482D+00 FVal=-1.754736992344D+02 Lims=  0.00D+00  1.00D+00
     ILin= 3 X=2.000D+00 Y=-1.754736700086D+02 DE=-2.10D-04 F=  1.13D-04
     An  expanding polynomial of degree  3 produced  1.4823
 Iteration  22 EE= -175.473699234084     Delta-E=       -0.000239571849 Grad=1.635D-02 Max rot=    0.3394 deg.
 Gradient too large for Newton-Raphson -- use scaled steepest descent instead.
     ILin= 1 X=0.000D+00 Y=-1.754736992341D+02 DE= 0.00D+00 F= -5.57D-04
     ILin= 2 X=1.000D+00 Y=-1.754738412273D+02 DE=-1.42D-04 F=  2.73D-04
     Accept linear search using points  1 and  2.
     An  expanding polynomial of degree  2 produced  0.6712
 Iteration  23 EE= -175.473886140690     Delta-E=       -0.000186906606 Grad=9.216D-03 Max rot=    0.2327 deg.
 QCNR:  CnvC1=9.22D-08 CnvC2=9.22D-07
 LinEq1:  Iter=  0 NonCon=     1 RMS=6.32D-03 Max=1.37D-01 NDo=     1
 AX will form     1 AO Fock derivatives at one time.
 LinEq1:  Iter=  1 NonCon=     1 RMS=1.46D-01 Max=2.54D+00 NDo=     1
 LinEq1:  Iter=  2 NonCon=     1 RMS=5.98D-01 Max=1.03D+01 NDo=     1
 LinEq1:  Iter=  3 NonCon=     1 RMS=2.96D+00 Max=5.21D+01 NDo=     1
 LinEq1:  Iter=  4 NonCon=     1 RMS=1.24D+01 Max=2.38D+02 NDo=     1
 LinEq1:  Iter=  5 NonCon=     1 RMS=4.93D+01 Max=8.35D+02 NDo=     1
 LinEq1:  Iter=  6 NonCon=     1 RMS=4.02D+01 Max=7.08D+02 NDo=     1
 LinEq1:  Iter=  7 NonCon=     1 RMS=3.62D+01 Max=4.88D+02 NDo=     1
 LinEq1:  Iter=  8 NonCon=     1 RMS=2.80D+01 Max=2.84D+02 NDo=     1
 LinEq1:  Iter=  9 NonCon=     1 RMS=1.08D+02 Max=2.90D+03 NDo=     1
 LinEq1:  Iter= 10 NonCon=     1 RMS=2.82D+03 Max=3.67D+04 NDo=     1
 LinEq1:  Iter= 11 NonCon=     1 RMS=7.27D+03 Max=1.96D+05 NDo=     1
 LinEq1:  Iter= 12 NonCon=     1 RMS=1.38D+05 Max=1.49D+06 NDo=     1
 LinEq1:  Iter= 13 NonCon=     1 RMS=8.03D+04 Max=7.31D+05 NDo=     1
 LinEq1:  Iter= 14 NonCon=     1 RMS=6.93D+04 Max=8.51D+05 NDo=     1
 LinEq1:  Iter= 15 NonCon=     1 RMS=3.65D+04 Max=3.32D+05 NDo=     1
 LinEq1:  Iter= 16 NonCon=     1 RMS=6.09D+04 Max=1.03D+06 NDo=     1
 LinEq1:  Iter= 17 NonCon=     1 RMS=1.05D+06 Max=2.06D+07 NDo=     1
 LinEq1:  Iter= 18 NonCon=     1 RMS=8.44D+06 Max=1.89D+08 NDo=     1
 LinEq1:  Iter= 19 NonCon=     1 RMS=2.97D+08 Max=6.04D+09 NDo=     1
 LinEq1:  Iter= 20 NonCon=     1 RMS=8.74D+08 Max=2.57D+10 NDo=     1
 LinEq1:  Iter= 21 NonCon=     1 RMS=1.25D+10 Max=9.53D+10 NDo=     1
 LinEq1:  Iter= 22 NonCon=     1 RMS=7.23D+09 Max=6.51D+10 NDo=     1
 LinEq1:  Iter= 23 NonCon=     1 RMS=1.11D+10 Max=2.80D+11 NDo=     1
 LinEq1:  Iter= 24 NonCon=     1 RMS=1.77D+10 Max=2.21D+11 NDo=     1
 LinEq1:  Iter= 25 NonCon=     1 RMS=8.91D+09 Max=1.13D+11 NDo=     1
 LinEq1:  Iter= 26 NonCon=     1 RMS=2.28D+10 Max=3.31D+11 NDo=     1
 LinEq1:  Iter= 27 NonCon=     1 RMS=2.74D+10 Max=4.71D+11 NDo=     1
 LinEq1:  Iter= 28 NonCon=     1 RMS=6.76D+10 Max=6.01D+11 NDo=     1
 LinEq1:  Iter= 29 NonCon=     1 RMS=1.00D+11 Max=1.51D+12 NDo=     1
 LinEq1:  Iter= 30 NonCon=     1 RMS=2.03D+11 Max=4.41D+12 NDo=     1
 LinEq1:  Iter= 31 NonCon=     1 RMS=7.92D+11 Max=9.93D+12 NDo=     1
 LinEq1:  Iter= 32 NonCon=     1 RMS=2.22D+12 Max=5.52D+13 NDo=     1
 LinEq1:  Iter= 33 NonCon=     1 RMS=2.63D+12 Max=4.64D+13 NDo=     1
 LinEq1:  Iter= 34 NonCon=     1 RMS=6.78D+12 Max=1.29D+14 NDo=     1
 LinEq1:  Iter= 35 NonCon=     1 RMS=4.15D+12 Max=5.67D+13 NDo=     1
 LinEq1:  Iter= 36 NonCon=     1 RMS=1.20D+13 Max=1.87D+14 NDo=     1
 LinEq1:  Iter= 37 NonCon=     1 RMS=4.60D+13 Max=9.28D+14 NDo=     1
 LinEq1:  Iter= 38 NonCon=     1 RMS=1.69D+14 Max=3.01D+15 NDo=     1
 LinEq1:  Iter= 39 NonCon=     1 RMS=5.92D+14 Max=1.08D+16 NDo=     1
 LinEq1:  Iter= 40 NonCon=     1 RMS=9.26D+14 Max=1.53D+16 NDo=     1
 LinEq1:  Iter= 41 NonCon=     1 RMS=3.11D+15 Max=5.24D+16 NDo=     1
 LinEq1:  Iter= 42 NonCon=     1 RMS=6.86D+15 Max=7.54D+16 NDo=     1
 LinEq1:  Iter= 43 NonCon=     1 RMS=7.05D+15 Max=1.41D+17 NDo=     1
 LinEq1:  Iter= 44 NonCon=     1 RMS=7.57D+15 Max=1.03D+17 NDo=     1
 LinEq1:  Iter= 45 NonCon=     1 RMS=1.89D+16 Max=3.99D+17 NDo=     1
 LinEq1:  Iter= 46 NonCon=     1 RMS=2.80D+16 Max=5.39D+17 NDo=     1
 LinEq1:  Iter= 47 NonCon=     1 RMS=5.44D+16 Max=1.24D+18 NDo=     1
 LinEq1:  Iter= 48 NonCon=     1 RMS=9.85D+16 Max=1.25D+18 NDo=     1
 LinEq1:  Iter= 49 NonCon=     1 RMS=8.42D+16 Max=1.88D+18 NDo=     1
 LinEq1:  Iter= 50 NonCon=     1 RMS=1.42D+17 Max=2.56D+18 NDo=     1
 LinEq1:  Iter= 51 NonCon=     1 RMS=2.14D+17 Max=2.26D+18 NDo=     1
 LinEq1:  Iter= 52 NonCon=     1 RMS=1.18D+17 Max=2.00D+18 NDo=     1
 LinEq1:  Iter= 53 NonCon=     1 RMS=2.73D+17 Max=5.15D+18 NDo=     1
 LinEq1:  Iter= 54 NonCon=     1 RMS=6.26D+17 Max=1.07D+19 NDo=     1
 LinEq1:  Iter= 55 NonCon=     1 RMS=5.59D+17 Max=9.01D+18 NDo=     1
 LinEq1:  Iter= 56 NonCon=     1 RMS=8.31D+17 Max=1.38D+19 NDo=     1
 LinEq1:  Iter= 57 NonCon=     1 RMS=1.38D+18 Max=2.30D+19 NDo=     1
 LinEq1:  Iter= 58 NonCon=     1 RMS=1.28D+18 Max=2.29D+19 NDo=     1
 LinEq1:  Iter= 59 NonCon=     1 RMS=1.32D+18 Max=1.70D+19 NDo=     1
 LinEq1:  Iter= 60 NonCon=     1 RMS=1.55D+18 Max=2.76D+19 NDo=     1
 LinEq1:  Iter= 61 NonCon=     1 RMS=3.38D+18 Max=6.33D+19 NDo=     1
 LinEq1:  Iter= 62 NonCon=     1 RMS=2.77D+18 Max=4.84D+19 NDo=     1
 LinEq1:  Iter= 63 NonCon=     1 RMS=1.79D+18 Max=2.81D+19 NDo=     1
 LinEq1:  Iter= 64 NonCon=     1 RMS=1.30D+18 Max=3.09D+19 NDo=     1
 LinEq1:  Iter= 65 NonCon=     1 RMS=1.28D+18 Max=1.83D+19 NDo=     1
 LinEq1:  Iter= 66 NonCon=     1 RMS=8.40D+17 Max=1.28D+19 NDo=     1
 LinEq1:  Iter= 67 NonCon=     1 RMS=1.45D+18 Max=1.99D+19 NDo=     1
 LinEq1:  Iter= 68 NonCon=     1 RMS=1.65D+18 Max=2.31D+19 NDo=     1
 LinEq1:  Iter= 69 NonCon=     1 RMS=1.74D+18 Max=2.85D+19 NDo=     1
 LinEq1:  Iter= 70 NonCon=     1 RMS=2.35D+18 Max=4.32D+19 NDo=     1
 LinEq1:  Iter= 71 NonCon=     1 RMS=3.68D+18 Max=6.20D+19 NDo=     1
 LinEq1:  Iter= 72 NonCon=     1 RMS=2.81D+18 Max=2.18D+19 NDo=     1
 LinEq1:  Iter= 73 NonCon=     1 RMS=1.06D+18 Max=1.31D+19 NDo=     1
 LinEq1:  Iter= 74 NonCon=     1 RMS=1.46D+18 Max=1.88D+19 NDo=     1
 LinEq1:  Iter= 75 NonCon=     1 RMS=2.02D+18 Max=2.29D+19 NDo=     1
 LinEq1:  Iter= 76 NonCon=     1 RMS=1.61D+18 Max=2.40D+19 NDo=     1
 LinEq1:  Iter= 77 NonCon=     1 RMS=1.87D+18 Max=2.13D+19 NDo=     1
 LinEq1:  Iter= 78 NonCon=     1 RMS=2.85D+18 Max=3.87D+19 NDo=     1
 LinEq1:  Iter= 79 NonCon=     1 RMS=2.89D+18 Max=3.19D+19 NDo=     1
 LinEq1:  Iter= 80 NonCon=     1 RMS=2.27D+18 Max=3.67D+19 NDo=     1
 LinEq1:  Iter= 81 NonCon=     1 RMS=3.52D+18 Max=6.50D+19 NDo=     1
 LinEq1:  Iter= 82 NonCon=     1 RMS=2.35D+18 Max=2.25D+19 NDo=     1
 LinEq1:  Iter= 83 NonCon=     1 RMS=2.02D+18 Max=3.68D+19 NDo=     1
 LinEq1:  Iter= 84 NonCon=     1 RMS=1.55D+18 Max=2.98D+19 NDo=     1
 LinEq1:  Iter= 85 NonCon=     1 RMS=1.44D+18 Max=2.01D+19 NDo=     1
 LinEq1:  Iter= 86 NonCon=     1 RMS=1.51D+18 Max=1.79D+19 NDo=     1
 LinEq1:  Iter= 87 NonCon=     1 RMS=1.08D+18 Max=1.80D+19 NDo=     1
 LinEq1:  Iter= 88 NonCon=     1 RMS=1.28D+18 Max=2.03D+19 NDo=     1
 LinEq1:  Iter= 89 NonCon=     1 RMS=8.86D+17 Max=9.67D+18 NDo=     1
 LinEq1:  Iter= 90 NonCon=     1 RMS=7.31D+17 Max=8.92D+18 NDo=     1
 LinEq1:  Iter= 91 NonCon=     1 RMS=6.79D+17 Max=1.23D+19 NDo=     1
 LinEq1:  Iter= 92 NonCon=     1 RMS=8.73D+17 Max=1.45D+19 NDo=     1
 LinEq1:  Iter= 93 NonCon=     1 RMS=7.36D+17 Max=9.07D+18 NDo=     1
 LinEq1:  Iter= 94 NonCon=     1 RMS=6.13D+17 Max=9.91D+18 NDo=     1
 LinEq1:  Iter= 95 NonCon=     1 RMS=4.47D+17 Max=1.09D+19 NDo=     1
 LinEq1:  Iter= 96 NonCon=     1 RMS=2.15D+17 Max=3.31D+18 NDo=     1
 LinEq1:  Iter= 97 NonCon=     1 RMS=1.87D+17 Max=3.96D+18 NDo=     1
 LinEq1:  Iter= 98 NonCon=     1 RMS=1.08D+17 Max=1.87D+18 NDo=     1
 LinEq1:  Iter= 99 NonCon=     1 RMS=1.10D+17 Max=1.28D+18 NDo=     1
 LinEq1:  Iter=100 NonCon=     1 RMS=1.02D+17 Max=1.22D+18 NDo=     1
 LinEq1:  Iter=101 NonCon=     1 RMS=8.87D+16 Max=1.34D+18 NDo=     1
 LinEq1:  Iter=102 NonCon=     1 RMS=4.84D+16 Max=4.58D+17 NDo=     1
 LinEq1:  Iter=103 NonCon=     1 RMS=4.54D+16 Max=7.67D+17 NDo=     1
 LinEq1:  Iter=104 NonCon=     1 RMS=4.25D+16 Max=9.27D+17 NDo=     1
 LinEq1:  Iter=105 NonCon=     1 RMS=1.86D+16 Max=1.70D+17 NDo=     1
 LinEq1:  Iter=106 NonCon=     1 RMS=1.21D+16 Max=1.68D+17 NDo=     1
 LinEq1:  Iter=107 NonCon=     1 RMS=3.65D+15 Max=3.02D+16 NDo=     1
 LinEq1:  Iter=108 NonCon=     1 RMS=1.76D+15 Max=2.43D+16 NDo=     1
 LinEq1:  Iter=109 NonCon=     1 RMS=8.26D+14 Max=8.22D+15 NDo=     1
 LinEq1:  Iter=110 NonCon=     1 RMS=4.24D+14 Max=6.29D+15 NDo=     1
 LinEq1:  Iter=111 NonCon=     1 RMS=3.63D+14 Max=7.43D+15 NDo=     1
 LinEq1:  Iter=112 NonCon=     1 RMS=1.72D+14 Max=3.35D+15 NDo=     1
 LinEq1:  Iter=113 NonCon=     1 RMS=1.44D+14 Max=2.16D+15 NDo=     1
 LinEq1:  Iter=114 NonCon=     1 RMS=1.01D+14 Max=1.62D+15 NDo=     1
 LinEq1:  Iter=115 NonCon=     1 RMS=4.15D+13 Max=3.26D+14 NDo=     1
 LinEq1:  Iter=116 NonCon=     1 RMS=2.85D+13 Max=3.50D+14 NDo=     1
 LinEq1:  Iter=117 NonCon=     1 RMS=1.60D+13 Max=4.64D+14 NDo=     1
 LinEq1:  Iter=118 NonCon=     1 RMS=9.47D+12 Max=1.45D+14 NDo=     1
 LinEq1:  Iter=119 NonCon=     1 RMS=6.33D+12 Max=8.50D+13 NDo=     1
 LinEq1:  Iter=120 NonCon=     1 RMS=1.95D+12 Max=2.51D+13 NDo=     1
 LinEq1:  Iter=121 NonCon=     1 RMS=8.02D+11 Max=1.46D+13 NDo=     1
 LinEq1:  Iter=122 NonCon=     1 RMS=5.94D+11 Max=1.33D+13 NDo=     1
 LinEq1:  Iter=123 NonCon=     1 RMS=2.11D+11 Max=2.41D+12 NDo=     1
 LinEq1:  Iter=124 NonCon=     1 RMS=1.11D+11 Max=1.60D+12 NDo=     1
 LinEq1:  Iter=125 NonCon=     1 RMS=3.90D+10 Max=2.43D+11 NDo=     1
 LinEq1:  Iter=126 NonCon=     1 RMS=9.70D+09 Max=1.51D+11 NDo=     1
 LinEq1:  Iter=127 NonCon=     1 RMS=5.85D+09 Max=7.08D+10 NDo=     1
 LinEq1:  Iter=128 NonCon=     1 RMS=1.36D+09 Max=1.73D+10 NDo=     1
 LinEq1:  Iter=129 NonCon=     1 RMS=7.58D+08 Max=7.29D+09 NDo=     1
 LinEq1:  Iter=130 NonCon=     1 RMS=2.56D+08 Max=3.33D+09 NDo=     1
 LinEq1:  Iter=131 NonCon=     1 RMS=1.28D+08 Max=1.09D+09 NDo=     1
 LinEq1:  Iter=132 NonCon=     1 RMS=3.42D+07 Max=4.60D+08 NDo=     1
 LinEq1:  Iter=133 NonCon=     1 RMS=1.73D+07 Max=1.82D+08 NDo=     1
 LinEq1:  Iter=134 NonCon=     1 RMS=4.99D+06 Max=7.67D+07 NDo=     1
 LinEq1:  Iter=135 NonCon=     1 RMS=2.84D+06 Max=3.95D+07 NDo=     1
 LinEq1:  Iter=136 NonCon=     1 RMS=8.99D+05 Max=1.56D+07 NDo=     1
 LinEq1:  Iter=137 NonCon=     1 RMS=3.96D+05 Max=4.67D+06 NDo=     1
 LinEq1:  Iter=138 NonCon=     1 RMS=1.07D+05 Max=1.72D+06 NDo=     1
 LinEq1:  Iter=139 NonCon=     1 RMS=5.35D+04 Max=6.69D+05 NDo=     1
 LinEq1:  Iter=140 NonCon=     1 RMS=1.37D+04 Max=1.12D+05 NDo=     1
 LinEq1:  Iter=141 NonCon=     1 RMS=7.47D+03 Max=8.56D+04 NDo=     1
 LinEq1:  Iter=142 NonCon=     1 RMS=2.48D+03 Max=1.64D+04 NDo=     1
 LinEq1:  Iter=143 NonCon=     1 RMS=9.11D+02 Max=1.19D+04 NDo=     1
 LinEq1:  Iter=144 NonCon=     1 RMS=3.06D+02 Max=3.21D+03 NDo=     1
 LinEq1:  Iter=145 NonCon=     1 RMS=9.17D+01 Max=1.54D+03 NDo=     1
 LinEq1:  Iter=146 NonCon=     1 RMS=2.88D+01 Max=2.20D+02 NDo=     1
 LinEq1:  Iter=147 NonCon=     1 RMS=6.38D+00 Max=1.06D+02 NDo=     1
 LinEq1:  Iter=148 NonCon=     1 RMS=3.76D+00 Max=5.18D+01 NDo=     1
 LinEq1:  Iter=149 NonCon=     1 RMS=1.14D+00 Max=1.55D+01 NDo=     1
 LinEq1:  Iter=150 NonCon=     1 RMS=6.29D-01 Max=9.06D+00 NDo=     1
 LinEq1:  Iter=151 NonCon=     1 RMS=2.05D-01 Max=3.23D+00 NDo=     1
 LinEq1:  Iter=152 NonCon=     1 RMS=1.05D-01 Max=1.02D+00 NDo=     1
 LinEq1:  Iter=153 NonCon=     1 RMS=3.05D-02 Max=4.59D-01 NDo=     1
 LinEq1:  Iter=154 NonCon=     1 RMS=1.70D-02 Max=2.21D-01 NDo=     1
 LinEq1:  Iter=155 NonCon=     1 RMS=3.96D-03 Max=4.15D-02 NDo=     1
 LinEq1:  Iter=156 NonCon=     1 RMS=1.79D-03 Max=2.63D-02 NDo=     1
 LinEq1:  Iter=157 NonCon=     1 RMS=4.61D-04 Max=3.25D-03 NDo=     1
 LinEq1:  Iter=158 NonCon=     1 RMS=1.40D-04 Max=1.51D-03 NDo=     1
 LinEq1:  Iter=159 NonCon=     1 RMS=4.43D-05 Max=3.50D-04 NDo=     1
 LinEq1:  Iter=160 NonCon=     1 RMS=1.16D-05 Max=1.25D-04 NDo=     1
 LinEq1:  Iter=161 NonCon=     1 RMS=4.42D-06 Max=4.01D-05 NDo=     1
 LinEq1:  Iter=162 NonCon=     1 RMS=1.09D-06 Max=1.36D-05 NDo=     1
 LinEq1:  Iter=163 NonCon=     1 RMS=4.91D-07 Max=5.37D-06 NDo=     1
 LinEq1:  Iter=164 NonCon=     0 RMS=8.48D-08 Max=6.37D-07 NDo=     1
 Linear equations converged to 9.216D-08 9.216D-07 after   164 iterations.
 Angle between quadratic step and gradient=  35.30 degrees.
     ILin= 1 X=0.000D+00 Y=-1.754738861407D+02 DE= 0.00D+00 F= -1.44D-03
     ILin= 2 X=1.000D+00 Y=-1.754745637333D+02 DE=-6.78D-04 F=  1.32D-04
     Accept linear search using points  1 and  2.
     An  expanding polynomial of degree  2 produced  0.9228
     Minimum is close to point  2 DX= -7.72D-02 DF= -5.07D-06 DXR=  8.37D-02 DFR=  7.48D-03 which will be used.
 Iteration  24 EE= -175.474563733337     Delta-E=       -0.000677592647 Grad=1.678D-03 Max rot=    0.0435 deg.
 QCNR:  CnvC1=1.68D-08 CnvC2=1.68D-07
 LinEq1:  Iter=  0 NonCon=     1 RMS=4.72D-04 Max=8.15D-03 NDo=     1
 LinEq1:  Iter=  1 NonCon=     1 RMS=1.43D-02 Max=2.92D-01 NDo=     1
 LinEq1:  Iter=  2 NonCon=     1 RMS=1.99D-01 Max=4.12D+00 NDo=     1
 LinEq1:  Iter=  3 NonCon=     1 RMS=9.34D-01 Max=1.33D+01 NDo=     1
 LinEq1:  Iter=  4 NonCon=     1 RMS=4.40D+00 Max=7.37D+01 NDo=     1
 LinEq1:  Iter=  5 NonCon=     1 RMS=8.26D+00 Max=1.36D+02 NDo=     1
 LinEq1:  Iter=  6 NonCon=     1 RMS=3.42D+02 Max=9.94D+03 NDo=     1
 LinEq1:  Iter=  7 NonCon=     1 RMS=4.18D+03 Max=9.78D+04 NDo=     1
 LinEq1:  Iter=  8 NonCon=     1 RMS=2.59D+05 Max=7.32D+06 NDo=     1
 LinEq1:  Iter=  9 NonCon=     1 RMS=4.86D+06 Max=1.12D+08 NDo=     1
 LinEq1:  Iter= 10 NonCon=     1 RMS=1.25D+07 Max=2.74D+08 NDo=     1
 LinEq1:  Iter= 11 NonCon=     1 RMS=3.36D+08 Max=5.45D+09 NDo=     1
 LinEq1:  Iter= 12 NonCon=     1 RMS=8.58D+08 Max=1.80D+10 NDo=     1
 LinEq1:  Iter= 13 NonCon=     1 RMS=6.80D+09 Max=6.68D+10 NDo=     1
 LinEq1:  Iter= 14 NonCon=     1 RMS=6.44D+09 Max=5.28D+10 NDo=     1
 LinEq1:  Iter= 15 NonCon=     1 RMS=5.39D+09 Max=8.49D+10 NDo=     1
 LinEq1:  Iter= 16 NonCon=     1 RMS=4.07D+10 Max=8.50D+11 NDo=     1
 LinEq1:  Iter= 17 NonCon=     1 RMS=2.09D+11 Max=4.19D+12 NDo=     1
 LinEq1:  Iter= 18 NonCon=     1 RMS=4.64D+11 Max=6.28D+12 NDo=     1
 LinEq1:  Iter= 19 NonCon=     1 RMS=9.26D+11 Max=1.56D+13 NDo=     1
 LinEq1:  Iter= 20 NonCon=     1 RMS=2.94D+12 Max=5.09D+13 NDo=     1
 LinEq1:  Iter= 21 NonCon=     1 RMS=1.30D+13 Max=1.26D+14 NDo=     1
 LinEq1:  Iter= 22 NonCon=     1 RMS=4.65D+13 Max=1.02D+15 NDo=     1
 LinEq1:  Iter= 23 NonCon=     1 RMS=1.02D+14 Max=1.50D+15 NDo=     1
 LinEq1:  Iter= 24 NonCon=     1 RMS=4.60D+14 Max=1.03D+16 NDo=     1
 LinEq1:  Iter= 25 NonCon=     1 RMS=7.19D+14 Max=9.02D+15 NDo=     1
 LinEq1:  Iter= 26 NonCon=     1 RMS=1.65D+15 Max=2.35D+16 NDo=     1
 LinEq1:  Iter= 27 NonCon=     1 RMS=3.57D+15 Max=6.16D+16 NDo=     1
 LinEq1:  Iter= 28 NonCon=     1 RMS=1.50D+16 Max=2.89D+17 NDo=     1
 LinEq1:  Iter= 29 NonCon=     1 RMS=5.17D+16 Max=9.78D+17 NDo=     1
 LinEq1:  Iter= 30 NonCon=     1 RMS=1.98D+17 Max=2.42D+18 NDo=     1
 LinEq1:  Iter= 31 NonCon=     1 RMS=4.12D+17 Max=8.22D+18 NDo=     1
 LinEq1:  Iter= 32 NonCon=     1 RMS=6.76D+17 Max=1.16D+19 NDo=     1
 LinEq1:  Iter= 33 NonCon=     1 RMS=1.27D+18 Max=1.49D+19 NDo=     1
 LinEq1:  Iter= 34 NonCon=     1 RMS=2.81D+18 Max=4.87D+19 NDo=     1
 LinEq1:  Iter= 35 NonCon=     1 RMS=1.12D+19 Max=2.05D+20 NDo=     1
 LinEq1:  Iter= 36 NonCon=     1 RMS=2.34D+19 Max=3.28D+20 NDo=     1
 LinEq1:  Iter= 37 NonCon=     1 RMS=2.85D+19 Max=3.70D+20 NDo=     1
 LinEq1:  Iter= 38 NonCon=     1 RMS=6.29D+19 Max=8.43D+20 NDo=     1
 LinEq1:  Iter= 39 NonCon=     1 RMS=1.88D+20 Max=2.97D+21 NDo=     1
 LinEq1:  Iter= 40 NonCon=     1 RMS=6.77D+20 Max=1.06D+22 NDo=     1
 LinEq1:  Iter= 41 NonCon=     1 RMS=1.93D+21 Max=2.58D+22 NDo=     1
 LinEq1:  Iter= 42 NonCon=     1 RMS=2.20D+21 Max=2.69D+22 NDo=     1
 LinEq1:  Iter= 43 NonCon=     1 RMS=2.39D+21 Max=4.18D+22 NDo=     1
 LinEq1:  Iter= 44 NonCon=     1 RMS=1.89D+21 Max=2.04D+22 NDo=     1
 LinEq1:  Iter= 45 NonCon=     1 RMS=3.23D+21 Max=4.40D+22 NDo=     1
 LinEq1:  Iter= 46 NonCon=     1 RMS=4.91D+21 Max=9.52D+22 NDo=     1
 LinEq1:  Iter= 47 NonCon=     1 RMS=7.62D+21 Max=1.02D+23 NDo=     1
 LinEq1:  Iter= 48 NonCon=     1 RMS=1.60D+22 Max=2.20D+23 NDo=     1
 LinEq1:  Iter= 49 NonCon=     1 RMS=1.86D+22 Max=3.01D+23 NDo=     1
 LinEq1:  Iter= 50 NonCon=     1 RMS=2.60D+22 Max=3.56D+23 NDo=     1
 LinEq1:  Iter= 51 NonCon=     1 RMS=5.38D+22 Max=9.24D+23 NDo=     1
 LinEq1:  Iter= 52 NonCon=     1 RMS=6.04D+22 Max=1.08D+24 NDo=     1
 LinEq1:  Iter= 53 NonCon=     1 RMS=1.18D+23 Max=2.30D+24 NDo=     1
 LinEq1:  Iter= 54 NonCon=     1 RMS=1.55D+23 Max=2.79D+24 NDo=     1
 LinEq1:  Iter= 55 NonCon=     1 RMS=1.31D+23 Max=1.52D+24 NDo=     1
 LinEq1:  Iter= 56 NonCon=     1 RMS=2.02D+23 Max=2.57D+24 NDo=     1
 LinEq1:  Iter= 57 NonCon=     1 RMS=2.96D+23 Max=2.99D+24 NDo=     1
 LinEq1:  Iter= 58 NonCon=     1 RMS=4.03D+23 Max=5.41D+24 NDo=     1
 LinEq1:  Iter= 59 NonCon=     1 RMS=3.52D+23 Max=6.27D+24 NDo=     1
 LinEq1:  Iter= 60 NonCon=     1 RMS=5.37D+23 Max=1.03D+25 NDo=     1
 LinEq1:  Iter= 61 NonCon=     1 RMS=8.60D+23 Max=9.92D+24 NDo=     1
 LinEq1:  Iter= 62 NonCon=     1 RMS=7.11D+23 Max=8.40D+24 NDo=     1
 LinEq1:  Iter= 63 NonCon=     1 RMS=7.48D+23 Max=1.08D+25 NDo=     1
 LinEq1:  Iter= 64 NonCon=     1 RMS=1.19D+24 Max=1.80D+25 NDo=     1
 LinEq1:  Iter= 65 NonCon=     1 RMS=1.42D+24 Max=1.61D+25 NDo=     1
 LinEq1:  Iter= 66 NonCon=     1 RMS=1.15D+24 Max=1.41D+25 NDo=     1
 LinEq1:  Iter= 67 NonCon=     1 RMS=1.66D+24 Max=2.20D+25 NDo=     1
 LinEq1:  Iter= 68 NonCon=     1 RMS=1.96D+24 Max=2.86D+25 NDo=     1
 LinEq1:  Iter= 69 NonCon=     1 RMS=2.05D+24 Max=2.92D+25 NDo=     1
 LinEq1:  Iter= 70 NonCon=     1 RMS=2.25D+24 Max=1.78D+25 NDo=     1
 LinEq1:  Iter= 71 NonCon=     1 RMS=2.33D+24 Max=2.57D+25 NDo=     1
 LinEq1:  Iter= 72 NonCon=     1 RMS=2.84D+24 Max=3.49D+25 NDo=     1
 LinEq1:  Iter= 73 NonCon=     1 RMS=3.35D+24 Max=3.73D+25 NDo=     1
 LinEq1:  Iter= 74 NonCon=     1 RMS=3.14D+24 Max=3.31D+25 NDo=     1
[...]
 LinEq1:  Iter=147 NonCon=     1 RMS=6.05D+04 Max=4.99D+05 NDo=     1
 LinEq1:  Iter=148 NonCon=     1 RMS=1.98D+04 Max=2.91D+05 NDo=     1
 LinEq1:  Iter=149 NonCon=     1 RMS=9.35D+03 Max=1.29D+05 NDo=     1
 LinEq1:  Iter=150 NonCon=     1 RMS=3.78D+03 Max=5.95D+04 NDo=     1
 LinEq1:  Iter=151 NonCon=     1 RMS=1.48D+03 Max=1.91D+04 NDo=     1
 LinEq1:  Iter=152 NonCon=     1 RMS=5.42D+02 Max=4.28D+03 NDo=     1
 LinEq1:  Iter=153 NonCon=     1 RMS=1.28D+02 Max=7.75D+02 NDo=     1
 LinEq1:  Iter=154 NonCon=     1 RMS=3.99D+01 Max=4.85D+02 NDo=     1
 LinEq1:  Iter=155 NonCon=     1 RMS=1.21D+01 Max=6.90D+01 NDo=     1
 LinEq1:  Iter=156 NonCon=     1 RMS=3.30D+00 Max=3.29D+01 NDo=     1
 LinEq1:  Iter=157 NonCon=     1 RMS=1.39D+00 Max=1.36D+01 NDo=     1
 LinEq1:  Iter=158 NonCon=     1 RMS=2.78D-01 Max=1.81D+00 NDo=     1
 LinEq1:  Iter=159 NonCon=     1 RMS=7.89D-02 Max=7.99D-01 NDo=     1
 LinEq1:  Iter=160 NonCon=     1 RMS=2.30D-02 Max=1.93D-01 NDo=     1
 LinEq1:  Iter=161 NonCon=     1 RMS=5.39D-03 Max=6.63D-02 NDo=     1
 LinEq1:  Iter=162 NonCon=     1 RMS=2.24D-03 Max=2.67D-02 NDo=     1
 LinEq1:  Iter=163 NonCon=     1 RMS=6.10D-04 Max=7.42D-03 NDo=     1
 LinEq1:  Iter=164 NonCon=     1 RMS=2.13D-04 Max=1.98D-03 NDo=     1
 LinEq1:  Iter=165 NonCon=     1 RMS=4.11D-05 Max=2.28D-04 NDo=     1
 LinEq1:  Iter=166 NonCon=     1 RMS=1.17D-05 Max=9.66D-05 NDo=     1
 LinEq1:  Iter=167 NonCon=     1 RMS=3.05D-06 Max=2.25D-05 NDo=     1
 LinEq1:  Iter=168 NonCon=     1 RMS=6.04D-07 Max=4.18D-06 NDo=     1
 LinEq1:  Iter=169 NonCon=     1 RMS=1.69D-07 Max=1.70D-06 NDo=     1
 LinEq1:  Iter=170 NonCon=     1 RMS=4.35D-08 Max=2.87D-07 NDo=     1
 LinEq1:  Iter=171 NonCon=     0 RMS=7.29D-09 Max=7.68D-08 NDo=     1
 Linear equations converged to 1.678D-08 1.678D-07 after   171 iterations.
 Angle between quadratic step and gradient=  52.08 degrees.
     ILin= 1 X=0.000D+00 Y=-1.754745637333D+02 DE= 0.00D+00 F= -1.48D-05
     ILin= 2 X=1.000D+00 Y=-1.754745711827D+02 DE=-7.45D-06
 Iteration  25 EE= -175.474571182736     Delta-E=       -0.000007449399 Grad=1.292D-05 Max rot=    0.0004 deg.
 Rotation gradient small -- convergence achieved.
 Orbital symmetries in SymMO:
    1=4    2=1    3=4    4=1    5=1    6=1    7=4    8=1    9=4   10=1
   11=1   12=4   13=3   14=4   15=1   16=1   17=3   18=1   19=2   20=4
   21=2   22=3   23=1   24=4   25=1   26=4   27=1   28=1   29=4   30=1
   31=4   32=3   33=4   34=2   35=3   36=1   37=1   38=4   39=2   40=1
   41=3   42=4   43=1   44=1   45=4   46=4   47=1   48=1   49=1   50=4
   51=1   52=1   53=4   54=4   55=1   56=1   57=4
 Orbital symmetries in SymMO:
    1=4    2=1    3=4    4=1    5=1    6=1    7=4    8=1    9=4   10=1
   11=1   12=4   13=3   14=4   15=1   16=1   17=3   18=1   19=2   20=4
   21=2   22=3   23=1   24=4   25=1   26=4   27=1   28=1   29=4   30=1
   31=4   32=3   33=4   34=2   35=3   36=1   37=1   38=4   39=2   40=1
   41=3   42=4   43=1   44=1   45=4   46=4   47=1   48=1   49=1   50=4
   51=1   52=1   53=4   54=4   55=1   56=1   57=4
 SCF Done:  E(ULC-wHPBE) =  -175.474571183     a.u. after   25 cycles
            Convg  =    0.1292D-04                   389 Fock formations.
              S**2 = -0.0000                  -V/T =  1.9187
 <Sx>= 0.0000 <Sy>= 0.0000 <Sz>= 0.0000 <S**2>=-0.0000 S=-0.0000
 <L.S>= 0.000000000000E+00
 Annihilation of the first spin contaminant:
 S**2 before annihilation    -0.0000,   after     0.0000
 Leave Link  508 at Thu Mar  5 12:38:02 2020, MaxMem=  6710886400 cpu:            1967.2 elap:             126.1
 (Enter /opt/ohpc/pub/libs/gaussian/g16-A.03/sandybridge/g16/l601.exe)
 Copying SCF densities to generalized density rwf, IOpCl= 1 IROHF=0.

 **********************************************************************

            Population analysis using the SCF density.

 **********************************************************************

 Orbital symmetries:
 Alpha Orbitals:
       Occupied  (B2) (A1) (B2) (A1) (A1) (A1) (B2) (A1) (B2) (A1)
                 (A1) (B2) (B1) (B2) (A1) (A1) (B1) (A1)
       Virtual   (A2) (B2) (A2) (B1) (A1) (B2) (A1) (B2) (A1) (A1)
                 (B2) (A1) (B2) (B1) (B2) (A2) (B1) (A1) (A1) (B2)
                 (A2) (A1) (B1) (B2) (A1) (A1) (B2) (B2) (A1) (A1)
                 (A1) (B2) (A1) (A1) (B2) (B2) (A1) (A1) (B2)
 Beta  Orbitals:
       Occupied  (B2) (A1) (B2) (A1) (A1) (A1) (B2) (A1) (B2) (A1)
                 (A1) (B2) (B1) (B2) (A1) (A1) (B1) (A1)
       Virtual   (A2) (B2) (A2) (B1) (A1) (B2) (A1) (B2) (A1) (A1)
                 (B2) (A1) (B2) (B1) (B2) (A2) (B1) (A1) (A1) (B2)
                 (A2) (A1) (B1) (B2) (A1) (A1) (B2) (B2) (A1) (A1)
                 (A1) (B2) (A1) (A1) (B2) (B2) (A1) (A1) (B2)
 The electronic state is 1-A1.
 Alpha  occ. eigenvalues --   -9.37417  -9.37408  -9.36271  -9.36269  -9.29509
 Alpha  occ. eigenvalues --   -0.21687  -0.14867  -0.05920   0.01476   0.06658
 Alpha  occ. eigenvalues --    0.10043   0.13300   0.13930   0.15865   0.19707
 Alpha  occ. eigenvalues --    0.24095   0.30708   0.42527
 Alpha virt. eigenvalues --    0.04281   0.19977   0.23854   0.31793   0.33156
 Alpha virt. eigenvalues --    0.35675   0.39599   0.39822   0.41258   0.52259
 Alpha virt. eigenvalues --    0.52354   0.60766   0.62647   0.67896   0.71070
 Alpha virt. eigenvalues --    0.75714   0.77587   0.78356   0.80434   0.82457
 Alpha virt. eigenvalues --    0.83266   0.85398   0.85879   0.91650   0.93400
 Alpha virt. eigenvalues --    1.02715   1.03425   1.07426   1.09340   1.14104
 Alpha virt. eigenvalues --    1.15206   1.16624   1.19840   1.28570   1.28669
 Alpha virt. eigenvalues --    1.35029   1.39046   1.62181   1.65327
  Beta  occ. eigenvalues --   -9.37417  -9.37408  -9.36271  -9.36269  -9.29509
  Beta  occ. eigenvalues --   -0.21687  -0.14867  -0.05920   0.01476   0.06658
  Beta  occ. eigenvalues --    0.10043   0.13300   0.13930   0.15865   0.19707
  Beta  occ. eigenvalues --    0.24095   0.30708   0.42527
  Beta virt. eigenvalues --    0.04281   0.19977   0.23854   0.31793   0.33156
  Beta virt. eigenvalues --    0.35675   0.39599   0.39822   0.41258   0.52259
  Beta virt. eigenvalues --    0.52354   0.60766   0.62647   0.67896   0.71070
  Beta virt. eigenvalues --    0.75714   0.77587   0.78356   0.80434   0.82457
  Beta virt. eigenvalues --    0.83266   0.85398   0.85879   0.91650   0.93400
  Beta virt. eigenvalues --    1.02715   1.03425   1.07426   1.09340   1.14104
  Beta virt. eigenvalues --    1.15206   1.16624   1.19840   1.28570   1.28669
  Beta virt. eigenvalues --    1.35029   1.39046   1.62181   1.65327
          Condensed to atoms (all electrons):
               1          2          3          4          5          6
     1  C    5.326432   0.114441  -0.166482  -0.024237   0.268969   0.000090
     2  C    0.114441   6.357241   0.438112  -0.024170  -0.024237   0.020023
     3  C   -0.166482   0.438112   5.872651   0.438112  -0.166482  -0.004130
     4  C   -0.024237  -0.024170   0.438112   6.357241   0.114441   0.020023
     5  C    0.268969  -0.024237  -0.166482   0.114441   5.326432   0.000090
     6  H    0.000090   0.020023  -0.004130   0.020023   0.000090   1.369702
     7  H    0.319823  -0.142533   0.014330   0.000912  -0.005385  -0.037269
     8  H    0.051074  -0.574759  -0.216918   0.026181   0.011343  -0.004374
     9  H    0.030742  -0.124952  -0.161760  -0.124952   0.030742  -0.000559
    10  H    0.011343   0.026181  -0.216918  -0.574759   0.051074  -0.004374
    11  H   -0.005385   0.000912   0.014330  -0.142533   0.319823  -0.037269
               7          8          9         10         11
     1  C    0.319823   0.051074   0.030742   0.011343  -0.005385
     2  C   -0.142533  -0.574759  -0.124952   0.026181   0.000912
     3  C    0.014330  -0.216918  -0.161760  -0.216918   0.014330
     4  C    0.000912   0.026181  -0.124952  -0.574759  -0.142533
     5  C   -0.005385   0.011343   0.030742   0.051074   0.319823
     6  H   -0.037269  -0.004374  -0.000559  -0.004374  -0.037269
     7  H    0.707096   0.030422   0.000225   0.000116   0.000370
     8  H    0.030422   1.584424   0.104897   0.004821   0.000116
     9  H    0.000225   0.104897   1.176887   0.104897   0.000225
    10  H    0.000116   0.004821   0.104897   1.584424   0.030422
    11  H    0.000370   0.000116   0.000225   0.030422   0.707096
          Atomic-Atomic Spin Densities.
               1          2          3          4          5          6
     1  C   -0.000000   0.000000  -0.000000   0.000000  -0.000000  -0.000000
     2  C    0.000000  -0.000000  -0.000000  -0.000000   0.000000  -0.000000
     3  C   -0.000000  -0.000000   0.000000  -0.000000  -0.000000   0.000000
     4  C    0.000000  -0.000000  -0.000000  -0.000000   0.000000  -0.000000
     5  C   -0.000000   0.000000  -0.000000   0.000000  -0.000000  -0.000000
     6  H   -0.000000  -0.000000   0.000000  -0.000000  -0.000000   0.000000
     7  H    0.000000   0.000000  -0.000000   0.000000   0.000000   0.000000
     8  H   -0.000000   0.000000  -0.000000   0.000000  -0.000000  -0.000000
     9  H   -0.000000   0.000000   0.000000   0.000000  -0.000000   0.000000
    10  H   -0.000000   0.000000  -0.000000   0.000000  -0.000000  -0.000000
    11  H    0.000000   0.000000  -0.000000   0.000000   0.000000   0.000000
               7          8          9         10         11
     1  C    0.000000  -0.000000  -0.000000  -0.000000   0.000000
     2  C    0.000000   0.000000   0.000000   0.000000   0.000000
     3  C   -0.000000  -0.000000   0.000000  -0.000000  -0.000000
     4  C    0.000000   0.000000   0.000000   0.000000   0.000000
     5  C    0.000000  -0.000000  -0.000000  -0.000000   0.000000
     6  H    0.000000  -0.000000   0.000000  -0.000000   0.000000
     7  H   -0.000000   0.000000   0.000000   0.000000  -0.000000
     8  H    0.000000   0.000000   0.000000   0.000000   0.000000
     9  H    0.000000   0.000000  -0.000000   0.000000   0.000000
    10  H    0.000000   0.000000   0.000000   0.000000   0.000000
    11  H   -0.000000   0.000000   0.000000   0.000000  -0.000000
 Mulliken charges and spin densities:
               1          2
     1  C    0.073189  -0.000000
     2  C   -0.066259   0.000000
     3  C    0.155154  -0.000000
     4  C   -0.066259   0.000000
     5  C    0.073189  -0.000000
     6  H   -0.321953  -0.000000
     7  H    0.111893   0.000000
     8  H   -0.017227   0.000000
     9  H   -0.036393  -0.000000
    10  H   -0.017227   0.000000
    11  H    0.111893   0.000000
 Sum of Mulliken charges =  -0.00000   0.00000
 Mulliken charges and spin densities with hydrogens summed into heavy atoms:
               1          2
     1  C   -0.136871  -0.000000
     2  C   -0.083486   0.000000
     3  C    0.118761  -0.000000
     4  C   -0.083486   0.000000
     5  C    0.185082  -0.000000
 Electronic spatial extent (au):  <R**2>=            421.3716
 Charge=              0.0000 electrons
 Dipole moment (field-independent basis, Debye):
    X=             -0.0000    Y=              0.0000    Z=              2.1653  Tot=              2.1653
 Quadrupole moment (field-independent basis, Debye-Ang):
   XX=            -35.8294   YY=            -31.3842   ZZ=            -51.5594
   XY=              0.0000   XZ=              0.0000   YZ=              0.0000
 Traceless Quadrupole moment (field-independent basis, Debye-Ang):
   XX=              3.7616   YY=              8.2068   ZZ=            -11.9684
   XY=              0.0000   XZ=              0.0000   YZ=              0.0000
 Octapole moment (field-independent basis, Debye-Ang**2):
  XXX=              0.0000  YYY=              0.0000  ZZZ=             34.1881  XYY=              0.0000
  XXY=              0.0000  XXZ=              2.6895  XZZ=              0.0000  YZZ=              0.0000
  YYZ=            -14.0758  XYZ=             -0.0000
 Hexadecapole moment (field-independent basis, Debye-Ang**3):
 XXXX=            -39.0723 YYYY=           -365.4075 ZZZZ=           -458.1441 XXXY=             -0.0000
 XXXZ=             -0.0000 YYYX=             -0.0000 YYYZ=              0.0000 ZZZX=             -0.0000
 ZZZY=              0.0000 XXYY=            -64.5007 XXZZ=            -65.0740 YYZZ=           -114.0282
 XXYZ=             -0.0000 YYXZ=              0.0000 ZZXY=             -0.0000
 N-N= 1.450218997931D+02 E-N=-7.325421521038D+02  KE= 1.909957411745D+02
 Symmetry A1   KE= 1.120502015379D+02
 Symmetry A2   KE= 1.209388100223D-16
 Symmetry B1   KE= 4.051451597208D+00
 Symmetry B2   KE= 7.489408803937D+01
 Symmetry A1   SP=-4.457864396438D-16
 Symmetry A2   SP= 2.770064381768D-17
 Symmetry B1   SP=-1.078260483788D-15
 Symmetry B2   SP= 2.045295397232D-15
                          Isotropic Fermi Contact Couplings
        Atom                 a.u.       MegaHertz       Gauss      10(-4) cm-1
     1  C(13)             -0.00000      -0.00000      -0.00000      -0.00000
     2  C(13)             -0.00000      -0.00000      -0.00000      -0.00000
     3  C(13)              0.00000       0.00000       0.00000       0.00000
     4  C(13)             -0.00000      -0.00000      -0.00000      -0.00000
     5  C(13)             -0.00000      -0.00000      -0.00000      -0.00000
     6  H(1)              -0.00000      -0.00000      -0.00000      -0.00000
     7  H(1)               0.00000       0.00000       0.00000       0.00000
     8  H(1)               0.00000       0.00000       0.00000       0.00000
     9  H(1)              -0.00000      -0.00000      -0.00000      -0.00000
    10  H(1)               0.00000       0.00000       0.00000       0.00000
    11  H(1)               0.00000       0.00000       0.00000       0.00000
 --------------------------------------------------------
       Center         ----  Spin Dipole Couplings  ----
                      3XX-RR        3YY-RR        3ZZ-RR
 --------------------------------------------------------
     1   Atom       -0.000000      0.000000     -0.000000
     2   Atom        0.000000     -0.000000      0.000000
     3   Atom       -0.000000     -0.000000      0.000000
     4   Atom        0.000000     -0.000000      0.000000
     5   Atom       -0.000000      0.000000     -0.000000
     6   Atom        0.000000     -0.000000     -0.000000
     7   Atom       -0.000000     -0.000000      0.000000
     8   Atom       -0.000000      0.000000     -0.000000
     9   Atom       -0.000000     -0.000000      0.000000
    10   Atom       -0.000000      0.000000     -0.000000
    11   Atom       -0.000000     -0.000000      0.000000
 --------------------------------------------------------
                        XY            XZ            YZ
 --------------------------------------------------------
     1   Atom        0.000000      0.000000      0.000000
     2   Atom       -0.000000      0.000000      0.000000
     3   Atom        0.000000      0.000000      0.000000
     4   Atom       -0.000000     -0.000000     -0.000000
     5   Atom       -0.000000     -0.000000     -0.000000
     6   Atom       -0.000000      0.000000     -0.000000
     7   Atom        0.000000     -0.000000     -0.000000
     8   Atom       -0.000000      0.000000      0.000000
     9   Atom        0.000000      0.000000      0.000000
    10   Atom        0.000000     -0.000000     -0.000000
    11   Atom        0.000000      0.000000      0.000000
 --------------------------------------------------------


 ---------------------------------------------------------------------------------
              Anisotropic Spin Dipole Couplings in Principal Axis System
 ---------------------------------------------------------------------------------

       Atom             a.u.   MegaHertz   Gauss  10(-4) cm-1        Axes

              Baa    -0.0000    -0.000    -0.000    -0.000  1.0000 -0.0000  0.0000
     1 C(13)  Bbb    -0.0000    -0.000    -0.000    -0.000 -0.0000 -0.1481  0.9890
              Bcc     0.0000     0.000     0.000     0.000  0.0000  0.9890  0.1481
 
              Baa    -0.0000    -0.000    -0.000    -0.000  0.0000  0.8276 -0.5613
     2 C(13)  Bbb     0.0000     0.000     0.000     0.000  1.0000 -0.0000  0.0000
              Bcc     0.0000     0.000     0.000     0.000  0.0000  0.5613  0.8276
 
              Baa    -0.0000    -0.000    -0.000    -0.000 -0.0000  1.0000 -0.0000
     3 C(13)  Bbb    -0.0000    -0.000    -0.000    -0.000  1.0000  0.0000 -0.0000
              Bcc     0.0000     0.000     0.000     0.000  0.0000  0.0000  1.0000
 
              Baa    -0.0000    -0.000    -0.000    -0.000  0.0000  0.8276  0.5613
     4 C(13)  Bbb     0.0000     0.000     0.000     0.000  1.0000 -0.0000  0.0000
              Bcc     0.0000     0.000     0.000     0.000 -0.0000 -0.5613  0.8276
 
              Baa    -0.0000    -0.000    -0.000    -0.000  1.0000  0.0000  0.0000
     5 C(13)  Bbb    -0.0000    -0.000    -0.000    -0.000 -0.0000  0.1481  0.9890
              Bcc     0.0000     0.000     0.000     0.000 -0.0000  0.9890 -0.1481
 
              Baa    -0.0000    -0.000    -0.000    -0.000  0.0000  1.0000  0.0000
     6 H(1)   Bbb    -0.0000    -0.000    -0.000    -0.000 -0.0000 -0.0000  1.0000
              Bcc     0.0000     0.000     0.000     0.000  1.0000 -0.0000  0.0000
 
              Baa    -0.0000    -0.000    -0.000    -0.000  0.0000  0.9467  0.3220
     7 H(1)   Bbb    -0.0000    -0.000    -0.000    -0.000  1.0000 -0.0000  0.0000
              Bcc     0.0000     0.000     0.000     0.000 -0.0000 -0.3220  0.9467
 
              Baa    -0.0000    -0.000    -0.000    -0.000 -0.0000 -0.3000  0.9539
     8 H(1)   Bbb    -0.0000    -0.000    -0.000    -0.000  1.0000 -0.0000  0.0000
              Bcc     0.0000     0.000     0.000     0.000  0.0000  0.9539  0.3000
 
              Baa    -0.0000    -0.000    -0.000    -0.000  1.0000 -0.0000 -0.0000
     9 H(1)   Bbb    -0.0000    -0.000    -0.000    -0.000  0.0000  1.0000 -0.0000
              Bcc     0.0000     0.000     0.000     0.000  0.0000  0.0000  1.0000
 
              Baa    -0.0000    -0.000    -0.000    -0.000  0.0000  0.3000  0.9539
    10 H(1)   Bbb    -0.0000    -0.000    -0.000    -0.000  1.0000 -0.0000  0.0000
              Bcc     0.0000     0.000     0.000     0.000  0.0000  0.9539 -0.3000
 
              Baa    -0.0000    -0.000    -0.000    -0.000  0.0000  0.9467 -0.3220
    11 H(1)   Bbb    -0.0000    -0.000    -0.000    -0.000  1.0000 -0.0000 -0.0000
              Bcc     0.0000     0.000     0.000     0.000  0.0000  0.3220  0.9467
 

 ---------------------------------------------------------------------------------

 No NMR shielding tensors so no spin-rotation constants.
 Leave Link  601 at Thu Mar  5 12:38:03 2020, MaxMem=  6710886400 cpu:               3.2 elap:               0.2
 (Enter /opt/ohpc/pub/libs/gaussian/g16-A.03/sandybridge/g16/l9999.exe)

 Test job not archived.
 1\1\GINC-CNODE212\SP\ULC-wHPBE\6-31G\C5H6\SMGO234\05-Mar-2020\0\\#P uL
 C-wHPBE/6-31G iop(3/130=0221900000, 3/131=0221900000, 3/119=0778100000
 , 3/120=0778100000) scf=(conver=6,fermi,ndamp=35,noincfock,novaracc,vs
 hift=500,xqc)\\H6 C5\\0,1\C,0,-1.206512,0.69658,0.\C,0,-1.206512,-0.69
 658,0.\C,0,0.,-1.39316,0.\C,0,1.206512,-0.69658,0.\C,0,1.206512,0.6965
 8,0.\H,0,0.,2.482681,0.\H,0,-2.150065,1.24134,0.\H,0,-2.150065,-1.2413
 4,0.\H,0,0.,-2.482681,0.\H,0,2.150065,-1.24134,0.\H,0,2.150065,1.24134
 ,0.\\Version=EM64L-G16RevA.03\State=1-A1\HF=-175.4745712\S2=0.\S2-1=0.
 \S2A=0.\RMSD=3.449e-07\Dipole=0.,-0.8519024,0.\Quadrupole=6.1015748,-8
 .8982174,2.7966426,0.,0.,0.\PG=C02V [C2(H1C1H1),SGV(C4H4)]\\@


 A true friend is someone who is there for
 you when he'd rather be anywhere else.
                               -- Len Wein
 Job cpu time:       0 days  0 hours 34 minutes 21.1 seconds.
 Elapsed time:       0 days  0 hours  2 minutes 12.8 seconds.
 File lengths (MBytes):  RWF=    272 Int=      0 D2E=      0 Chk=     32 Scr=     32
 Normal termination of Gaussian 16 at Thu Mar  5 12:38:03 2020.
