 Entering Gaussian System, Link 0=g16
 Input=a1b_tune_c14.gjf
 Output=a1b_tune_c14.log
 Initial command:
 /opt/ohpc/pub/libs/gaussian/g16-A.03/sandybridge/g16/l1.exe "/scratch/smgo234/Ocelot/test/a1b/tuning_a1b_acycle0/Gau-75660.inp" -scrdir="/scratch/smgo234/Ocelot/test/a1b/tuning_a1b_acycle0/"
 Entering Link 1 = /opt/ohpc/pub/libs/gaussian/g16-A.03/sandybridge/g16/l1.exe PID=     75661.
  
 Copyright (c) 1988,1990,1992,1993,1995,1998,2003,2009,2016,
            Gaussian, Inc.  All Rights Reserved.
  
 This is part of the Gaussian(R) 16 program.  It is based on
 the Gaussian(R) 09 system (copyright 2009, Gaussian, Inc.),
 the Gaussian(R) 03 system (copyright 2003, Gaussian, Inc.),
 the Gaussian(R) 98 system (copyright 1998, Gaussian, Inc.),
 the Gaussian(R) 94 system (copyright 1995, Gaussian, Inc.),
 the Gaussian 92(TM) system (copyright 1992, Gaussian, Inc.),
 the Gaussian 90(TM) system (copyright 1990, Gaussian, Inc.),
 the Gaussian 88(TM) system (copyright 1988, Gaussian, Inc.),
 the Gaussian 86(TM) system (copyright 1986, Carnegie Mellon
 University), and the Gaussian 82(TM) system (copyright 1983,
 Carnegie Mellon University). Gaussian is a federally registered
 trademark of Gaussian, Inc.
  
 This software contains proprietary and confidential information,
 including trade secrets, belonging to Gaussian, Inc.
  
 This software is provided under written license and may be
 used, copied, transmitted, or stored only in accord with that
 written license.
  
 The following legend is applicable only to US Government
 contracts under FAR:
  
                    RESTRICTED RIGHTS LEGEND
  
 Use, reproduction and disclosure by the US Government is
 subject to restrictions as set forth in subparagraphs (a)
 and (c) of the Commercial Computer Software - Restricted
 Rights clause in FAR 52.227-19.
  
 Gaussian, Inc.
 340 Quinnipiac St., Bldg. 40, Wallingford CT 06492
  
  
 ---------------------------------------------------------------
 Warning -- This program may not be used in any manner that
 competes with the business of Gaussian, Inc. or will provide
 assistance to any competitor of Gaussian, Inc.  The licensee
 of this program is prohibited from giving any competitor of
 Gaussian, Inc. access to this program.  By using this program,
 the user acknowledges that Gaussian, Inc. is engaged in the
 business of creating and licensing software in the field of
 computational chemistry and represents and warrants to the
 licensee that it is not a competitor of Gaussian, Inc. and that
 it will not use this program in any manner prohibited above.
 ---------------------------------------------------------------
  

 Cite this work as:
 Gaussian 16, Revision A.03,
 M. J. Frisch, G. W. Trucks, H. B. Schlegel, G. E. Scuseria, 
 M. A. Robb, J. R. Cheeseman, G. Scalmani, V. Barone, 
 G. A. Petersson, H. Nakatsuji, X. Li, M. Caricato, A. V. Marenich, 
 J. Bloino, B. G. Janesko, R. Gomperts, B. Mennucci, H. P. Hratchian, 
 J. V. Ortiz, A. F. Izmaylov, J. L. Sonnenberg, D. Williams-Young, 
 F. Ding, F. Lipparini, F. Egidi, J. Goings, B. Peng, A. Petrone, 
 T. Henderson, D. Ranasinghe, V. G. Zakrzewski, J. Gao, N. Rega, 
 G. Zheng, W. Liang, M. Hada, M. Ehara, K. Toyota, R. Fukuda, 
 J. Hasegawa, M. Ishida, T. Nakajima, Y. Honda, O. Kitao, H. Nakai, 
 T. Vreven, K. Throssell, J. A. Montgomery, Jr., J. E. Peralta, 
 F. Ogliaro, M. J. Bearpark, J. J. Heyd, E. N. Brothers, K. N. Kudin, 
 V. N. Staroverov, T. A. Keith, R. Kobayashi, J. Normand, 
 K. Raghavachari, A. P. Rendell, J. C. Burant, S. S. Iyengar, 
 J. Tomasi, M. Cossi, J. M. Millam, M. Klene, C. Adamo, R. Cammi, 
 J. W. Ochterski, R. L. Martin, K. Morokuma, O. Farkas, 
 J. B. Foresman, and D. J. Fox, Gaussian, Inc., Wallingford CT, 2016.
 
 ******************************************
 Gaussian 16:  EM64L-G16RevA.03 25-Dec-2016
                 5-Mar-2020 
 ******************************************
 %mem=50GB
 %nproc=16
 Will use up to   16 processors via shared memory.
 ----------------------------------------------------------------------
 #P uLC-wHPBE/6-31G iop(3/130=0273800000, 3/131=0273800000, 3/119=07262
 00000, 3/120=0726200000) scf=(conver=6,fermi,ndamp=35,noincfock,novara
 cc,vshift=500,xqc)
 ----------------------------------------------------------------------
 1/38=1,172=1/1;
 2/12=2,17=6,18=5,40=1/2;
 3/5=1,6=6,11=2,25=1,30=1,74=-71,116=2,119=726200000,120=726200000,130=273800000,131=273800000/1,2,3;
 4//1;
 5/5=100002,6=6,8=3,10=500,13=1,18=-1,22=13,38=1,93=35/2,8;
 6/7=2,8=2,9=2,10=2,28=1/1;
 99/5=1,9=1/99;
 Leave Link    1 at Thu Mar  5 12:50:40 2020, MaxMem=  6710886400 cpu:              15.4 elap:               1.0
 (Enter /opt/ohpc/pub/libs/gaussian/g16-A.03/sandybridge/g16/l101.exe)
 -----
 H6 C5
 -----
 Symbolic Z-matrix:
 Charge =  1 Multiplicity = 2
 C                    -1.20651   0.69658   0. 
 C                    -1.20651  -0.69658   0. 
 C                     0.       -1.39316   0. 
 C                     1.20651  -0.69658   0. 
 C                     1.20651   0.69658   0. 
 H                     0.        2.48268   0. 
 H                    -2.15007   1.24134   0. 
 H                    -2.15007  -1.24134   0. 
 H                     0.       -2.48268   0. 
 H                     2.15007  -1.24134   0. 
 H                     2.15007   1.24134   0. 
 
 ITRead=  0  0  0  0  0  0  0  0  0  0  0
 MicOpt= -1 -1 -1 -1 -1 -1 -1 -1 -1 -1 -1
 NAtoms=     11 NQM=       11 NQMF=       0 NMMI=      0 NMMIF=      0
                NMic=       0 NMicF=      0.
                    Isotopes and Nuclear Properties:
 (Nuclear quadrupole moments (NQMom) in fm**2, nuclear magnetic moments (NMagM)
  in nuclear magnetons)

  Atom         1           2           3           4           5           6           7           8           9          10
 IAtWgt=          12          12          12          12          12           1           1           1           1           1
 AtmWgt=  12.0000000  12.0000000  12.0000000  12.0000000  12.0000000   1.0078250   1.0078250   1.0078250   1.0078250   1.0078250
 NucSpn=           0           0           0           0           0           1           1           1           1           1
 AtZEff=  -0.0000000  -0.0000000  -0.0000000  -0.0000000  -0.0000000  -0.0000000  -0.0000000  -0.0000000  -0.0000000  -0.0000000
 NQMom=    0.0000000   0.0000000   0.0000000   0.0000000   0.0000000   0.0000000   0.0000000   0.0000000   0.0000000   0.0000000
 NMagM=    0.0000000   0.0000000   0.0000000   0.0000000   0.0000000   2.7928460   2.7928460   2.7928460   2.7928460   2.7928460
 AtZNuc=   6.0000000   6.0000000   6.0000000   6.0000000   6.0000000   1.0000000   1.0000000   1.0000000   1.0000000   1.0000000

  Atom        11
 IAtWgt=           1
 AtmWgt=   1.0078250
 NucSpn=           1
 AtZEff=  -0.0000000
 NQMom=    0.0000000
 NMagM=    2.7928460
 AtZNuc=   1.0000000
 Leave Link  101 at Thu Mar  5 12:50:40 2020, MaxMem=  6710886400 cpu:               2.7 elap:               0.2
 (Enter /opt/ohpc/pub/libs/gaussian/g16-A.03/sandybridge/g16/l202.exe)
                          Input orientation:                          
 ---------------------------------------------------------------------
 Center     Atomic      Atomic             Coordinates (Angstroms)
 Number     Number       Type             X           Y           Z
 ---------------------------------------------------------------------
      1          6           0       -1.206512    0.696580    0.000000
      2          6           0       -1.206512   -0.696580    0.000000
      3          6           0        0.000000   -1.393160    0.000000
      4          6           0        1.206512   -0.696580    0.000000
      5          6           0        1.206512    0.696580    0.000000
      6          1           0        0.000000    2.482681    0.000000
      7          1           0       -2.150065    1.241340    0.000000
      8          1           0       -2.150065   -1.241340    0.000000
      9          1           0        0.000000   -2.482681    0.000000
     10          1           0        2.150065   -1.241340    0.000000
     11          1           0        2.150065    1.241340    0.000000
 ---------------------------------------------------------------------
                    Distance matrix (angstroms):
                    1          2          3          4          5
     1  C    0.000000
     2  C    1.393160   0.000000
     3  C    2.413024   1.393160   0.000000
     4  C    2.786320   2.413024   1.393160   0.000000
     5  C    2.413024   2.786320   2.413024   1.393160   0.000000
     6  H    2.155418   3.400496   3.875841   3.400496   2.155418
     7  H    1.089521   2.155418   3.400496   3.875841   3.400496
     8  H    2.155418   1.089521   2.155418   3.400496   3.875841
     9  H    3.400496   2.155418   1.089521   2.155418   3.400496
    10  H    3.875841   3.400496   2.155418   1.089521   2.155418
    11  H    3.400496   3.875841   3.400496   2.155418   1.089521
                    6          7          8          9         10
     6  H    0.000000
     7  H    2.482681   0.000000
     8  H    4.300129   2.482680   0.000000
     9  H    4.965362   4.300129   2.482681   0.000000
    10  H    4.300129   4.965362   4.300130   2.482681   0.000000
    11  H    2.482681   4.300130   4.965362   4.300129   2.482680
                   11
    11  H    0.000000
 Stoichiometry    C5H6(1+,2)
 Framework group  C2V[C2(HCH),SGV(C4H4)]
 Deg. of freedom    10
 Full point group                 C2V     NOp   4
 Largest Abelian subgroup         C2V     NOp   4
 Largest concise Abelian subgroup C2      NOp   2
                         Standard orientation:                         
 ---------------------------------------------------------------------
 Center     Atomic      Atomic             Coordinates (Angstroms)
 Number     Number       Type             X           Y           Z
 ---------------------------------------------------------------------
      1          6           0       -0.000000    1.206512   -0.928773
      2          6           0       -0.000000    1.206512    0.464387
      3          6           0        0.000000    0.000000    1.160967
      4          6           0       -0.000000   -1.206512    0.464387
      5          6           0       -0.000000   -1.206512   -0.928773
      6          1           0       -0.000000   -0.000000   -2.714874
      7          1           0       -0.000000    2.150065   -1.473533
      8          1           0       -0.000000    2.150065    1.009147
      9          1           0        0.000000    0.000000    2.250488
     10          1           0       -0.000000   -2.150065    1.009147
     11          1           0       -0.000000   -2.150065   -1.473533
 ---------------------------------------------------------------------
 Rotational constants (GHZ):           8.2868568           5.7099792           3.3806054
 Leave Link  202 at Thu Mar  5 12:50:40 2020, MaxMem=  6710886400 cpu:               0.5 elap:               0.1
 (Enter /opt/ohpc/pub/libs/gaussian/g16-A.03/sandybridge/g16/l301.exe)
 Standard basis: 6-31G (6D, 7F)
 Ernie: Thresh=  0.10000D-02 Tol=  0.10000D-05 Strict=F.
 There are    27 symmetry adapted cartesian basis functions of A1  symmetry.
 There are     4 symmetry adapted cartesian basis functions of A2  symmetry.
 There are     6 symmetry adapted cartesian basis functions of B1  symmetry.
 There are    20 symmetry adapted cartesian basis functions of B2  symmetry.
 There are    27 symmetry adapted basis functions of A1  symmetry.
 There are     4 symmetry adapted basis functions of A2  symmetry.
 There are     6 symmetry adapted basis functions of B1  symmetry.
 There are    20 symmetry adapted basis functions of B2  symmetry.
    57 basis functions,   134 primitive gaussians,    57 cartesian basis functions
    18 alpha electrons       17 beta electrons
       nuclear repulsion energy       145.0218997931 Hartrees.
 IExCor=33909 DFT=T Ex+Corr=LC-wHPBE ExCW=0 ScaHFX=  1.000000
 ScaDFX=  1.000000  1.000000  1.000000  1.000000 ScalE2=  1.000000  1.000000
 IRadAn=      5 IRanWt=     -1 IRanGd=            0 ICorTp=0 IEmpDi=  4
 HFx  wShort=  0.000000 wLong=  0.400000 cFull=  0.000000 cShort=  0.000000 cLong=  0.726200
 DFx  wShort=  0.000000 wLong=  0.400000 cFull=  0.000000 cShort=  1.000000 cLong=  0.726200
 NAtoms=   11 NActive=   11 NUniq=    7 SFac= 2.47D+00 NAtFMM=   60 NAOKFM=F Big=F
 Integral buffers will be    131072 words long.
 Raffenetti 2 integral format.
 Two-electron integral symmetry is turned on.
 Leave Link  301 at Thu Mar  5 12:50:40 2020, MaxMem=  6710886400 cpu:               0.9 elap:               0.1
 (Enter /opt/ohpc/pub/libs/gaussian/g16-A.03/sandybridge/g16/l302.exe)
 NPDir=0 NMtPBC=     1 NCelOv=     1 NCel=       1 NClECP=     1 NCelD=      1
         NCelK=      1 NCelE2=     1 NClLst=     1 CellRange=     0.0.
 One-electron integrals computed using PRISM.
 One-electron integral symmetry used in STVInt
 NBasis=    57 RedAO= T EigKep=  2.88D-03  NBF=    27     4     6    20
 NBsUse=    57 1.00D-06 EigRej= -1.00D+00 NBFU=    27     4     6    20
 Precomputing XC quadrature grid using
 IXCGrd= 4 IRadAn=           5 IRanWt=          -1 IRanGd=           0 AccXCQ= 0.00D+00.
 Generated NRdTot=       0 NPtTot=           0 NUsed=           0 NTot=          32
 NSgBfM=    57    57    57    57    57 MxSgAt=    11 MxSgA2=    11.
 Leave Link  302 at Thu Mar  5 12:50:40 2020, MaxMem=  6710886400 cpu:               2.7 elap:               0.2
 (Enter /opt/ohpc/pub/libs/gaussian/g16-A.03/sandybridge/g16/l303.exe)
 DipDrv:  MaxL=1.
 Leave Link  303 at Thu Mar  5 12:50:40 2020, MaxMem=  6710886400 cpu:               0.4 elap:               0.0
 (Enter /opt/ohpc/pub/libs/gaussian/g16-A.03/sandybridge/g16/l401.exe)
 ExpMin= 1.61D-01 ExpMax= 3.05D+03 ExpMxC= 4.57D+02 IAcc=3 IRadAn=         5 AccDes= 0.00D+00
 Harris functional with IExCor=33909 and IRadAn=       5 diagonalized for initial guess.
 HarFok:  IExCor=33909 AccDes= 0.00D+00 IRadAn=         5 IDoV= 1 UseB2=F ITyADJ=14
 ICtDFT=  3500011 ScaDFX=  1.000000  1.000000  1.000000  1.000000
 FoFCou: FMM=F IPFlag=           0 FMFlag=      100000 FMFlg1=           0
         NFxFlg=           0 DoJE=T BraDBF=F KetDBF=T FulRan=T
         wScrn=  0.000000 ICntrl=       500 IOpCl=  0 I1Cent=   200000004 NGrid=           0
         NMat0=    1 NMatS0=      1 NMatT0=    0 NMatD0=    1 NMtDS0=    0 NMtDT0=    0
 Petite list used in FoFCou.
 Harris En= -191.519698127935    
 JPrj=0 DoOrth=F DoCkMO=F.
 Initial guess orbital symmetries:
 Alpha Orbitals:
       Occupied  (A1) (B2) (A1) (B2) (A1) (A1) (B2) (A1) (B2) (A1)
                 (A1) (B2) (B2) (A1) (B1) (A1) (A2) (B1)
       Virtual   (B2) (A1) (A2) (B1) (A1) (B2) (A1) (B2) (A1) (A1)
                 (B2) (A1) (B2) (B1) (B2) (A1) (B1) (A2) (A1) (B2)
                 (A1) (A2) (B1) (B2) (A1) (A1) (B2) (A1) (B2) (A1)
                 (A1) (B2) (A1) (A1) (B2) (B2) (A1) (A1) (B2)
 Beta  Orbitals:
       Occupied  (A1) (B2) (A1) (B2) (A1) (A1) (B2) (A1) (B2) (A1)
                 (A1) (B2) (B2) (A1) (B1) (A1) (A2)
       Virtual   (B1) (B2) (A1) (A2) (B1) (A1) (B2) (A1) (B2) (A1)
                 (A1) (B2) (A1) (B2) (B1) (B2) (A1) (B1) (A2) (A1)
                 (B2) (A1) (A2) (B1) (B2) (A1) (A1) (B2) (A1) (B2)
                 (A1) (A1) (B2) (A1) (A1) (B2) (B2) (A1) (A1) (B2)
 The electronic state of the initial guess is 2-B1.
 Initial guess <Sx>= 0.0000 <Sy>= 0.0000 <Sz>= 0.5000 <S**2>= 0.7500 S= 0.5000
 Leave Link  401 at Thu Mar  5 12:50:41 2020, MaxMem=  6710886400 cpu:               3.0 elap:               0.2
 (Enter /opt/ohpc/pub/libs/gaussian/g16-A.03/sandybridge/g16/l502.exe)
 Keep R1 and R2 ints in memory in symmetry-blocked form, NReq=16815659.
 FoFCou: FMM=F IPFlag=           0 FMFlag=           0 FMFlg1=           0
         NFxFlg=           0 DoJE=F BraDBF=F KetDBF=F FulRan=T
         wScrn=  0.000000 ICntrl=       600 IOpCl=  0 I1Cent=           0 NGrid=           0
         NMat0=    1 NMatS0=   1653 NMatT0=    0 NMatD0=    1 NMtDS0=    0 NMtDT0=    0
 Petite list used in FoFCou.
 UHF open shell SCF:
 Using DIIS extrapolation, IDIIS=    10.
 NGot=  6710886400 LenX=  6710059583 LenY=  6710055893
 Requested convergence on RMS density matrix=1.00D-06 within  32 cycles.
 Requested convergence on MAX density matrix=1.00D-04.
 Requested convergence on             energy=1.00D-04.
 Virtual orbitals will be shifted by   0.500 hartree.
 No special actions if energy rises.
 Dynamic level shift is on during FON iterations.

 Cycle   1  Pass 1  IDiag  1:
 E= -196.260856948517    
 DIIS: error= 5.93D-02 at cycle   1 NSaved=   1.
 NSaved= 1 IEnMin= 1 EnMin= -196.260856948517     IErMin= 1 ErrMin= 5.93D-02
 ErrMax= 5.93D-02  0.00D+00 EMaxC= 1.00D+00 BMatC= 2.95D-01 BMatP= 2.95D-01
 IDIUse=1 WtCom= 1.00D+00 WtEn= 0.00D+00
 Coeff-Com:  0.100D+01
 Coeff:      0.100D+01
 Gap=     0.036 Goal=   None    Shift=    0.500
 T= 1905. Gap= 0.494 NK=0 IS=   19 IE=   57 IFin=   18
          NO(<0.9)=   0  NV(>0.1)=   0     18.00e < EF      0.00e >EF  Err=0.0D+00
 Gap=     0.058 Goal=   None    Shift=    0.500
 T= 1905. Gap= 0.564 NK=0 IS=   18 IE=   57 IFin=   17
          NO(<0.9)=   0  NV(>0.1)=   0     17.00e < EF      0.00e >EF  Err=0.0D+00
 GapD=    0.036 DampG=0.250 DampE=0.500 DampFc=0.1250 IDamp=-1.
 Damping current iteration by 1.25D-01
 RMSDP=8.00D-03 MaxDP=6.44D-02              OVMax= 1.31D-01

 Cycle   2  Pass 1  IDiag  1:
 E= -196.280753089943     Delta-E=       -0.019896141426 Rises=F Damp=T
 DIIS: error= 5.15D-02 at cycle   2 NSaved=   2.
 NSaved= 2 IEnMin= 2 EnMin= -196.280753089943     IErMin= 2 ErrMin= 5.15D-02
 ErrMax= 5.15D-02  0.00D+00 EMaxC= 1.00D+00 BMatC= 2.11D-01 BMatP= 2.95D-01
 IDIUse=1 WtCom= 1.00D+00 WtEn= 0.00D+00
 Coeff-Com: -0.497D+01 0.597D+01
 Coeff:     -0.497D+01 0.597D+01
 Gap=     0.135 Goal=   None    Shift=    0.500
 T= 1878. Gap= 0.615 NK=4 IS=   19 IE=   24 IFin=   18
          NO(<0.9)=   0  NV(>0.1)=   0     18.00e < EF      0.00e >EF  Err=0.0D+00
 Gap=     0.164 Goal=   None    Shift=    0.500
 T= 1878. Gap= 0.667 NK=4 IS=   18 IE=   21 IFin=   17
          NO(<0.9)=   0  NV(>0.1)=   0     17.00e < EF      0.00e >EF  Err=0.0D+00
 GapD=    0.135 DampG=1.000 DampE=0.500 DampFc=0.5000 IDamp=-1.
 Damping current iteration by 5.00D-01
 RMSDP=7.51D-03 MaxDP=6.30D-02 DE=-1.99D-02 OVMax= 5.51D-02

 Cycle   3  Pass 1  IDiag  1:
 E= -196.338231622740     Delta-E=       -0.057478532798 Rises=F Damp=T
 DIIS: error= 2.78D-02 at cycle   3 NSaved=   3.
 NSaved= 3 IEnMin= 3 EnMin= -196.338231622740     IErMin= 3 ErrMin= 2.78D-02
 ErrMax= 2.78D-02  0.00D+00 EMaxC= 1.00D+00 BMatC= 4.55D-02 BMatP= 2.11D-01
 IDIUse=1 WtCom= 1.00D+00 WtEn= 0.00D+00
 Coeff-Com:  0.228D+01-0.382D+01 0.254D+01
 Coeff:      0.228D+01-0.382D+01 0.254D+01
 Gap=     0.167 Goal=   None    Shift=    0.500
 T= 1755. Gap= 0.667 NK=4 IS=   19 IE=   24 IFin=   18
          NO(<0.9)=   0  NV(>0.1)=   0     18.00e < EF      0.00e >EF  Err=0.0D+00
 Gap=     0.217 Goal=   None    Shift=    0.500
 T= 1755. Gap= 0.718 NK=4 IS=   18 IE=   21 IFin=   17
          NO(<0.9)=   0  NV(>0.1)=   0     17.00e < EF      0.00e >EF  Err=0.0D+00
 GapD=    0.167 DampG=1.000 DampE=0.500 DampFc=0.5000 IDamp=-1.
 Damping current iteration by 5.00D-01
 RMSDP=3.79D-03 MaxDP=3.25D-02 DE=-5.75D-02 OVMax= 2.34D-02

 Cycle   4  Pass 1  IDiag  1:
 E= -196.360904714038     Delta-E=       -0.022673091298 Rises=F Damp=T
 DIIS: error= 1.63D-02 at cycle   4 NSaved=   4.
 NSaved= 4 IEnMin= 4 EnMin= -196.360904714038     IErMin= 4 ErrMin= 1.63D-02
 ErrMax= 1.63D-02  0.00D+00 EMaxC= 1.00D+00 BMatC= 1.19D-02 BMatP= 4.55D-02
 IDIUse=1 WtCom= 1.00D+00 WtEn= 0.00D+00
 Coeff-Com:  0.801D+00-0.591D+00-0.216D+01 0.295D+01
 Coeff:      0.801D+00-0.591D+00-0.216D+01 0.295D+01
 Gap=     0.183 Goal=   None    Shift=    0.500
 T= 1532. Gap= 0.683 NK=4 IS=   19 IE=   24 IFin=   18
          NO(<0.9)=   0  NV(>0.1)=   0     18.00e < EF      0.00e >EF  Err=0.0D+00
 Gap=     0.231 Goal=   None    Shift=    0.500
 T= 1532. Gap= 0.732 NK=4 IS=   18 IE=   21 IFin=   17
          NO(<0.9)=   0  NV(>0.1)=   0     17.00e < EF      0.00e >EF  Err=0.0D+00
 GapD=    0.183 DampG=1.000 DampE=0.500 DampFc=0.5000 IDamp=-1.
 Damping current iteration by 5.00D-01
 RMSDP=2.11D-03 MaxDP=2.28D-02 DE=-2.27D-02 OVMax= 1.67D-02

 Cycle   5  Pass 1  IDiag  1:
 E= -196.371608606890     Delta-E=       -0.010703892852 Rises=F Damp=T
 DIIS: error= 1.08D-02 at cycle   5 NSaved=   5.
 NSaved= 5 IEnMin= 5 EnMin= -196.371608606890     IErMin= 5 ErrMin= 1.08D-02
 ErrMax= 1.08D-02  0.00D+00 EMaxC= 1.00D+00 BMatC= 4.07D-03 BMatP= 1.19D-02
 IDIUse=1 WtCom= 1.00D+00 WtEn= 0.00D+00
 Coeff-Com: -0.845D+00 0.125D+01 0.307D+00-0.408D+01 0.437D+01
 Coeff:     -0.845D+00 0.125D+01 0.307D+00-0.408D+01 0.437D+01
 Gap=     0.189 Goal=   None    Shift=    0.500
 T= 1199. Gap= 0.689 NK=4 IS=   19 IE=   24 IFin=   18
          NO(<0.9)=   0  NV(>0.1)=   0     18.00e < EF      0.00e >EF  Err=0.0D+00
 Gap=     0.235 Goal=   None    Shift=    0.500
 T= 1199. Gap= 0.735 NK=4 IS=   18 IE=   21 IFin=   17
          NO(<0.9)=   0  NV(>0.1)=   0     17.00e < EF      0.00e >EF  Err=0.0D+00
 GapD=    0.189 DampG=1.000 DampE=0.500 DampFc=0.5000 IDamp=-1.
 Damping current iteration by 5.00D-01
 RMSDP=1.49D-03 MaxDP=1.97D-02 DE=-1.07D-02 OVMax= 2.04D-02

 Cycle   6  Pass 1  IDiag  1:
 E= -196.377301032397     Delta-E=       -0.005692425507 Rises=F Damp=T
 DIIS: error= 7.57D-03 at cycle   6 NSaved=   6.
 NSaved= 6 IEnMin= 6 EnMin= -196.377301032397     IErMin= 6 ErrMin= 7.57D-03
 ErrMax= 7.57D-03  0.00D+00 EMaxC= 1.00D+00 BMatC= 1.65D-03 BMatP= 4.07D-03
 IDIUse=1 WtCom= 1.00D+00 WtEn= 0.00D+00
 Coeff-Com:  0.306D+00-0.534D+00 0.439D+00 0.123D+01-0.529D+01 0.484D+01
 Coeff:      0.306D+00-0.534D+00 0.439D+00 0.123D+01-0.529D+01 0.484D+01
 Gap=     0.192 Goal=   None    Shift=    0.500
 T=  923. Gap= 0.692 NK=4 IS=   19 IE=   24 IFin=   18
          NO(<0.9)=   0  NV(>0.1)=   0     18.00e < EF      0.00e >EF  Err=0.0D+00
 Gap=     0.235 Goal=   None    Shift=    0.500
 T=  923. Gap= 0.735 NK=4 IS=   18 IE=   21 IFin=   17
          NO(<0.9)=   0  NV(>0.1)=   0     17.00e < EF      0.00e >EF  Err=0.0D+00
 GapD=    0.192 DampG=1.000 DampE=1.000 DampFc=1.0000 IDamp=-1.
 RMSDP=1.13D-03 MaxDP=1.65D-02 DE=-5.69D-03 OVMax= 1.84D-02

 Cycle   7  Pass 1  IDiag  1:
 E= -196.384419839957     Delta-E=       -0.007118807559 Rises=F Damp=F
 DIIS: error= 3.37D-03 at cycle   7 NSaved=   7.
 NSaved= 7 IEnMin= 7 EnMin= -196.384419839957     IErMin= 7 ErrMin= 3.37D-03
 ErrMax= 3.37D-03  0.00D+00 EMaxC= 1.00D+00 BMatC= 2.67D-04 BMatP= 1.65D-03
 IDIUse=1 WtCom= 1.00D+00 WtEn= 0.00D+00
 Coeff-Com:  0.141D+00-0.177D+00-0.322D+00 0.101D+01 0.140D+01-0.399D+01
 Coeff-Com:  0.294D+01
 Coeff:      0.141D+00-0.177D+00-0.322D+00 0.101D+01 0.140D+01-0.399D+01
 Coeff:      0.294D+01
 Gap=     0.195 Goal=   None    Shift=    0.500
 T=  644. Gap= 0.695 NK=4 IS=   19 IE=   24 IFin=   18
          NO(<0.9)=   0  NV(>0.1)=   0     18.00e < EF      0.00e >EF  Err=0.0D+00
 Gap=     0.234 Goal=   None    Shift=    0.500
 T=  644. Gap= 0.735 NK=4 IS=   18 IE=   21 IFin=   17
          NO(<0.9)=   0  NV(>0.1)=   0     17.00e < EF      0.00e >EF  Err=0.0D+00
 GapD=    0.195 DampG=1.000 DampE=1.000 DampFc=1.0000 IDamp=-1.
 RMSDP=3.97D-04 MaxDP=6.08D-03 DE=-7.12D-03 OVMax= 1.65D-02

 Cycle   8  Pass 1  IDiag  1:
 E= -196.384971526081     Delta-E=       -0.000551686124 Rises=F Damp=F
 DIIS: error= 2.39D-03 at cycle   8 NSaved=   8.
 NSaved= 8 IEnMin= 8 EnMin= -196.384971526081     IErMin= 8 ErrMin= 2.39D-03
 ErrMax= 2.39D-03  0.00D+00 EMaxC= 1.00D+00 BMatC= 1.56D-04 BMatP= 2.67D-04
 IDIUse=1 WtCom= 1.00D+00 WtEn= 0.00D+00
 Coeff-Com: -0.545D-01 0.106D+00-0.149D+00-0.295D+00 0.232D+01-0.295D+01
 Coeff-Com:  0.579D+00 0.145D+01
 Coeff:     -0.545D-01 0.106D+00-0.149D+00-0.295D+00 0.232D+01-0.295D+01
 Coeff:      0.579D+00 0.145D+01
 Gap=     0.197 Goal=   None    Shift=    0.500
 T=  350. Gap= 0.697 NK=4 IS=   19 IE=   24 IFin=   18
          NO(<0.9)=   0  NV(>0.1)=   0     18.00e < EF      0.00e >EF  Err=0.0D+00
 Gap=     0.234 Goal=   None    Shift=    0.500
 T=  350. Gap= 0.734 NK=4 IS=   18 IE=   21 IFin=   17
          NO(<0.9)=   0  NV(>0.1)=   0     17.00e < EF      0.00e >EF  Err=0.0D+00
 GapD=    0.197 DampG=1.000 DampE=1.000 DampFc=1.0000 IDamp=-1.
 RMSDP=2.64D-04 MaxDP=3.47D-03 DE=-5.52D-04 OVMax= 1.10D-02

 Cycle   9  Pass 1  IDiag  1:
 E= -196.385269108923     Delta-E=       -0.000297582842 Rises=F Damp=F
 DIIS: error= 1.92D-03 at cycle   9 NSaved=   9.
 NSaved= 9 IEnMin= 9 EnMin= -196.385269108923     IErMin= 9 ErrMin= 1.92D-03
 ErrMax= 1.92D-03  0.00D+00 EMaxC= 1.00D+00 BMatC= 1.07D-04 BMatP= 1.56D-04
 IDIUse=1 WtCom= 1.00D+00 WtEn= 0.00D+00
 Coeff-Com: -0.877D-01 0.963D-01 0.376D+00-0.112D+01-0.728D+00 0.298D+01
 Coeff-Com: -0.241D+01-0.159D+01 0.349D+01
 Coeff:     -0.877D-01 0.963D-01 0.376D+00-0.112D+01-0.728D+00 0.298D+01
 Coeff:     -0.241D+01-0.159D+01 0.349D+01
 Gap=     0.200 Goal=   None    Shift=    0.500
 T=   19. Gap= 0.701 NK=4 IS=   19 IE=   24 IFin=   18
          NO(<0.9)=   0  NV(>0.1)=   0     18.00e < EF      0.00e >EF  Err=0.0D+00
 Gap=     0.232 Goal=   None    Shift=    0.500
 T=   19. Gap= 0.732 NK=4 IS=   18 IE=   21 IFin=   17
          NO(<0.9)=   0  NV(>0.1)=   0     17.00e < EF      0.00e >EF  Err=0.0D+00
 GapD=    0.200 DampG=1.000 DampE=1.000 DampFc=1.0000 IDamp=-1.
 RMSDP=2.89D-04 MaxDP=4.34D-03 DE=-2.98D-04 OVMax= 1.26D-02

 Cycle  10  Pass 1  IDiag  1:
 E= -196.385562259070     Delta-E=       -0.000293150147 Rises=F Damp=F
 DIIS: error= 1.83D-03 at cycle  10 NSaved=  10.
 NSaved=10 IEnMin=10 EnMin= -196.385562259070     IErMin=10 ErrMin= 1.83D-03
 ErrMax= 1.83D-03  0.00D+00 EMaxC= 1.00D+00 BMatC= 8.19D-05 BMatP= 1.07D-04
 IDIUse=1 WtCom= 1.00D+00 WtEn= 0.00D+00
 Coeff-Com: -0.271D-01 0.309D-01 0.135D+00-0.403D+00-0.337D+00 0.120D+01
 Coeff-Com: -0.778D+00-0.901D+00 0.608D+00 0.148D+01
 Coeff:     -0.271D-01 0.309D-01 0.135D+00-0.403D+00-0.337D+00 0.120D+01
 Coeff:     -0.778D+00-0.901D+00 0.608D+00 0.148D+01
 Gap=     0.202 Goal=   None    Shift=    0.500
 Gap=     0.232 Goal=   None    Shift=    0.500
 GapD=    0.202 DampG=1.000 DampE=1.000 DampFc=1.0000 IDamp=-1.
 RMSDP=2.03D-04 MaxDP=3.58D-03 DE=-2.93D-04 OVMax= 1.00D-02

 Cycle  11  Pass 1  IDiag  1:
 E= -196.385758549157     Delta-E=       -0.000196290087 Rises=F Damp=F
 DIIS: error= 1.77D-03 at cycle  11 NSaved=  11.
 NSaved=11 IEnMin=11 EnMin= -196.385758549157     IErMin=11 ErrMin= 1.77D-03
 ErrMax= 1.77D-03  0.00D+00 EMaxC= 1.00D+00 BMatC= 7.28D-05 BMatP= 8.19D-05
 IDIUse=1 WtCom= 1.00D+00 WtEn= 0.00D+00
 Coeff-Com: -0.142D-01 0.145D-01 0.286D-01-0.704D-01-0.259D-01 0.138D+00
 Coeff-Com: -0.148D+00-0.157D+00 0.114D+01-0.303D+01 0.313D+01
 Coeff:     -0.142D-01 0.145D-01 0.286D-01-0.704D-01-0.259D-01 0.138D+00
 Coeff:     -0.148D+00-0.157D+00 0.114D+01-0.303D+01 0.313D+01
 Gap=     0.204 Goal=   None    Shift=    0.500
 Gap=     0.231 Goal=   None    Shift=    0.500
 GapD=    0.204 DampG=1.000 DampE=1.000 DampFc=1.0000 IDamp=-1.
 RMSDP=1.79D-04 MaxDP=3.47D-03 DE=-1.96D-04 OVMax= 9.61D-03

 Cycle  12  Pass 1  IDiag  1:
 E= -196.385932230385     Delta-E=       -0.000173681227 Rises=F Damp=F
 DIIS: error= 1.75D-03 at cycle  12 NSaved=  12.
 NSaved=12 IEnMin=12 EnMin= -196.385932230385     IErMin=12 ErrMin= 1.75D-03
 ErrMax= 1.75D-03  0.00D+00 EMaxC= 1.00D+00 BMatC= 7.02D-05 BMatP= 7.28D-05
 IDIUse=1 WtCom= 1.00D+00 WtEn= 0.00D+00
 Large coefficients: NSaved= 12 BigCof=   16.47 CofMax=   10.00 Det=-6.54D-09
 Inversion failed.  Reducing to 11 matrices.
 Large coefficients: NSaved= 11 BigCof=   16.47 CofMax=   10.00 Det=-6.54D-09
 Inversion failed.  Reducing to 10 matrices.
 Large coefficients: NSaved= 10 BigCof=   15.95 CofMax=   10.00 Det=-6.66D-09
 Inversion failed.  Reducing to  9 matrices.
 Large coefficients: NSaved=  9 BigCof=   11.88 CofMax=   10.00 Det=-9.71D-09
 Inversion failed.  Reducing to  8 matrices.
 Large coefficients: NSaved=  8 BigCof=   10.71 CofMax=   10.00 Det=-1.10D-08
 Inversion failed.  Reducing to  7 matrices.
 Coeff-Com:  0.584D-02-0.453D-01-0.193D+00 0.196D+01-0.699D+01 0.948D+01
 Coeff-Com: -0.322D+01
 Coeff:      0.584D-02-0.453D-01-0.193D+00 0.196D+01-0.699D+01 0.948D+01
 Coeff:     -0.322D+01
 Gap=     0.202 Goal=   None    Shift=    0.500
 Gap=     0.232 Goal=   None    Shift=    0.500
 GapD=    0.202 DampG=1.000 DampE=1.000 DampFc=1.0000 IDamp=-1.
 RMSDP=5.11D-05 MaxDP=1.03D-03 DE=-1.74D-04 OVMax= 1.84D-03

 Cycle  13  Pass 1  IDiag  1:
 E= -196.385962082200     Delta-E=       -0.000029851815 Rises=F Damp=F
 DIIS: error= 1.68D-03 at cycle  13 NSaved=   8.
 NSaved= 8 IEnMin= 8 EnMin= -196.385962082200     IErMin= 8 ErrMin= 1.68D-03
 ErrMax= 1.68D-03  0.00D+00 EMaxC= 1.00D+00 BMatC= 6.93D-05 BMatP= 7.02D-05
 IDIUse=1 WtCom= 1.00D+00 WtEn= 0.00D+00
 Coeff-Com:  0.750D-02 0.213D-01-0.241D+00 0.110D+01-0.466D+01 0.783D+01
 Coeff-Com: -0.375D+01 0.699D+00
 Coeff:      0.750D-02 0.213D-01-0.241D+00 0.110D+01-0.466D+01 0.783D+01
 Coeff:     -0.375D+01 0.699D+00
 Gap=     0.201 Goal=   None    Shift=    0.500
 Gap=     0.232 Goal=   None    Shift=    0.500
 GapD=    0.201 DampG=1.000 DampE=1.000 DampFc=1.0000 IDamp=-1.
 RMSDP=2.47D-05 MaxDP=2.56D-04 DE=-2.99D-05 OVMax= 8.45D-04

 Cycle  14  Pass 1  IDiag  1:
 E= -196.385962270826     Delta-E=       -0.000000188626 Rises=F Damp=F
 DIIS: error= 1.66D-03 at cycle  14 NSaved=   9.
 NSaved= 9 IEnMin= 9 EnMin= -196.385962270826     IErMin= 9 ErrMin= 1.66D-03
 ErrMax= 1.66D-03  0.00D+00 EMaxC= 1.00D+00 BMatC= 6.98D-05 BMatP= 6.93D-05
 IDIUse=1 WtCom= 1.00D+00 WtEn= 0.00D+00
 Coeff-Com:  0.613D-02 0.334D-01-0.235D+00 0.640D+00-0.296D+01 0.568D+01
 Coeff-Com: -0.220D+01-0.151D+01 0.155D+01
 Coeff:      0.613D-02 0.334D-01-0.235D+00 0.640D+00-0.296D+01 0.568D+01
 Coeff:     -0.220D+01-0.151D+01 0.155D+01
 Gap=     0.201 Goal=   None    Shift=    0.500
 Gap=     0.232 Goal=   None    Shift=    0.500
 GapD=    0.201 DampG=1.000 DampE=1.000 DampFc=1.0000 IDamp=-1.
 RMSDP=1.15D-05 MaxDP=1.26D-04 DE=-1.89D-07 OVMax= 5.04D-04

 Cycle  15  Pass 1  IDiag  1:
 E= -196.385963333712     Delta-E=       -0.000001062887 Rises=F Damp=F
 DIIS: error= 1.66D-03 at cycle  15 NSaved=  10.
 NSaved=10 IEnMin=10 EnMin= -196.385963333712     IErMin= 9 ErrMin= 1.66D-03
 ErrMax= 1.66D-03  0.00D+00 EMaxC= 1.00D+00 BMatC= 7.01D-05 BMatP= 6.93D-05
 IDIUse=1 WtCom= 1.00D+00 WtEn= 0.00D+00
 Large coefficients: NSaved= 10 BigCof=   17.66 CofMax=   10.00 Det=-4.15D-09
 Inversion failed.  Reducing to  9 matrices.
 Large coefficients: NSaved=  9 BigCof=   16.31 CofMax=   10.00 Det=-4.43D-09
 Inversion failed.  Reducing to  8 matrices.
 Large coefficients: NSaved=  8 BigCof=   16.94 CofMax=   10.00 Det=-4.43D-09
 Inversion failed.  Reducing to  7 matrices.
 Large coefficients: NSaved=  7 BigCof=   15.22 CofMax=   10.00 Det=-4.49D-09
 Inversion failed.  Reducing to  6 matrices.
 Coeff-Com: -0.148D+01 0.423D+01-0.126D+01-0.126D+01-0.591D+01 0.668D+01
 Coeff:     -0.148D+01 0.423D+01-0.126D+01-0.126D+01-0.591D+01 0.668D+01
 Gap=     0.201 Goal=   None    Shift=    0.500
 Gap=     0.233 Goal=   None    Shift=    0.500
 GapD=    0.201 DampG=1.000 DampE=1.000 DampFc=1.0000 IDamp=-1.
 RMSDP=2.01D-05 MaxDP=2.88D-04 DE=-1.06D-06 OVMax= 9.42D-04

 Cycle  16  Pass 1  IDiag  1:
 E= -196.385947817493     Delta-E=        0.000015516219 Rises=F Damp=F
 DIIS: error= 1.65D-03 at cycle  16 NSaved=   7.
 NSaved= 7 IEnMin= 6 EnMin= -196.385963333712     IErMin= 7 ErrMin= 1.65D-03
 ErrMax= 1.65D-03  0.00D+00 EMaxC= 1.00D+00 BMatC= 7.05D-05 BMatP= 6.93D-05
 IDIUse=1 WtCom= 1.00D+00 WtEn= 0.00D+00
 Coeff-Com: -0.202D+01 0.562D+01-0.335D+01 0.271D+01-0.871D+01 0.484D+01
 Coeff-Com:  0.191D+01
 Coeff:     -0.202D+01 0.562D+01-0.335D+01 0.271D+01-0.871D+01 0.484D+01
 Coeff:      0.191D+01
 Gap=     0.201 Goal=   None    Shift=    0.000
 Gap=     0.233 Goal=   None    Shift=    0.000
 GapD=    0.201 DampG=1.000 DampE=1.000 DampFc=1.0000 IDamp=-1.
 RMSDP=7.42D-05 MaxDP=1.42D-03 DE= 1.55D-05 OVMax= 4.35D-03

 Cycle  17  Pass 1  IDiag  1:
 E= -196.385879687788     Delta-E=        0.000068129705 Rises=F Damp=F
 DIIS: error= 1.66D-03 at cycle  17 NSaved=   8.
 NSaved= 8 IEnMin= 6 EnMin= -196.385963333712     IErMin= 7 ErrMin= 1.65D-03
 ErrMax= 1.66D-03  0.00D+00 EMaxC= 1.00D+00 BMatC= 6.93D-05 BMatP= 6.93D-05
 IDIUse=1 WtCom= 1.00D+00 WtEn= 0.00D+00
 Coeff-Com:  0.642D+00-0.533D+00-0.364D+01 0.868D+01 0.326D+01-0.873D+01
 Coeff-Com: -0.707D+01 0.839D+01
 Coeff:      0.642D+00-0.533D+00-0.364D+01 0.868D+01 0.326D+01-0.873D+01
 Coeff:     -0.707D+01 0.839D+01
 Gap=     0.196 Goal=   None    Shift=    0.000
 Gap=     0.235 Goal=   None    Shift=    0.000
 GapD=    0.196 DampG=1.000 DampE=1.000 DampFc=1.0000 IDamp=-1.
 RMSDP=3.85D-04 MaxDP=7.60D-03 DE= 6.81D-05 OVMax= 2.22D-02

 Cycle  18  Pass 1  IDiag  1:
 E= -196.385522332843     Delta-E=        0.000357354945 Rises=F Damp=F
 DIIS: error= 1.56D-03 at cycle  18 NSaved=   9.
 NSaved= 9 IEnMin= 6 EnMin= -196.385963333712     IErMin= 9 ErrMin= 1.56D-03
 ErrMax= 1.56D-03  0.00D+00 EMaxC= 1.00D+00 BMatC= 6.32D-05 BMatP= 6.93D-05
 IDIUse=1 WtCom= 1.00D+00 WtEn= 0.00D+00
 Large coefficients: NSaved=  9 BigCof=   45.05 CofMax=   10.00 Det=-3.84D-09
 Inversion failed.  Reducing to  8 matrices.
 Large coefficients: NSaved=  8 BigCof=   44.49 CofMax=   10.00 Det=-4.62D-09
 Inversion failed.  Reducing to  7 matrices.
 Large coefficients: NSaved=  7 BigCof=   43.65 CofMax=   10.00 Det=-4.99D-09
 Inversion failed.  Reducing to  6 matrices.
 Large coefficients: NSaved=  6 BigCof=   32.99 CofMax=   10.00 Det=-5.74D-09
 Inversion failed.  Reducing to  5 matrices.
 Large coefficients: NSaved=  5 BigCof=   13.26 CofMax=   10.00 Det=-8.56D-09
 Inversion failed.  Reducing to  4 matrices.
 Coeff-Com:  0.666D+01-0.814D+01-0.989D+00 0.346D+01
 Coeff:      0.666D+01-0.814D+01-0.989D+00 0.346D+01
 Gap=     0.186 Goal=   None    Shift=    0.000
 Gap=     0.241 Goal=   None    Shift=    0.000
 GapD=    0.186 DampG=1.000 DampE=1.000 DampFc=1.0000 IDamp=-1.
 RMSDP=9.18D-04 MaxDP=1.76D-02 DE= 3.57D-04 OVMax= 5.48D-02

 Cycle  19  Pass 1  IDiag  1:
 E= -196.384751352396     Delta-E=        0.000770980447 Rises=F Damp=F
 DIIS: error= 1.74D-03 at cycle  19 NSaved=   5.
 NSaved= 5 IEnMin= 2 EnMin= -196.385963333712     IErMin= 4 ErrMin= 1.56D-03
 ErrMax= 1.74D-03  0.00D+00 EMaxC= 1.00D+00 BMatC= 5.77D-05 BMatP= 6.32D-05
 IDIUse=1 WtCom= 1.00D+00 WtEn= 0.00D+00
 Coeff-Com:  0.478D+01-0.349D+01-0.535D+01 0.392D+01 0.113D+01
 Coeff:      0.478D+01-0.349D+01-0.535D+01 0.392D+01 0.113D+01
 Gap=     0.176 Goal=   None    Shift=    0.000
 Gap=     0.255 Goal=   None    Shift=    0.000
 GapD=    0.176 DampG=1.000 DampE=1.000 DampFc=1.0000 IDamp=-1.
 RMSDP=1.43D-03 MaxDP=2.94D-02 DE= 7.71D-04 OVMax= 8.49D-02

 Cycle  20  Pass 1  IDiag  1:
 E= -196.383810463693     Delta-E=        0.000940888703 Rises=F Damp=F
 DIIS: error= 2.27D-03 at cycle  20 NSaved=   6.
 NSaved= 6 IEnMin= 2 EnMin= -196.385963333712     IErMin= 4 ErrMin= 1.56D-03
 ErrMax= 2.27D-03  0.00D+00 EMaxC= 1.00D+00 BMatC= 9.61D-05 BMatP= 5.77D-05
 IDIUse=1 WtCom= 1.00D+00 WtEn= 0.00D+00
 Coeff-Com:  0.456D+01-0.337D+01-0.549D+01 0.402D+01 0.145D+01-0.165D+00
 Coeff:      0.456D+01-0.337D+01-0.549D+01 0.402D+01 0.145D+01-0.165D+00
 Gap=     0.179 Goal=   None    Shift=    0.000
 Gap=     0.257 Goal=   None    Shift=    0.000
 GapD=    0.179 DampG=1.000 DampE=1.000 DampFc=1.0000 IDamp=-1.
 RMSDP=2.28D-05 MaxDP=4.65D-04 DE= 9.41D-04 OVMax= 1.43D-03

 Cycle  21  Pass 1  IDiag  1:
 E= -196.383787779935     Delta-E=        0.000022683758 Rises=F Damp=F
 DIIS: error= 2.50D-03 at cycle  21 NSaved=   7.
 NSaved= 7 IEnMin= 2 EnMin= -196.385963333712     IErMin= 4 ErrMin= 1.56D-03
 ErrMax= 2.50D-03  0.00D+00 EMaxC= 1.00D+00 BMatC= 1.23D-04 BMatP= 5.77D-05
 IDIUse=1 WtCom= 1.00D+00 WtEn= 0.00D+00
 Large coefficients: NSaved=  7 BigCof=   11.24 CofMax=   10.00 Det=-3.58D-08
 Inversion failed.  Reducing to  6 matrices.
 Coeff-Com:  0.201D+01-0.344D+01 0.521D-01 0.867D+00 0.964D+01-0.814D+01
 Coeff:      0.201D+01-0.344D+01 0.521D-01 0.867D+00 0.964D+01-0.814D+01
 Gap=     0.170 Goal=   None    Shift=    0.000
 Gap=     0.258 Goal=   None    Shift=    0.000
 GapD=    0.170 DampG=1.000 DampE=1.000 DampFc=1.0000 IDamp=-1.
 RMSDP=1.63D-03 MaxDP=3.37D-02 DE= 2.27D-05 OVMax= 9.20D-02

 Cycle  22  Pass 1  IDiag  1:
 E= -196.382831100138     Delta-E=        0.000956679797 Rises=F Damp=F
 DIIS: error= 3.41D-03 at cycle  22 NSaved=   7.
 NSaved= 7 IEnMin= 2 EnMin= -196.385963333712     IErMin= 4 ErrMin= 1.56D-03
 ErrMax= 3.41D-03  0.00D+00 EMaxC= 1.00D+00 BMatC= 2.34D-04 BMatP= 6.32D-05
 IDIUse=1 WtCom= 1.00D+00 WtEn= 0.00D+00
 Coeff-Com:  0.203D+01-0.347D+01 0.636D-01 0.866D+00 0.966D+01-0.816D+01
 Coeff-Com:  0.339D-02
 Coeff:      0.203D+01-0.347D+01 0.636D-01 0.866D+00 0.966D+01-0.816D+01
 Coeff:      0.339D-02
 Gap=     0.173 Goal=   None    Shift=    0.000
 Gap=     0.258 Goal=   None    Shift=    0.000
 GapD=    0.173 DampG=1.000 DampE=1.000 DampFc=1.0000 IDamp=-1.
 RMSDP=8.73D-06 MaxDP=1.85D-04 DE= 9.57D-04 OVMax= 5.04D-04

 Cycle  23  Pass 1  IDiag  1:
 E= -196.382824349335     Delta-E=        0.000006750803 Rises=F Damp=F
 DIIS: error= 3.43D-03 at cycle  23 NSaved=   8.
 NSaved= 8 IEnMin= 2 EnMin= -196.385963333712     IErMin= 4 ErrMin= 1.56D-03
 ErrMax= 3.43D-03  0.00D+00 EMaxC= 1.00D+00 BMatC= 2.36D-04 BMatP= 6.32D-05
 IDIUse=1 WtCom= 1.00D+00 WtEn= 0.00D+00
 Large coefficients: NSaved=  8 BigCof=  183.34 CofMax=   10.00 Det=-4.48D-10
 Inversion failed.  Reducing to  7 matrices.
 Large coefficients: NSaved=  7 BigCof=  193.50 CofMax=   10.00 Det=-4.92D-10
 Inversion failed.  Reducing to  6 matrices.
 Large coefficients: NSaved=  6 BigCof=  243.34 CofMax=   10.00 Det=-7.48D-10
 Inversion failed.  Reducing to  5 matrices.
 Large coefficients: NSaved=  5 BigCof=  229.67 CofMax=   10.00 Det=-1.09D-09
 Inversion failed.  Reducing to  4 matrices.
 Large coefficients: NSaved=  4 BigCof=  229.72 CofMax=   10.00 Det=-1.12D-09
 Inversion failed.  Reducing to  3 matrices.
 Large coefficients: NSaved=  3 BigCof=  228.77 CofMax=   10.00 Det=-1.15D-09
 Inversion failed.  Reducing to  2 matrices.
 Large coefficients: NSaved=  2 BigCof=  277.02 CofMax=   10.00 Det=-2.90D-09
 Coeff-Com:  0.277D+03-0.276D+03
 Coeff:      0.277D+03-0.276D+03
 Gap=     0.177 Goal=   None    Shift=    0.000
 Gap=     0.241 Goal=   None    Shift=    0.000
 GapD=    0.177 DampG=1.000 DampE=1.000 DampFc=1.0000 IDamp=-1.
 RMSDP=2.45D-03 MaxDP=5.03D-02 DE= 6.75D-06 OVMax= 1.39D-01

 Cycle  24  Pass 1  IDiag  1:
 E= -196.384272246604     Delta-E=       -0.001447897269 Rises=F Damp=F
 DIIS: error= 2.55D-03 at cycle  24 NSaved=   3.
 NSaved= 3 IEnMin= 3 EnMin= -196.384272246604     IErMin= 3 ErrMin= 2.55D-03
 ErrMax= 2.55D-03  0.00D+00 EMaxC= 1.00D+00 BMatC= 1.24D-04 BMatP= 2.34D-04
 IDIUse=1 WtCom= 1.00D+00 WtEn= 0.00D+00
 Large coefficients: NSaved=  3 BigCof=  235.34 CofMax=   10.00 Det=-1.62D-09
 Inversion failed.  Reducing to  2 matrices.
 Coeff-Com: -0.783D+00 0.178D+01
 Coeff:     -0.783D+00 0.178D+01
 Gap=     0.199 Goal=   None    Shift=    0.000
 Gap=     0.228 Goal=   None    Shift=    0.000
 GapD=    0.199 DampG=1.000 DampE=1.000 DampFc=1.0000 IDamp=-1.
 RMSDP=2.04D-03 MaxDP=4.08D-02 DE=-1.45D-03 OVMax= 1.19D-01

 Cycle  25  Pass 1  IDiag  1:
 E= -196.385890758915     Delta-E=       -0.001618512310 Rises=F Damp=F
 DIIS: error= 3.59D-03 at cycle  25 NSaved=   3.
 NSaved= 3 IEnMin= 3 EnMin= -196.385890758915     IErMin= 2 ErrMin= 2.55D-03
 ErrMax= 3.59D-03  0.00D+00 EMaxC= 1.00D+00 BMatC= 2.28D-04 BMatP= 1.24D-04
 IDIUse=1 WtCom= 1.00D+00 WtEn= 0.00D+00
 Coeff-Com: -0.130D+01 0.177D+01 0.532D+00
 Coeff:     -0.130D+01 0.177D+01 0.532D+00
 Gap=     0.197 Goal=   None    Shift=    0.000
 Gap=     0.220 Goal=   None    Shift=    0.000
 GapD=    0.197 DampG=1.000 DampE=1.000 DampFc=1.0000 IDamp=-1.
 RMSDP=2.19D-03 MaxDP=4.96D-02 DE=-1.62D-03 OVMax= 1.22D-01

 Cycle  26  Pass 1  IDiag  1:
 E= -196.387085579727     Delta-E=       -0.001194820812 Rises=F Damp=F
 DIIS: error= 6.23D-03 at cycle  26 NSaved=   4.
 NSaved= 4 IEnMin= 4 EnMin= -196.387085579727     IErMin= 2 ErrMin= 2.55D-03
 ErrMax= 6.23D-03  0.00D+00 EMaxC= 1.00D+00 BMatC= 1.17D-03 BMatP= 1.24D-04
 IDIUse=1 WtCom= 1.00D+00 WtEn= 0.00D+00
 Coeff-Com: -0.489D+00 0.134D+01 0.417D+00-0.271D+00
 Coeff:     -0.489D+00 0.134D+01 0.417D+00-0.271D+00
 Gap=     0.183 Goal=   None    Shift=    0.500
 Gap=     0.225 Goal=   None    Shift=    0.500
 RMSDP=1.37D-03 MaxDP=2.81D-02 DE=-1.19D-03 OVMax= 7.76D-02

 Cycle  27  Pass 1  IDiag  1:
 E= -196.386397172997     Delta-E=        0.000688406729 Rises=F Damp=F
 DIIS: error= 5.17D-03 at cycle  27 NSaved=   5.
 NSaved= 5 IEnMin= 4 EnMin= -196.387085579727     IErMin= 2 ErrMin= 2.55D-03
 ErrMax= 5.17D-03  0.00D+00 EMaxC= 1.00D+00 BMatC= 7.20D-04 BMatP= 1.24D-04
 IDIUse=1 WtCom= 1.00D+00 WtEn= 0.00D+00
 Coeff-Com:  0.154D+00 0.108D+01 0.303D+00-0.186D+00-0.355D+00
 Coeff:      0.154D+00 0.108D+01 0.303D+00-0.186D+00-0.355D+00
 Gap=     0.156 Goal=   None    Shift=    0.000
 Gap=     0.240 Goal=   None    Shift=    0.000
 RMSDP=4.31D-03 MaxDP=9.15D-02 DE= 6.88D-04 OVMax= 2.60D-01

 Cycle  28  Pass 1  IDiag  1:
 E= -196.383466454058     Delta-E=        0.002930718940 Rises=F Damp=F
 DIIS: error= 2.65D-03 at cycle  28 NSaved=   6.
 NSaved= 6 IEnMin= 4 EnMin= -196.387085579727     IErMin= 2 ErrMin= 2.55D-03
 ErrMax= 2.65D-03  0.00D+00 EMaxC= 1.00D+00 BMatC= 1.35D-04 BMatP= 1.24D-04
 IDIUse=1 WtCom= 1.00D+00 WtEn= 0.00D+00
 Coeff-Com: -0.217D+01 0.184D+00-0.228D+00-0.171D+00 0.601D-01 0.332D+01
 Coeff:     -0.217D+01 0.184D+00-0.228D+00-0.171D+00 0.601D-01 0.332D+01
 Gap=     0.179 Goal=   None    Shift=    0.000
 Gap=     0.249 Goal=   None    Shift=    0.000
 GapD=    0.179 DampG=1.000 DampE=1.000 DampFc=1.0000 IDamp=-1.
 RMSDP=1.08D-03 MaxDP=1.98D-02 DE= 2.93D-03 OVMax= 6.68D-02

 Cycle  29  Pass 1  IDiag  1:
 E= -196.383898639892     Delta-E=       -0.000432185834 Rises=F Damp=F
 DIIS: error= 3.85D-03 at cycle  29 NSaved=   7.
 NSaved= 7 IEnMin= 4 EnMin= -196.387085579727     IErMin= 2 ErrMin= 2.55D-03
 ErrMax= 3.85D-03  0.00D+00 EMaxC= 1.00D+00 BMatC= 3.28D-04 BMatP= 1.24D-04
 IDIUse=1 WtCom= 1.00D+00 WtEn= 0.00D+00
 Coeff-Com: -0.182D+01 0.361D+00-0.367D+00-0.257D-01 0.939D-01 0.345D+01
 Coeff-Com: -0.695D+00
 Coeff:     -0.182D+01 0.361D+00-0.367D+00-0.257D-01 0.939D-01 0.345D+01
 Coeff:     -0.695D+00
 Gap=     0.178 Goal=   None    Shift=    0.000
 Gap=     0.254 Goal=   None    Shift=    0.000
 GapD=    0.178 DampG=1.000 DampE=1.000 DampFc=1.0000 IDamp=-1.
 RMSDP=3.87D-04 MaxDP=8.12D-03 DE=-4.32D-04 OVMax= 2.72D-02

 Cycle  30  Pass 1  IDiag  1:
 E= -196.383837185416     Delta-E=        0.000061454476 Rises=F Damp=F
 DIIS: error= 2.57D-03 at cycle  30 NSaved=   8.
 NSaved= 8 IEnMin= 4 EnMin= -196.387085579727     IErMin= 2 ErrMin= 2.55D-03
 ErrMax= 2.57D-03  0.00D+00 EMaxC= 1.00D+00 BMatC= 1.22D-04 BMatP= 1.24D-04
 IDIUse=1 WtCom= 1.00D+00 WtEn= 0.00D+00
 Coeff-Com: -0.127D+01-0.924D-01-0.489D+00 0.978D-01 0.832D-01 0.256D+01
 Coeff-Com: -0.131D+01 0.143D+01
 Coeff:     -0.127D+01-0.924D-01-0.489D+00 0.978D-01 0.832D-01 0.256D+01
 Coeff:     -0.131D+01 0.143D+01
 Gap=     0.175 Goal=   None    Shift=    0.000
 Gap=     0.263 Goal=   None    Shift=    0.000
 GapD=    0.175 DampG=1.000 DampE=1.000 DampFc=1.0000 IDamp=-1.
 RMSDP=6.58D-04 MaxDP=1.18D-02 DE= 6.15D-05 OVMax= 4.13D-02

 Cycle  31  Pass 1  IDiag  1:
 E= -196.383550796329     Delta-E=        0.000286389087 Rises=F Damp=F
 DIIS: error= 1.83D-03 at cycle  31 NSaved=   9.
 NSaved= 9 IEnMin= 4 EnMin= -196.387085579727     IErMin= 9 ErrMin= 1.83D-03
 ErrMax= 1.83D-03  0.00D+00 EMaxC= 1.00D+00 BMatC= 5.47D-05 BMatP= 1.22D-04
 IDIUse=1 WtCom= 1.00D+00 WtEn= 0.00D+00
 Coeff-Com: -0.120D+01-0.188D+00-0.487D+00 0.110D+00 0.781D-01 0.236D+01
 Coeff-Com: -0.124D+01 0.134D+01 0.234D+00
 Coeff:     -0.120D+01-0.188D+00-0.487D+00 0.110D+00 0.781D-01 0.236D+01
 Coeff:     -0.124D+01 0.134D+01 0.234D+00
 Gap=     0.175 Goal=   None    Shift=    0.000
 Gap=     0.263 Goal=   None    Shift=    0.000
 GapD=    0.175 DampG=1.000 DampE=1.000 DampFc=1.0000 IDamp=-1.
 RMSDP=1.38D-04 MaxDP=2.61D-03 DE= 2.86D-04 OVMax= 8.33D-03

 Cycle  32  Pass 1  IDiag  1:
 E= -196.383484948632     Delta-E=        0.000065847698 Rises=F Damp=F
 DIIS: error= 1.77D-03 at cycle  32 NSaved=  10.
 NSaved=10 IEnMin= 4 EnMin= -196.387085579727     IErMin=10 ErrMin= 1.77D-03
 ErrMax= 1.77D-03  0.00D+00 EMaxC= 1.00D+00 BMatC= 5.03D-05 BMatP= 5.47D-05
 IDIUse=1 WtCom= 1.00D+00 WtEn= 0.00D+00
 Large coefficients: NSaved= 10 BigCof=   35.34 CofMax=   10.00 Det=-6.89D-10
 Inversion failed.  Reducing to  9 matrices.
 Large coefficients: NSaved=  9 BigCof=   41.21 CofMax=   10.00 Det=-1.44D-09
 Inversion failed.  Reducing to  8 matrices.
 Large coefficients: NSaved=  8 BigCof=   17.80 CofMax=   10.00 Det=-5.30D-09
 Inversion failed.  Reducing to  7 matrices.
 Large coefficients: NSaved=  7 BigCof=   14.64 CofMax=   10.00 Det=-5.48D-09
 Inversion failed.  Reducing to  6 matrices.
 Coeff-Com: -0.132D+01-0.446D+00 0.157D+00-0.112D+00-0.354D+00 0.308D+01
 Coeff:     -0.132D+01-0.446D+00 0.157D+00-0.112D+00-0.354D+00 0.308D+01
 Gap=     0.162 Goal=   None    Shift=    0.000
 Gap=     0.249 Goal=   None    Shift=    0.000
 GapD=    0.162 DampG=1.000 DampE=1.000 DampFc=1.0000 IDamp=-1.
 RMSDP=2.89D-03 MaxDP=6.03D-02 DE= 6.58D-05 OVMax= 1.56D-01

 >>>>>>>>>> Convergence criterion not met.
 SCF Done:  E(ULC-wHPBE) =  -196.383484949     A.U. after   33 cycles
            NFock= 32  Conv=0.29D-02     -V/T= 2.0224
 <Sx>= 0.0000 <Sy>= 0.0000 <Sz>= 0.5000 <S**2>= 1.1636 S= 0.6890
 <L.S>= 0.000000000000E+00
 KE= 1.920900053933D+02 PE=-7.307006142655D+02 EE= 1.972052241305D+02
 Annihilation of the first spin contaminant:
 S**2 before annihilation     1.1636,   after     0.8390
 Leave Link  502 at Thu Mar  5 12:50:44 2020, MaxMem=  6710886400 cpu:              46.8 elap:               3.0
 (Enter /opt/ohpc/pub/libs/gaussian/g16-A.03/sandybridge/g16/l508.exe)
 Keep R1 and R2 ints in memory in symmetry-blocked form, NReq=16816059.
 FoFCou: FMM=F IPFlag=           0 FMFlag=           0 FMFlg1=           0
         NFxFlg=           0 DoJE=F BraDBF=F KetDBF=F FulRan=T
         wScrn=  0.000000 ICntrl=       600 IOpCl=  0 I1Cent=           0 NGrid=           0
         NMat0=    1 NMatS0=   1653 NMatT0=    0 NMatD0=    1 NMtDS0=    0 NMtDT0=    0
 Petite list used in FoFCou.
 Tight linear equation convergence will be used.
 ULC-wHPBE wavefunction.
 Quadratic Convergence SCF Method.
 Line search only if initial step raises energy.
 Iteration   1 EE= -196.380430400103                                    Grad=1.910D-02 Max rot=    0.7671 deg.
 Gradient too large for Newton-Raphson -- use scaled steepest descent instead.
     ILin= 1 X=0.000D+00 Y=-1.963804304001D+02 DE= 0.00D+00 F= -7.27D-04
     ILin= 2 X=3.000D-01 Y=-1.963806338477D+02 DE=-2.03D-04 F= -6.29D-04
     ILin= 3 X=6.000D-01 Y=-1.963808079451D+02 DE=-3.78D-04 F= -5.31D-04
     ILin= 4 X=1.200D+00 Y=-1.963810679548D+02 DE=-6.38D-04 F= -3.35D-04
     ILin= 5 X=2.400D+00 Y=-1.963812347214D+02 DE=-8.04D-04 F=  5.73D-05
     Accept linear search using points  4 and  5.
     An  expanding polynomial of degree  5 produced  2.2750
     Minimum is close to point  5 DX= -1.25D-01 DF= -2.95D-06 DXR=  5.49D-02 DFR=  3.67D-03 which will be used.
 Iteration   2 EE= -196.381234721362     Delta-E=       -0.000804321258 Grad=1.975D-02 Max rot=    0.5064 deg.
 Gradient too large for Newton-Raphson -- use scaled steepest descent instead.
     ILin= 1 X=0.000D+00 Y=-1.963812347214D+02 DE= 0.00D+00 F= -5.89D-04
     ILin= 2 X=8.000D-01 Y=-1.963815659187D+02 DE=-3.31D-04 F= -2.38D-04
     Reject lnstep minimum 1.590D+00 FVal=-1.963817458682D+02 Lims=  0.00D+00  8.00D-01
     ILin= 3 X=1.700D+00 Y=-1.963816024535D+02 DE=-3.68D-04 F=  1.57D-04
     Accept linear search using points  2 and  3.
     An  expanding polynomial of degree  3 produced  1.3290
 Iteration   3 EE= -196.381630552430     Delta-E=       -0.000395831068 Grad=1.266D-02 Max rot=    0.3276 deg.
 Gradient too large for Newton-Raphson -- use scaled steepest descent instead.
     ILin= 1 X=0.000D+00 Y=-1.963816305524D+02 DE= 0.00D+00 F= -2.77D-04
     ILin= 2 X=1.700D+00 Y=-1.963818750155D+02 DE=-2.44D-04 F= -1.10D-05
     ILin= 3 X=3.500D+00 Y=-1.963816427907D+02 DE=-1.22D-05 F=  2.69D-04
     An  expanding polynomial of degree  3 produced  1.7724
     Minimum is close to point  2 DX=  7.24D-02 DF= -4.09D-07 DXR=  4.09D-02 DFR=  1.67D-03 which will be used.
 Iteration   4 EE= -196.381875015478     Delta-E=       -0.000244463048 Grad=1.347D-02 Max rot=    0.3366 deg.
 Gradient too large for Newton-Raphson -- use scaled steepest descent instead.
     ILin= 1 X=0.000D+00 Y=-1.963818750155D+02 DE= 0.00D+00 F= -2.91D-04
     ILin= 2 X=1.500D+00 Y=-1.963820607567D+02 DE=-1.86D-04 F=  4.30D-05
     Accept linear search using points  1 and  2.
     An  expanding polynomial of degree  2 produced  1.4137
     Minimum is close to point  2 DX= -8.63D-02 DF= -1.22D-06 DXR=  6.10D-02 DFR=  6.57D-03 which will be used.
 Iteration   5 EE= -196.382060756682     Delta-E=       -0.000185741204 Grad=1.305D-02 Max rot=    0.2670 deg.
 Gradient too large for Newton-Raphson -- use scaled steepest descent instead.
     ILin= 1 X=0.000D+00 Y=-1.963820607567D+02 DE= 0.00D+00 F= -2.71D-04
     ILin= 2 X=1.600D+00 Y=-1.963822036549D+02 DE=-1.43D-04 F=  9.21D-05
     Accept linear search using points  1 and  2.
     An  expanding polynomial of degree  2 produced  1.3808
 Iteration   6 EE= -196.382218393256     Delta-E=       -0.000157636574 Grad=1.164D-02 Max rot=    0.2774 deg.
 Gradient too large for Newton-Raphson -- use scaled steepest descent instead.
     ILin= 1 X=0.000D+00 Y=-1.963822183933D+02 DE= 0.00D+00 F= -2.18D-04
     ILin= 2 X=1.400D+00 Y=-1.963823509928D+02 DE=-1.33D-04 F=  2.88D-05
     Accept linear search using points  1 and  2.
     An  expanding polynomial of degree  2 produced  1.3182
     Minimum is close to point  2 DX= -8.18D-02 DF= -8.29D-07 DXR=  6.21D-02 DFR=  6.25D-03 which will be used.
 Iteration   7 EE= -196.382350992800     Delta-E=       -0.000132599544 Grad=1.072D-02 Max rot=    0.2204 deg.
 Gradient too large for Newton-Raphson -- use scaled steepest descent instead.
     ILin= 1 X=0.000D+00 Y=-1.963823509928D+02 DE= 0.00D+00 F= -1.86D-04
     ILin= 2 X=1.300D+00 Y=-1.963824674936D+02 DE=-1.17D-04 F=  6.96D-06
     Accept linear search using points  1 and  2.
     An  expanding polynomial of degree  2 produced  1.2758
     Minimum is close to point  2 DX= -2.42D-02 DF= -6.45D-08 DXR=  1.90D-02 DFR=  5.54D-04 which will be used.
 Iteration   8 EE= -196.382467493579     Delta-E=       -0.000116500779 Grad=8.967D-03 Max rot=    0.2365 deg.
 QCNR:  CnvC1=8.97D-08 CnvC2=8.97D-07
 LinEq1:  Iter=  0 NonCon=     1 RMS=4.88D-04 Max=1.15D-02 NDo=     1
 AX will form     1 AO Fock derivatives at one time.
 LinEq1:  Iter=  1 NonCon=     1 RMS=4.98D-04 Max=7.33D-03 NDo=     1
 LinEq1:  Iter=  2 NonCon=     1 RMS=4.74D-05 Max=6.67D-04 NDo=     1
 LinEq1:  Iter=  3 NonCon=     1 RMS=1.27D-05 Max=1.70D-04 NDo=     1
 LinEq1:  Iter=  4 NonCon=     1 RMS=6.43D-06 Max=7.68D-05 NDo=     1
 LinEq1:  Iter=  5 NonCon=     1 RMS=2.65D-06 Max=3.88D-05 NDo=     1
 LinEq1:  Iter=  6 NonCon=     1 RMS=1.04D-06 Max=1.45D-05 NDo=     1
 LinEq1:  Iter=  7 NonCon=     1 RMS=5.08D-07 Max=6.52D-06 NDo=     1
 LinEq1:  Iter=  8 NonCon=     1 RMS=1.42D-07 Max=1.87D-06 NDo=     1
 LinEq1:  Iter=  9 NonCon=     0 RMS=3.51D-08 Max=4.90D-07 NDo=     1
 Linear equations converged to 8.967D-08 8.967D-07 after     9 iterations.
 Angle between quadratic step and gradient=  50.36 degrees.
     ILin= 1 X=0.000D+00 Y=-1.963824674936D+02 DE= 0.00D+00 F= -1.70D-03
     ILin= 2 X=1.000D+00 Y=-1.963836247942D+02 DE=-1.16D-03 F= -8.83D-04
     Reject lnstep minimum 2.874D+00 FVal=-1.963849295633D+02 Lims=  0.00D+00  1.00D+00
     ILin= 3 X=1.600D+00 Y=-1.963841662660D+02 DE=-1.70D-03 F= -9.63D-04
     ILin= 4 X=2.500D+00 Y=-1.963851692432D+02 DE=-2.70D-03 F= -1.25D-03
     ILin= 5 X=3.900D+00 Y=-1.963867103624D+02 DE=-4.24D-03 F= -5.46D-04
     ILin= 6 X=6.100D+00 Y=-1.963803871082D+02 DE= 2.08D-03 F=  8.17D-03
     An  expanding polynomial of degree  6 produced  4.2116
     Minimum is close to point  5 DX=  3.12D-01 DF= -9.14D-05 DXR=  7.40D-02 DFR=  2.15D-02 which will be used.
 Iteration   9 EE= -196.386710362353     Delta-E=       -0.004242868774 Grad=3.370D-02 Max rot=    0.5517 deg.
 Gradient too large for Newton-Raphson -- use scaled steepest descent instead.
     ILin= 1 X=0.000D+00 Y=-1.963867103624D+02 DE= 0.00D+00 F= -1.69D-03
     ILin= 2 X=1.300D+00 Y=-1.963873943854D+02 DE=-6.84D-04 F=  6.36D-04
     Accept linear search using points  1 and  2.
     An  expanding polynomial of degree  2 produced  1.0343
 Iteration  10 EE= -196.387500166200     Delta-E=       -0.000789803846 Grad=1.517D-02 Max rot=    0.2680 deg.
 Gradient too large for Newton-Raphson -- use scaled steepest descent instead.
     ILin= 1 X=0.000D+00 Y=-1.963875001662D+02 DE= 0.00D+00 F= -3.30D-04
     ILin= 2 X=1.100D+00 Y=-1.963876976817D+02 DE=-1.98D-04 F= -2.87D-05
     Reject lnstep minimum 1.174D+00 FVal=-1.963876986550D+02 Lims=  0.00D+00  1.10D+00
     ILin= 3 X=2.300D+00 Y=-1.963875345040D+02 DE=-3.43D-05 F=  3.01D-04
     An  expanding polynomial of degree  3 produced  1.2044
     Minimum is close to point  2 DX=  1.04D-01 DF= -1.50D-06 DXR=  8.67D-02 DFR=  7.57D-03 which will be used.
 Iteration  11 EE= -196.387697681679     Delta-E=       -0.000197515479 Grad=8.378D-03 Max rot=    0.2486 deg.
 QCNR:  CnvC1=8.38D-08 CnvC2=8.38D-07
 LinEq1:  Iter=  0 NonCon=     1 RMS=4.62D-04 Max=1.27D-02 NDo=     1
 LinEq1:  Iter=  1 NonCon=     1 RMS=4.11D-04 Max=8.23D-03 NDo=     1
 LinEq1:  Iter=  2 NonCon=     1 RMS=1.97D-04 Max=4.21D-03 NDo=     1
 LinEq1:  Iter=  3 NonCon=     1 RMS=6.15D-05 Max=1.18D-03 NDo=     1
 LinEq1:  Iter=  4 NonCon=     1 RMS=2.19D-05 Max=3.22D-04 NDo=     1
 LinEq1:  Iter=  5 NonCon=     1 RMS=1.08D-05 Max=1.23D-04 NDo=     1
 LinEq1:  Iter=  6 NonCon=     1 RMS=2.85D-06 Max=3.55D-05 NDo=     1
 LinEq1:  Iter=  7 NonCon=     1 RMS=7.39D-07 Max=9.51D-06 NDo=     1
 LinEq1:  Iter=  8 NonCon=     1 RMS=4.42D-07 Max=5.62D-06 NDo=     1
 LinEq1:  Iter=  9 NonCon=     1 RMS=1.13D-07 Max=1.87D-06 NDo=     1
 LinEq1:  Iter= 10 NonCon=     0 RMS=2.08D-08 Max=3.01D-07 NDo=     1
 Linear equations converged to 8.378D-08 8.378D-07 after    10 iterations.
 Angle between quadratic step and gradient=  54.05 degrees.
     ILin= 1 X=0.000D+00 Y=-1.963876976817D+02 DE= 0.00D+00 F= -1.55D-03
     ILin= 2 X=1.000D+00 Y=-1.963880537763D+02 DE=-3.56D-04 F=  1.30D-03
     Accept linear search using points  1 and  2.
     An  expanding polynomial of degree  2 produced  0.6566
 Iteration  12 EE= -196.388266406256     Delta-E=       -0.000568724577 Grad=2.761D-03 Max rot=    0.0441 deg.
 QCNR:  CnvC1=2.76D-08 CnvC2=2.76D-07
 LinEq1:  Iter=  0 NonCon=     1 RMS=1.29D-04 Max=2.12D-03 NDo=     1
 LinEq1:  Iter=  1 NonCon=     1 RMS=9.62D-05 Max=1.77D-03 NDo=     1
 LinEq1:  Iter=  2 NonCon=     1 RMS=4.15D-05 Max=8.15D-04 NDo=     1
 LinEq1:  Iter=  3 NonCon=     1 RMS=1.82D-05 Max=2.80D-04 NDo=     1
 LinEq1:  Iter=  4 NonCon=     1 RMS=7.15D-06 Max=1.04D-04 NDo=     1
 LinEq1:  Iter=  5 NonCon=     1 RMS=2.52D-06 Max=4.52D-05 NDo=     1
 LinEq1:  Iter=  6 NonCon=     1 RMS=9.18D-07 Max=1.30D-05 NDo=     1
 LinEq1:  Iter=  7 NonCon=     1 RMS=5.85D-07 Max=6.37D-06 NDo=     1
 LinEq1:  Iter=  8 NonCon=     1 RMS=1.52D-07 Max=2.03D-06 NDo=     1
 LinEq1:  Iter=  9 NonCon=     1 RMS=3.71D-08 Max=6.66D-07 NDo=     1
 LinEq1:  Iter= 10 NonCon=     0 RMS=6.87D-09 Max=1.19D-07 NDo=     1
 Linear equations converged to 2.761D-08 2.761D-07 after    10 iterations.
 Angle between quadratic step and gradient=  50.47 degrees.
     ILin= 1 X=0.000D+00 Y=-1.963882664063D+02 DE= 0.00D+00 F= -2.33D-05
     ILin= 2 X=1.000D+00 Y=-1.963882780699D+02 DE=-1.17D-05
 Iteration  13 EE= -196.388278069876     Delta-E=       -0.000011663621 Grad=6.111D-06 Max rot=    0.0001 deg.
 Rotation gradient small -- convergence achieved.
 Orbital symmetries in SymMO:
    1=1    2=4    3=4    4=1    5=1    6=1    7=4    8=1    9=4   10=1
   11=1   12=4   13=4   14=1   15=3   16=1   17=2   18=3   19=4   20=1
   21=2   22=3   23=1   24=4   25=1   26=4   27=1   28=1   29=4   30=1
   31=4   32=3   33=4   34=3   35=2   36=1   37=1   38=4   39=1   40=2
   41=1   42=4   43=3   44=1   45=4   46=1   47=4   48=1   49=1   50=1
   51=4   52=1   53=4   54=4   55=1   56=1   57=4
 Orbital symmetries in SymMO:
    1=4    2=1    3=4    4=1    5=1    6=1    7=4    8=1    9=4   10=1
   11=1   12=4   13=4   14=1   15=1   16=3   17=2   18=1   19=3   20=4
   21=2   22=3   23=1   24=4   25=1   26=4   27=1   28=1   29=4   30=1
   31=4   32=3   33=4   34=1   35=2   36=3   37=1   38=4   39=1   40=2
   41=1   42=4   43=3   44=1   45=4   46=1   47=4   48=1   49=1   50=1
   51=4   52=1   53=4   54=4   55=1   56=1   57=4
 SCF Done:  E(ULC-wHPBE) =  -196.388278070     a.u. after   13 cycles
            Convg  =    0.6111D-05                    56 Fock formations.
              S**2 =  1.1400                  -V/T =  2.0223
 <Sx>= 0.0000 <Sy>= 0.0000 <Sz>= 0.5000 <S**2>= 1.1400 S= 0.6790
 <L.S>= 0.000000000000E+00
 Annihilation of the first spin contaminant:
 S**2 before annihilation     1.1400,   after     0.8551
 Leave Link  508 at Thu Mar  5 12:50:59 2020, MaxMem=  6710886400 cpu:             247.4 elap:              15.6
 (Enter /opt/ohpc/pub/libs/gaussian/g16-A.03/sandybridge/g16/l601.exe)
 Copying SCF densities to generalized density rwf, IOpCl= 1 IROHF=0.

 **********************************************************************

            Population analysis using the SCF density.

 **********************************************************************

 Orbital symmetries:
 Alpha Orbitals:
       Occupied  (A1) (B2) (B2) (A1) (A1) (A1) (B2) (A1) (B2) (A1)
                 (A1) (B2) (B2) (A1) (B1) (A1) (A2) (B1)
       Virtual   (B2) (A1) (A2) (B1) (A1) (B2) (A1) (B2) (A1) (A1)
                 (B2) (A1) (B2) (B1) (B2) (B1) (A2) (A1) (A1) (B2)
                 (A1) (A2) (A1) (B2) (B1) (A1) (B2) (A1) (B2) (A1)
                 (A1) (A1) (B2) (A1) (B2) (B2) (A1) (A1) (B2)
 Beta  Orbitals:
       Occupied  (B2) (A1) (B2) (A1) (A1) (A1) (B2) (A1) (B2) (A1)
                 (A1) (B2) (B2) (A1) (A1) (B1) (A2)
       Virtual   (A1) (B1) (B2) (A2) (B1) (A1) (B2) (A1) (B2) (A1)
                 (A1) (B2) (A1) (B2) (B1) (B2) (A1) (A2) (B1) (A1)
                 (B2) (A1) (A2) (A1) (B2) (B1) (A1) (B2) (A1) (B2)
                 (A1) (A1) (A1) (B2) (A1) (B2) (B2) (A1) (A1) (B2)
 The electronic state is 2-B1.
 Alpha  occ. eigenvalues --  -10.44890 -10.44889 -10.37058 -10.37058 -10.36307
 Alpha  occ. eigenvalues --   -1.22564  -1.13662  -1.07211  -0.96161  -0.88926
 Alpha  occ. eigenvalues --   -0.88464  -0.81377  -0.76524  -0.74430  -0.73329
 Alpha  occ. eigenvalues --   -0.69853  -0.64339  -0.57475
 Alpha virt. eigenvalues --   -0.37998  -0.31822  -0.23714  -0.12718  -0.08265
 Alpha virt. eigenvalues --   -0.04332  -0.00855   0.00676   0.01993   0.09570
 Alpha virt. eigenvalues --    0.11027   0.19105   0.20497   0.29027   0.31814
 Alpha virt. eigenvalues --    0.39246   0.39283   0.39361   0.41590   0.42857
 Alpha virt. eigenvalues --    0.44753   0.46867   0.47429   0.49423   0.49595
 Alpha virt. eigenvalues --    0.62089   0.64396   0.67182   0.69946   0.69954
 Alpha virt. eigenvalues --    0.75284   0.77234   0.78853   0.84926   0.91998
 Alpha virt. eigenvalues --    0.96519   1.01392   1.24028   1.24492
  Beta  occ. eigenvalues --  -10.43692 -10.43689 -10.37530 -10.37528 -10.35417
  Beta  occ. eigenvalues --   -1.21486  -1.12853  -1.04005  -0.94980  -0.88331
  Beta  occ. eigenvalues --   -0.87492  -0.80774  -0.76194  -0.73746  -0.71183
  Beta  occ. eigenvalues --   -0.69938  -0.61367
  Beta virt. eigenvalues --   -0.38833  -0.32066  -0.31792  -0.20527  -0.10130
  Beta virt. eigenvalues --   -0.07944  -0.03934  -0.00243   0.00743   0.02465
  Beta virt. eigenvalues --    0.10248   0.11593   0.19792   0.20705   0.32415
  Beta virt. eigenvalues --    0.32516   0.39841   0.40980   0.41604   0.42265
  Beta virt. eigenvalues --    0.43419   0.45003   0.47499   0.49881   0.50447
  Beta virt. eigenvalues --    0.50952   0.56246   0.64903   0.65563   0.70056
  Beta virt. eigenvalues --    0.70989   0.75856   0.77164   0.79320   0.86250
  Beta virt. eigenvalues --    0.92130   0.97298   1.01932   1.24840   1.26074
          Condensed to atoms (all electrons):
               1          2          3          4          5          6
     1  C    5.208270   0.496111  -0.060486  -0.041567   0.139627   0.085705
     2  C    0.496111   4.985936   0.481990  -0.056498  -0.041567  -0.002608
     3  C   -0.060486   0.481990   4.882676   0.481990  -0.060486   0.000465
     4  C   -0.041567  -0.056498   0.481990   4.985936   0.496111  -0.002608
     5  C    0.139627  -0.041567  -0.060486   0.496111   5.208270   0.085705
     6  H    0.085705  -0.002608   0.000465  -0.002608   0.085705   0.577802
     7  H    0.346574  -0.027628   0.002215   0.000618  -0.002252  -0.005029
     8  H   -0.022184   0.352655  -0.010212   0.002844   0.000388   0.000076
     9  H    0.003634  -0.026745   0.367830  -0.026745   0.003634  -0.000000
    10  H    0.000388   0.002844  -0.010212   0.352655  -0.022184   0.000076
    11  H   -0.002252   0.000618   0.002215  -0.027628   0.346574  -0.005029
               7          8          9         10         11
     1  C    0.346574  -0.022184   0.003634   0.000388  -0.002252
     2  C   -0.027628   0.352655  -0.026745   0.002844   0.000618
     3  C    0.002215  -0.010212   0.367830  -0.010212   0.002215
     4  C    0.000618   0.002844  -0.026745   0.352655  -0.027628
     5  C   -0.002252   0.000388   0.003634  -0.022184   0.346574
     6  H   -0.005029   0.000076  -0.000000   0.000076  -0.005029
     7  H    0.391606   0.000723  -0.000076  -0.000006   0.000021
     8  H    0.000723   0.374184  -0.002077  -0.000049  -0.000006
     9  H   -0.000076  -0.002077   0.426074  -0.002077  -0.000076
    10  H   -0.000006  -0.000049  -0.002077   0.374184   0.000723
    11  H    0.000021  -0.000006  -0.000076   0.000723   0.391606
          Atomic-Atomic Spin Densities.
               1          2          3          4          5          6
     1  C    0.902577  -0.046722  -0.016086  -0.018050   0.074638  -0.020501
     2  C   -0.046722  -0.397189   0.012588   0.010945  -0.018050  -0.000698
     3  C   -0.016086   0.012588   0.702627   0.012588  -0.016086  -0.000026
     4  C   -0.018050   0.010945   0.012588  -0.397189  -0.046722  -0.000698
     5  C    0.074638  -0.018050  -0.016086  -0.046722   0.902577  -0.020501
     6  H   -0.020501  -0.000698  -0.000026  -0.000698  -0.020501  -0.448059
     7  H   -0.010579   0.003297  -0.000111   0.000071  -0.000305   0.003516
     8  H   -0.002741   0.006054  -0.001292  -0.000230   0.000246  -0.000019
     9  H    0.000108  -0.000053  -0.002101  -0.000053   0.000108  -0.000000
    10  H    0.000246  -0.000230  -0.001292   0.006054  -0.002741  -0.000019
    11  H   -0.000305   0.000071  -0.000111   0.003297  -0.010579   0.003516
               7          8          9         10         11
     1  C   -0.010579  -0.002741   0.000108   0.000246  -0.000305
     2  C    0.003297   0.006054  -0.000053  -0.000230   0.000071
     3  C   -0.000111  -0.001292  -0.002101  -0.001292  -0.000111
     4  C    0.000071  -0.000230  -0.000053   0.006054   0.003297
     5  C   -0.000305   0.000246   0.000108  -0.002741  -0.010579
     6  H    0.003516  -0.000019  -0.000000  -0.000019   0.003516
     7  H   -0.040338   0.000038   0.000006  -0.000000  -0.000010
     8  H    0.000038   0.022383  -0.000003   0.000008  -0.000000
     9  H    0.000006  -0.000003  -0.030484  -0.000003   0.000006
    10  H   -0.000000   0.000008  -0.000003   0.022383   0.000038
    11  H   -0.000010  -0.000000   0.000006   0.000038  -0.040338
 Mulliken charges and spin densities:
               1          2
     1  C   -0.153821   0.862585
     2  C   -0.165109  -0.429986
     3  C   -0.077986   0.690698
     4  C   -0.165109  -0.429986
     5  C   -0.153821   0.862585
     6  H    0.265443  -0.483487
     7  H    0.293231  -0.044414
     8  H    0.303659   0.024443
     9  H    0.256622  -0.032469
    10  H    0.303659   0.024443
    11  H    0.293231  -0.044414
 Sum of Mulliken charges =   1.00000   1.00000
 Mulliken charges and spin densities with hydrogens summed into heavy atoms:
               1          2
     1  C    0.404854   0.334684
     2  C    0.138550  -0.405543
     3  C    0.178636   0.658230
     4  C    0.138550  -0.405543
     5  C    0.139410   0.818171
 Electronic spatial extent (au):  <R**2>=            373.9825
 Charge=              1.0000 electrons
 Dipole moment (field-independent basis, Debye):
    X=             -0.0000    Y=              0.0000    Z=             -2.6729  Tot=              2.6729
 Quadrupole moment (field-independent basis, Debye-Ang):
   XX=            -32.0093   YY=            -12.4537   ZZ=            -10.5700
   XY=              0.0000   XZ=              0.0000   YZ=              0.0000
 Traceless Quadrupole moment (field-independent basis, Debye-Ang):
   XX=            -13.6649   YY=              5.8906   ZZ=              7.7743
   XY=              0.0000   XZ=              0.0000   YZ=              0.0000
 Octapole moment (field-independent basis, Debye-Ang**2):
  XXX=              0.0000  YYY=             -0.0000  ZZZ=            -20.1254  XYY=             -0.0000
  XXY=             -0.0000  XXZ=              1.5092  XZZ=              0.0000  YZZ=             -0.0000
  YYZ=             -3.6154  XYZ=             -0.0000
 Hexadecapole moment (field-independent basis, Debye-Ang**3):
 XXXX=            -32.1778 YYYY=           -172.9735 ZZZZ=            -99.8613 XXXY=             -0.0000
 XXXZ=             -0.0000 YYYX=             -0.0000 YYYZ=              0.0000 ZZZX=             -0.0000
 ZZZY=              0.0000 XXYY=            -54.1534 XXZZ=            -43.4778 YYZZ=            -48.5816
 XXYZ=              0.0000 YYXZ=              0.0000 ZZXY=             -0.0000
 N-N= 1.450218997931D+02 E-N=-7.307000082065D+02  KE= 1.921051054261D+02
 Symmetry A1   KE= 1.109231670757D+02
 Symmetry A2   KE= 2.456113169884D+00
 Symmetry B1   KE= 3.372018600378D+00
 Symmetry B2   KE= 7.535380658016D+01
 Symmetry A1   SP=-1.468145266817D-15
 Symmetry A2   SP=-7.927144184128D-16
 Symmetry B1   SP= 1.000000000000D+00
 Symmetry B2   SP=-7.268220313800D-17
                          Isotropic Fermi Contact Couplings
        Atom                 a.u.       MegaHertz       Gauss      10(-4) cm-1
     1  C(13)              0.17826     200.39717      71.50669      66.84530
     2  C(13)             -0.06892     -77.48210     -27.64754     -25.84525
     3  C(13)              0.11641     130.87139      46.69817      43.65400
     4  C(13)             -0.06892     -77.48210     -27.64754     -25.84525
     5  C(13)              0.17826     200.39717      71.50669      66.84530
     6  H(1)              -0.17001    -759.93144    -271.16244    -253.48584
     7  H(1)              -0.01759     -78.63182     -28.05779     -26.22875
     8  H(1)               0.01069      47.77393      17.04693      15.93567
     9  H(1)              -0.01250     -55.86540     -19.93416     -18.63469
    10  H(1)               0.01069      47.77393      17.04693      15.93567
    11  H(1)              -0.01759     -78.63182     -28.05779     -26.22875
 --------------------------------------------------------
       Center         ----  Spin Dipole Couplings  ----
                      3XX-RR        3YY-RR        3ZZ-RR
 --------------------------------------------------------
     1   Atom        0.549656     -0.212518     -0.337138
     2   Atom       -0.347006      0.132404      0.214602
     3   Atom        0.642174     -0.350371     -0.291803
     4   Atom       -0.347006      0.132404      0.214602
     5   Atom        0.549656     -0.212518     -0.337138
     6   Atom       -0.019724     -0.007160      0.026884
     7   Atom       -0.016841      0.041574     -0.024733
     8   Atom       -0.008563     -0.001869      0.010432
     9   Atom       -0.006705     -0.042520      0.049225
    10   Atom       -0.008563     -0.001869      0.010432
    11   Atom       -0.016841      0.041574     -0.024733
 --------------------------------------------------------
                        XY            XZ            YZ
 --------------------------------------------------------
     1   Atom        0.000000      0.000000      0.141967
     2   Atom       -0.000000      0.000000      0.003874
     3   Atom       -0.000000      0.000000      0.000000
     4   Atom       -0.000000     -0.000000     -0.003874
     5   Atom        0.000000      0.000000     -0.141967
     6   Atom        0.000000     -0.000000      0.000000
     7   Atom        0.000000      0.000000     -0.050073
     8   Atom        0.000000      0.000000     -0.012209
     9   Atom       -0.000000     -0.000000     -0.000000
    10   Atom        0.000000     -0.000000      0.012209
    11   Atom        0.000000      0.000000      0.050073
 --------------------------------------------------------


 ---------------------------------------------------------------------------------
              Anisotropic Spin Dipole Couplings in Principal Axis System
 ---------------------------------------------------------------------------------

       Atom             a.u.   MegaHertz   Gauss  10(-4) cm-1        Axes

              Baa    -0.4299   -57.684   -20.583   -19.241 -0.0000 -0.5469  0.8372
     1 C(13)  Bbb    -0.1198   -16.074    -5.736    -5.362  0.0000  0.8372  0.5469
              Bcc     0.5497    73.759    26.319    24.603  1.0000 -0.0000  0.0000
 
              Baa    -0.3470   -46.565   -16.616   -15.532  1.0000 -0.0000  0.0000
     2 C(13)  Bbb     0.1322    17.743     6.331     5.918  0.0000  0.9989 -0.0470
              Bcc     0.2148    28.822    10.284     9.614  0.0000  0.0470  0.9989
 
              Baa    -0.3504   -47.016   -16.777   -15.683 -0.0000  1.0000 -0.0000
     3 C(13)  Bbb    -0.2918   -39.157   -13.972   -13.061 -0.0000  0.0000  1.0000
              Bcc     0.6422    86.174    30.749    28.744  1.0000  0.0000  0.0000
 
              Baa    -0.3470   -46.565   -16.616   -15.532  1.0000  0.0000  0.0000
     4 C(13)  Bbb     0.1322    17.743     6.331     5.918 -0.0000  0.9989  0.0470
              Bcc     0.2148    28.822    10.284     9.614 -0.0000 -0.0470  0.9989
 
              Baa    -0.4299   -57.684   -20.583   -19.241 -0.0000  0.5469  0.8372
     5 C(13)  Bbb    -0.1198   -16.074    -5.736    -5.362 -0.0000  0.8372 -0.5469
              Bcc     0.5497    73.759    26.319    24.603  1.0000  0.0000  0.0000
 
              Baa    -0.0197   -10.524    -3.755    -3.510  1.0000  0.0000  0.0000
     6 H(1)   Bbb    -0.0072    -3.820    -1.363    -1.274 -0.0000  1.0000 -0.0000
              Bcc     0.0269    14.344     5.118     4.785 -0.0000  0.0000  1.0000
 
              Baa    -0.0516   -27.549    -9.830    -9.189 -0.0000  0.4733  0.8809
     7 H(1)   Bbb    -0.0168    -8.985    -3.206    -2.997  1.0000  0.0000  0.0000
              Bcc     0.0685    36.535    13.036    12.187 -0.0000  0.8809 -0.4733
 
              Baa    -0.0094    -5.010    -1.788    -1.671 -0.0000  0.8514  0.5245
     8 H(1)   Bbb    -0.0086    -4.569    -1.630    -1.524  1.0000  0.0000  0.0000
              Bcc     0.0180     9.579     3.418     3.195  0.0000 -0.5245  0.8514
 
              Baa    -0.0425   -22.687    -8.095    -7.567  0.0000  1.0000 -0.0000
     9 H(1)   Bbb    -0.0067    -3.578    -1.277    -1.193  1.0000 -0.0000 -0.0000
              Bcc     0.0492    26.264     9.372     8.761  0.0000  0.0000  1.0000
 
              Baa    -0.0094    -5.010    -1.788    -1.671 -0.0000  0.8514 -0.5245
    10 H(1)   Bbb    -0.0086    -4.569    -1.630    -1.524  1.0000  0.0000 -0.0000
              Bcc     0.0180     9.579     3.418     3.195  0.0000  0.5245  0.8514
 
              Baa    -0.0516   -27.549    -9.830    -9.189 -0.0000 -0.4733  0.8809
    11 H(1)   Bbb    -0.0168    -8.985    -3.206    -2.997  1.0000 -0.0000  0.0000
              Bcc     0.0685    36.535    13.036    12.187  0.0000  0.8809  0.4733
 

 ---------------------------------------------------------------------------------

 No NMR shielding tensors so no spin-rotation constants.
 Leave Link  601 at Thu Mar  5 12:50:59 2020, MaxMem=  6710886400 cpu:               2.9 elap:               0.2
 (Enter /opt/ohpc/pub/libs/gaussian/g16-A.03/sandybridge/g16/l9999.exe)

 Test job not archived.
 1\1\GINC-CNODE212\SP\ULC-wHPBE\6-31G\C5H6(1+,2)\SMGO234\05-Mar-2020\0\
 \#P uLC-wHPBE/6-31G iop(3/130=0273800000, 3/131=0273800000, 3/119=0726
 200000, 3/120=0726200000) scf=(conver=6,fermi,ndamp=35,noincfock,novar
 acc,vshift=500,xqc)\\H6 C5\\1,2\C,0,-1.206512,0.69658,0.\C,0,-1.206512
 ,-0.69658,0.\C,0,0.,-1.39316,0.\C,0,1.206512,-0.69658,0.\C,0,1.206512,
 0.69658,0.\H,0,0.,2.482681,0.\H,0,-2.150065,1.24134,0.\H,0,-2.150065,-
 1.24134,0.\H,0,0.,-2.482681,0.\H,0,2.150065,-1.24134,0.\H,0,2.150065,1
 .24134,0.\\Version=EM64L-G16RevA.03\State=2-B1\HF=-196.3882781\S2=1.13
 9976\S2-1=0.\S2A=0.855146\RMSD=1.644e-07\Dipole=0.,1.0515853,0.\Quadru
 pole=4.3795383,5.7800127,-10.159551,0.,0.,0.\PG=C02V [C2(H1C1H1),SGV(C
 4H4)]\\@


 THE PROBLEM WITH THE LADDER OF SUCCESS IS YOU CAN'T
 CLIMB IT WHILE YOU'RE TWIDDLING YOUR THUMBS.
 Job cpu time:       0 days  0 hours  5 minutes 23.2 seconds.
 Elapsed time:       0 days  0 hours  0 minutes 20.6 seconds.
 File lengths (MBytes):  RWF=    272 Int=      0 D2E=      0 Chk=     32 Scr=     32
 Normal termination of Gaussian 16 at Thu Mar  5 12:50:59 2020.
