 Entering Gaussian System, Link 0=g16
 Input=a1b_tune_n14.gjf
 Output=a1b_tune_n14.log
 Initial command:
 /opt/ohpc/pub/libs/gaussian/g16-A.03/sandybridge/g16/l1.exe "/scratch/smgo234/Ocelot/test/a1b/tuning_a1b_acycle0/Gau-75489.inp" -scrdir="/scratch/smgo234/Ocelot/test/a1b/tuning_a1b_acycle0/"
 Entering Link 1 = /opt/ohpc/pub/libs/gaussian/g16-A.03/sandybridge/g16/l1.exe PID=     75490.
  
 Copyright (c) 1988,1990,1992,1993,1995,1998,2003,2009,2016,
            Gaussian, Inc.  All Rights Reserved.
  
 This is part of the Gaussian(R) 16 program.  It is based on
 the Gaussian(R) 09 system (copyright 2009, Gaussian, Inc.),
 the Gaussian(R) 03 system (copyright 2003, Gaussian, Inc.),
 the Gaussian(R) 98 system (copyright 1998, Gaussian, Inc.),
 the Gaussian(R) 94 system (copyright 1995, Gaussian, Inc.),
 the Gaussian 92(TM) system (copyright 1992, Gaussian, Inc.),
 the Gaussian 90(TM) system (copyright 1990, Gaussian, Inc.),
 the Gaussian 88(TM) system (copyright 1988, Gaussian, Inc.),
 the Gaussian 86(TM) system (copyright 1986, Carnegie Mellon
 University), and the Gaussian 82(TM) system (copyright 1983,
 Carnegie Mellon University). Gaussian is a federally registered
 trademark of Gaussian, Inc.
  
 This software contains proprietary and confidential information,
 including trade secrets, belonging to Gaussian, Inc.
  
 This software is provided under written license and may be
 used, copied, transmitted, or stored only in accord with that
 written license.
  
 The following legend is applicable only to US Government
 contracts under FAR:
  
                    RESTRICTED RIGHTS LEGEND
  
 Use, reproduction and disclosure by the US Government is
 subject to restrictions as set forth in subparagraphs (a)
 and (c) of the Commercial Computer Software - Restricted
 Rights clause in FAR 52.227-19.
  
 Gaussian, Inc.
 340 Quinnipiac St., Bldg. 40, Wallingford CT 06492
  
  
 ---------------------------------------------------------------
 Warning -- This program may not be used in any manner that
 competes with the business of Gaussian, Inc. or will provide
 assistance to any competitor of Gaussian, Inc.  The licensee
 of this program is prohibited from giving any competitor of
 Gaussian, Inc. access to this program.  By using this program,
 the user acknowledges that Gaussian, Inc. is engaged in the
 business of creating and licensing software in the field of
 computational chemistry and represents and warrants to the
 licensee that it is not a competitor of Gaussian, Inc. and that
 it will not use this program in any manner prohibited above.
 ---------------------------------------------------------------
  

 Cite this work as:
 Gaussian 16, Revision A.03,
 M. J. Frisch, G. W. Trucks, H. B. Schlegel, G. E. Scuseria, 
 M. A. Robb, J. R. Cheeseman, G. Scalmani, V. Barone, 
 G. A. Petersson, H. Nakatsuji, X. Li, M. Caricato, A. V. Marenich, 
 J. Bloino, B. G. Janesko, R. Gomperts, B. Mennucci, H. P. Hratchian, 
 J. V. Ortiz, A. F. Izmaylov, J. L. Sonnenberg, D. Williams-Young, 
 F. Ding, F. Lipparini, F. Egidi, J. Goings, B. Peng, A. Petrone, 
 T. Henderson, D. Ranasinghe, V. G. Zakrzewski, J. Gao, N. Rega, 
 G. Zheng, W. Liang, M. Hada, M. Ehara, K. Toyota, R. Fukuda, 
 J. Hasegawa, M. Ishida, T. Nakajima, Y. Honda, O. Kitao, H. Nakai, 
 T. Vreven, K. Throssell, J. A. Montgomery, Jr., J. E. Peralta, 
 F. Ogliaro, M. J. Bearpark, J. J. Heyd, E. N. Brothers, K. N. Kudin, 
 V. N. Staroverov, T. A. Keith, R. Kobayashi, J. Normand, 
 K. Raghavachari, A. P. Rendell, J. C. Burant, S. S. Iyengar, 
 J. Tomasi, M. Cossi, J. M. Millam, M. Klene, C. Adamo, R. Cammi, 
 J. W. Ochterski, R. L. Martin, K. Morokuma, O. Farkas, 
 J. B. Foresman, and D. J. Fox, Gaussian, Inc., Wallingford CT, 2016.
 
 ******************************************
 Gaussian 16:  EM64L-G16RevA.03 25-Dec-2016
                 5-Mar-2020 
 ******************************************
 %mem=50GB
 %nproc=16
 Will use up to   16 processors via shared memory.
 ----------------------------------------------------------------------
 #P uLC-wHPBE/6-31G iop(3/130=0273800000, 3/131=0273800000, 3/119=07262
 00000, 3/120=0726200000) scf=(conver=6,fermi,ndamp=35,noincfock,novara
 cc,vshift=500,xqc)
 ----------------------------------------------------------------------
 1/38=1,172=1/1;
 2/12=2,17=6,18=5,40=1/2;
 3/5=1,6=6,11=2,25=1,30=1,74=-71,116=2,119=726200000,120=726200000,130=273800000,131=273800000/1,2,3;
 4//1;
 5/5=100002,6=6,8=3,10=500,13=1,18=-1,22=13,38=1,93=35/2,8;
 6/7=2,8=2,9=2,10=2,28=1/1;
 99/5=1,9=1/99;
 Leave Link    1 at Thu Mar  5 12:50:36 2020, MaxMem=  6710886400 cpu:              17.0 elap:               1.1
 (Enter /opt/ohpc/pub/libs/gaussian/g16-A.03/sandybridge/g16/l101.exe)
 -----
 H6 C5
 -----
 Symbolic Z-matrix:
 Charge =  0 Multiplicity = 1
 C                    -1.20651   0.69658   0. 
 C                    -1.20651  -0.69658   0. 
 C                     0.       -1.39316   0. 
 C                     1.20651  -0.69658   0. 
 C                     1.20651   0.69658   0. 
 H                     0.        2.48268   0. 
 H                    -2.15007   1.24134   0. 
 H                    -2.15007  -1.24134   0. 
 H                     0.       -2.48268   0. 
 H                     2.15007  -1.24134   0. 
 H                     2.15007   1.24134   0. 
 
 ITRead=  0  0  0  0  0  0  0  0  0  0  0
 MicOpt= -1 -1 -1 -1 -1 -1 -1 -1 -1 -1 -1
 NAtoms=     11 NQM=       11 NQMF=       0 NMMI=      0 NMMIF=      0
                NMic=       0 NMicF=      0.
                    Isotopes and Nuclear Properties:
 (Nuclear quadrupole moments (NQMom) in fm**2, nuclear magnetic moments (NMagM)
  in nuclear magnetons)

  Atom         1           2           3           4           5           6           7           8           9          10
 IAtWgt=          12          12          12          12          12           1           1           1           1           1
 AtmWgt=  12.0000000  12.0000000  12.0000000  12.0000000  12.0000000   1.0078250   1.0078250   1.0078250   1.0078250   1.0078250
 NucSpn=           0           0           0           0           0           1           1           1           1           1
 AtZEff=  -0.0000000  -0.0000000  -0.0000000  -0.0000000  -0.0000000  -0.0000000  -0.0000000  -0.0000000  -0.0000000  -0.0000000
 NQMom=    0.0000000   0.0000000   0.0000000   0.0000000   0.0000000   0.0000000   0.0000000   0.0000000   0.0000000   0.0000000
 NMagM=    0.0000000   0.0000000   0.0000000   0.0000000   0.0000000   2.7928460   2.7928460   2.7928460   2.7928460   2.7928460
 AtZNuc=   6.0000000   6.0000000   6.0000000   6.0000000   6.0000000   1.0000000   1.0000000   1.0000000   1.0000000   1.0000000

  Atom        11
 IAtWgt=           1
 AtmWgt=   1.0078250
 NucSpn=           1
 AtZEff=  -0.0000000
 NQMom=    0.0000000
 NMagM=    2.7928460
 AtZNuc=   1.0000000
 Leave Link  101 at Thu Mar  5 12:50:36 2020, MaxMem=  6710886400 cpu:               2.9 elap:               0.2
 (Enter /opt/ohpc/pub/libs/gaussian/g16-A.03/sandybridge/g16/l202.exe)
                          Input orientation:                          
 ---------------------------------------------------------------------
 Center     Atomic      Atomic             Coordinates (Angstroms)
 Number     Number       Type             X           Y           Z
 ---------------------------------------------------------------------
      1          6           0       -1.206512    0.696580    0.000000
      2          6           0       -1.206512   -0.696580    0.000000
      3          6           0        0.000000   -1.393160    0.000000
      4          6           0        1.206512   -0.696580    0.000000
      5          6           0        1.206512    0.696580    0.000000
      6          1           0        0.000000    2.482681    0.000000
      7          1           0       -2.150065    1.241340    0.000000
      8          1           0       -2.150065   -1.241340    0.000000
      9          1           0        0.000000   -2.482681    0.000000
     10          1           0        2.150065   -1.241340    0.000000
     11          1           0        2.150065    1.241340    0.000000
 ---------------------------------------------------------------------
                    Distance matrix (angstroms):
                    1          2          3          4          5
     1  C    0.000000
     2  C    1.393160   0.000000
     3  C    2.413024   1.393160   0.000000
     4  C    2.786320   2.413024   1.393160   0.000000
     5  C    2.413024   2.786320   2.413024   1.393160   0.000000
     6  H    2.155418   3.400496   3.875841   3.400496   2.155418
     7  H    1.089521   2.155418   3.400496   3.875841   3.400496
     8  H    2.155418   1.089521   2.155418   3.400496   3.875841
     9  H    3.400496   2.155418   1.089521   2.155418   3.400496
    10  H    3.875841   3.400496   2.155418   1.089521   2.155418
    11  H    3.400496   3.875841   3.400496   2.155418   1.089521
                    6          7          8          9         10
     6  H    0.000000
     7  H    2.482681   0.000000
     8  H    4.300129   2.482680   0.000000
     9  H    4.965362   4.300129   2.482681   0.000000
    10  H    4.300129   4.965362   4.300130   2.482681   0.000000
    11  H    2.482681   4.300130   4.965362   4.300129   2.482680
                   11
    11  H    0.000000
 Stoichiometry    C5H6
 Framework group  C2V[C2(HCH),SGV(C4H4)]
 Deg. of freedom    10
 Full point group                 C2V     NOp   4
 Largest Abelian subgroup         C2V     NOp   4
 Largest concise Abelian subgroup C2      NOp   2
                         Standard orientation:                         
 ---------------------------------------------------------------------
 Center     Atomic      Atomic             Coordinates (Angstroms)
 Number     Number       Type             X           Y           Z
 ---------------------------------------------------------------------
      1          6           0       -0.000000    1.206512   -0.928773
      2          6           0       -0.000000    1.206512    0.464387
      3          6           0        0.000000    0.000000    1.160967
      4          6           0       -0.000000   -1.206512    0.464387
      5          6           0       -0.000000   -1.206512   -0.928773
      6          1           0       -0.000000   -0.000000   -2.714874
      7          1           0       -0.000000    2.150065   -1.473533
      8          1           0       -0.000000    2.150065    1.009147
      9          1           0        0.000000    0.000000    2.250488
     10          1           0       -0.000000   -2.150065    1.009147
     11          1           0       -0.000000   -2.150065   -1.473533
 ---------------------------------------------------------------------
 Rotational constants (GHZ):           8.2868568           5.7099792           3.3806054
 Leave Link  202 at Thu Mar  5 12:50:36 2020, MaxMem=  6710886400 cpu:               0.2 elap:               0.0
 (Enter /opt/ohpc/pub/libs/gaussian/g16-A.03/sandybridge/g16/l301.exe)
 Standard basis: 6-31G (6D, 7F)
 Ernie: Thresh=  0.10000D-02 Tol=  0.10000D-05 Strict=F.
 There are    27 symmetry adapted cartesian basis functions of A1  symmetry.
 There are     4 symmetry adapted cartesian basis functions of A2  symmetry.
 There are     6 symmetry adapted cartesian basis functions of B1  symmetry.
 There are    20 symmetry adapted cartesian basis functions of B2  symmetry.
 There are    27 symmetry adapted basis functions of A1  symmetry.
 There are     4 symmetry adapted basis functions of A2  symmetry.
 There are     6 symmetry adapted basis functions of B1  symmetry.
 There are    20 symmetry adapted basis functions of B2  symmetry.
    57 basis functions,   134 primitive gaussians,    57 cartesian basis functions
    18 alpha electrons       18 beta electrons
       nuclear repulsion energy       145.0218997931 Hartrees.
 IExCor=33909 DFT=T Ex+Corr=LC-wHPBE ExCW=0 ScaHFX=  1.000000
 ScaDFX=  1.000000  1.000000  1.000000  1.000000 ScalE2=  1.000000  1.000000
 IRadAn=      5 IRanWt=     -1 IRanGd=            0 ICorTp=0 IEmpDi=  4
 HFx  wShort=  0.000000 wLong=  0.400000 cFull=  0.000000 cShort=  0.000000 cLong=  0.726200
 DFx  wShort=  0.000000 wLong=  0.400000 cFull=  0.000000 cShort=  1.000000 cLong=  0.726200
 NAtoms=   11 NActive=   11 NUniq=    7 SFac= 2.47D+00 NAtFMM=   60 NAOKFM=F Big=F
 Integral buffers will be    131072 words long.
 Raffenetti 2 integral format.
 Two-electron integral symmetry is turned on.
 Leave Link  301 at Thu Mar  5 12:50:36 2020, MaxMem=  6710886400 cpu:               1.0 elap:               0.1
 (Enter /opt/ohpc/pub/libs/gaussian/g16-A.03/sandybridge/g16/l302.exe)
 NPDir=0 NMtPBC=     1 NCelOv=     1 NCel=       1 NClECP=     1 NCelD=      1
         NCelK=      1 NCelE2=     1 NClLst=     1 CellRange=     0.0.
 One-electron integrals computed using PRISM.
 One-electron integral symmetry used in STVInt
 NBasis=    57 RedAO= T EigKep=  2.88D-03  NBF=    27     4     6    20
 NBsUse=    57 1.00D-06 EigRej= -1.00D+00 NBFU=    27     4     6    20
 Precomputing XC quadrature grid using
 IXCGrd= 4 IRadAn=           5 IRanWt=          -1 IRanGd=           0 AccXCQ= 0.00D+00.
 Generated NRdTot=       0 NPtTot=           0 NUsed=           0 NTot=          32
 NSgBfM=    57    57    57    57    57 MxSgAt=    11 MxSgA2=    11.
 Leave Link  302 at Thu Mar  5 12:50:36 2020, MaxMem=  6710886400 cpu:               2.2 elap:               0.2
 (Enter /opt/ohpc/pub/libs/gaussian/g16-A.03/sandybridge/g16/l303.exe)
 DipDrv:  MaxL=1.
 Leave Link  303 at Thu Mar  5 12:50:36 2020, MaxMem=  6710886400 cpu:               0.8 elap:               0.1
 (Enter /opt/ohpc/pub/libs/gaussian/g16-A.03/sandybridge/g16/l401.exe)
 ExpMin= 1.61D-01 ExpMax= 3.05D+03 ExpMxC= 4.57D+02 IAcc=3 IRadAn=         5 AccDes= 0.00D+00
 Harris functional with IExCor=33909 and IRadAn=       5 diagonalized for initial guess.
 HarFok:  IExCor=33909 AccDes= 0.00D+00 IRadAn=         5 IDoV= 1 UseB2=F ITyADJ=14
 ICtDFT=  3500011 ScaDFX=  1.000000  1.000000  1.000000  1.000000
 FoFCou: FMM=F IPFlag=           0 FMFlag=      100000 FMFlg1=           0
         NFxFlg=           0 DoJE=T BraDBF=F KetDBF=T FulRan=T
         wScrn=  0.000000 ICntrl=       500 IOpCl=  0 I1Cent=   200000004 NGrid=           0
         NMat0=    1 NMatS0=      1 NMatT0=    0 NMatD0=    1 NMtDS0=    0 NMtDT0=    0
 Petite list used in FoFCou.
 Harris En= -191.715468434783    
 JPrj=0 DoOrth=F DoCkMO=F.
 Initial guess orbital symmetries:
 Alpha Orbitals:
       Occupied  (A1) (B2) (A1) (B2) (A1) (A1) (B2) (A1) (B2) (A1)
                 (A1) (B2) (B2) (A1) (B1) (A1) (A2) (B1)
       Virtual   (B2) (A1) (A2) (B1) (A1) (B2) (A1) (B2) (A1) (A1)
                 (B2) (A1) (B2) (B1) (B2) (A1) (B1) (A2) (A1) (B2)
                 (A1) (A2) (B1) (B2) (A1) (A1) (B2) (A1) (B2) (A1)
                 (A1) (B2) (A1) (A1) (B2) (B2) (A1) (A1) (B2)
 Beta  Orbitals:
       Occupied  (A1) (B2) (A1) (B2) (A1) (A1) (B2) (A1) (B2) (A1)
                 (A1) (B2) (B2) (A1) (B1) (A1) (A2) (B1)
       Virtual   (B2) (A1) (A2) (B1) (A1) (B2) (A1) (B2) (A1) (A1)
                 (B2) (A1) (B2) (B1) (B2) (A1) (B1) (A2) (A1) (B2)
                 (A1) (A2) (B1) (B2) (A1) (A1) (B2) (A1) (B2) (A1)
                 (A1) (B2) (A1) (A1) (B2) (B2) (A1) (A1) (B2)
 The electronic state of the initial guess is 1-A1.
 Initial guess <Sx>= 0.0000 <Sy>= 0.0000 <Sz>= 0.0000 <S**2>=-0.0000 S=-0.0000
 Leave Link  401 at Thu Mar  5 12:50:37 2020, MaxMem=  6710886400 cpu:               3.0 elap:               0.2
 (Enter /opt/ohpc/pub/libs/gaussian/g16-A.03/sandybridge/g16/l502.exe)
 Keep R1 and R2 ints in memory in symmetry-blocked form, NReq=16815659.
 FoFCou: FMM=F IPFlag=           0 FMFlag=           0 FMFlg1=           0
         NFxFlg=           0 DoJE=F BraDBF=F KetDBF=F FulRan=T
         wScrn=  0.000000 ICntrl=       600 IOpCl=  0 I1Cent=           0 NGrid=           0
         NMat0=    1 NMatS0=   1653 NMatT0=    0 NMatD0=    1 NMtDS0=    0 NMtDT0=    0
 Petite list used in FoFCou.
 UHF open shell SCF:
 Using DIIS extrapolation, IDIIS=    10.
 NGot=  6710886400 LenX=  6710059583 LenY=  6710055893
 Requested convergence on RMS density matrix=1.00D-06 within  32 cycles.
 Requested convergence on MAX density matrix=1.00D-04.
 Requested convergence on             energy=1.00D-04.
 Virtual orbitals will be shifted by   0.500 hartree.
 No special actions if energy rises.
 Dynamic level shift is on during FON iterations.

 Cycle   1  Pass 1  IDiag  1:
 E= -196.503962071359    
 DIIS: error= 4.72D-02 at cycle   1 NSaved=   1.
 NSaved= 1 IEnMin= 1 EnMin= -196.503962071359     IErMin= 1 ErrMin= 4.72D-02
 ErrMax= 4.72D-02  0.00D+00 EMaxC= 1.00D+00 BMatC= 4.77D-01 BMatP= 4.77D-01
 IDIUse=1 WtCom= 1.00D+00 WtEn= 0.00D+00
 Coeff-Com:  0.100D+01
 Coeff:      0.100D+01
 Gap=     0.072 Goal=   None    Shift=    0.500
 T= 1768. Gap= 0.516 NK=0 IS=   19 IE=   57 IFin=   18
          NO(<0.9)=   0  NV(>0.1)=   0     18.00e < EF      0.00e >EF  Err=0.0D+00
 Gap=     0.072 Goal=   None    Shift=    0.500
 T= 1768. Gap= 0.516 NK=0 IS=   19 IE=   57 IFin=   18
          NO(<0.9)=   0  NV(>0.1)=   0     18.00e < EF      0.00e >EF  Err=0.0D+00
 GapD=    0.072 DampG=0.500 DampE=0.500 DampFc=0.2500 IDamp=-1.
 Damping current iteration by 2.50D-01
 RMSDP=2.22D-02 MaxDP=4.70D-01              OVMax= 1.42D-01

 Cycle   2  Pass 1  IDiag  1:
 E= -196.570197884653     Delta-E=       -0.066235813294 Rises=F Damp=T
 DIIS: error= 2.39D-02 at cycle   2 NSaved=   2.
 NSaved= 2 IEnMin= 2 EnMin= -196.570197884653     IErMin= 2 ErrMin= 2.39D-02
 ErrMax= 2.39D-02  0.00D+00 EMaxC= 1.00D+00 BMatC= 1.29D-01 BMatP= 4.77D-01
 IDIUse=1 WtCom= 1.00D+00 WtEn= 0.00D+00
 Coeff-Com: -0.941D+00 0.194D+01
 Coeff:     -0.941D+00 0.194D+01
 Gap=     0.002 Goal=   None    Shift=    0.500
 T= 1660. Gap= 0.517 NK=0 IS=   19 IE=   57 IFin=   18
          NO(<0.9)=   0  NV(>0.1)=   0     18.00e < EF      0.00e >EF  Err=0.0D+00
 Gap=     0.002 Goal=   None    Shift=    0.500
 T= 1660. Gap= 0.517 NK=0 IS=   19 IE=   57 IFin=   18
          NO(<0.9)=   0  NV(>0.1)=   0     18.00e < EF      0.00e >EF  Err=0.0D+00
 GapD=    0.002 DampG=0.250 DampE=0.500 DampFc=0.1250 IDamp=-1.
 Damping current iteration by 1.25D-01
 RMSDP=8.66D-03 MaxDP=6.10D-02 DE=-6.62D-02 OVMax= 1.30D-01

 Cycle   3  Pass 1  IDiag  1:
 E= -196.582669096883     Delta-E=       -0.012471212230 Rises=F Damp=T
 DIIS: error= 2.12D-02 at cycle   3 NSaved=   3.
 NSaved= 3 IEnMin= 3 EnMin= -196.582669096883     IErMin= 3 ErrMin= 2.12D-02
 ErrMax= 2.12D-02  0.00D+00 EMaxC= 1.00D+00 BMatC= 9.47D-02 BMatP= 1.29D-01
 IDIUse=1 WtCom= 1.00D+00 WtEn= 0.00D+00
 Coeff-Com: -0.425D+00-0.274D+01 0.416D+01
 Coeff:     -0.425D+00-0.274D+01 0.416D+01
 Gap=     0.086 Goal=   None    Shift=    0.500
 T= 1511. Gap= 0.588 NK=0 IS=   19 IE=   57 IFin=   18
          NO(<0.9)=   0  NV(>0.1)=   0     18.00e < EF      0.00e >EF  Err=0.0D+00
 Gap=     0.086 Goal=   None    Shift=    0.500
 T= 1511. Gap= 0.588 NK=0 IS=   19 IE=   57 IFin=   18
          NO(<0.9)=   0  NV(>0.1)=   0     18.00e < EF      0.00e >EF  Err=0.0D+00
 GapD=    0.086 DampG=0.500 DampE=0.500 DampFc=0.2500 IDamp=-1.
 Damping current iteration by 2.50D-01
 RMSDP=7.05D-03 MaxDP=4.53D-02 DE=-1.25D-02 OVMax= 4.85D-02

 Cycle   4  Pass 1  IDiag  1:
 E= -196.606070167651     Delta-E=       -0.023401070768 Rises=F Damp=T
 DIIS: error= 1.73D-02 at cycle   4 NSaved=   4.
 NSaved= 4 IEnMin= 4 EnMin= -196.606070167651     IErMin= 4 ErrMin= 1.73D-02
 ErrMax= 1.73D-02  0.00D+00 EMaxC= 1.00D+00 BMatC= 5.72D-02 BMatP= 9.47D-02
 IDIUse=1 WtCom= 1.00D+00 WtEn= 0.00D+00
 Coeff-Com: -0.375D+00 0.394D+01-0.783D+01 0.527D+01
 Coeff:     -0.375D+00 0.394D+01-0.783D+01 0.527D+01
 Gap=     0.103 Goal=   None    Shift=    0.500
 T= 1276. Gap= 0.603 NK=0 IS=   19 IE=   57 IFin=   18
          NO(<0.9)=   0  NV(>0.1)=   0     18.00e < EF      0.00e >EF  Err=0.0D+00
 Gap=     0.103 Goal=   None    Shift=    0.500
 T= 1276. Gap= 0.603 NK=0 IS=   19 IE=   57 IFin=   18
          NO(<0.9)=   0  NV(>0.1)=   0     18.00e < EF      0.00e >EF  Err=0.0D+00
 GapD=    0.103 DampG=1.000 DampE=0.500 DampFc=0.5000 IDamp=-1.
 Damping current iteration by 5.00D-01
 RMSDP=5.36D-03 MaxDP=3.28D-02 DE=-2.34D-02 OVMax= 1.08D-02

 Cycle   5  Pass 1  IDiag  1:
 E= -196.646086960388     Delta-E=       -0.040016792737 Rises=F Damp=T
 DIIS: error= 1.17D-02 at cycle   5 NSaved=   5.
 NSaved= 5 IEnMin= 5 EnMin= -196.646086960388     IErMin= 5 ErrMin= 1.17D-02
 ErrMax= 1.17D-02  0.00D+00 EMaxC= 1.00D+00 BMatC= 2.13D-02 BMatP= 5.72D-02
 IDIUse=1 WtCom= 1.00D+00 WtEn= 0.00D+00
 Coeff-Com: -0.268D+00 0.502D+00 0.263D+01-0.558D+01 0.371D+01
 Coeff:     -0.268D+00 0.502D+00 0.263D+01-0.558D+01 0.371D+01
 Gap=     0.114 Goal=   None    Shift=    0.500
 T= 1145. Gap= 0.614 NK=0 IS=   19 IE=   57 IFin=   18
          NO(<0.9)=   0  NV(>0.1)=   0     18.00e < EF      0.00e >EF  Err=0.0D+00
 Gap=     0.114 Goal=   None    Shift=    0.500
 T= 1145. Gap= 0.614 NK=0 IS=   19 IE=   57 IFin=   18
          NO(<0.9)=   0  NV(>0.1)=   0     18.00e < EF      0.00e >EF  Err=0.0D+00
 GapD=    0.114 DampG=1.000 DampE=0.500 DampFc=0.5000 IDamp=-1.
 Damping current iteration by 5.00D-01
 RMSDP=2.88D-03 MaxDP=1.80D-02 DE=-4.00D-02 OVMax= 8.56D-03

 Cycle   6  Pass 1  IDiag  1:
 E= -196.668826982500     Delta-E=       -0.022740022112 Rises=F Damp=T
 DIIS: error= 8.11D-03 at cycle   6 NSaved=   6.
 NSaved= 6 IEnMin= 6 EnMin= -196.668826982500     IErMin= 6 ErrMin= 8.11D-03
 ErrMax= 8.11D-03  0.00D+00 EMaxC= 1.00D+00 BMatC= 9.52D-03 BMatP= 2.13D-02
 IDIUse=1 WtCom= 1.00D+00 WtEn= 0.00D+00
 Coeff-Com: -0.179D+00-0.707D+00 0.349D+01-0.351D+01-0.579D+00 0.249D+01
 Coeff:     -0.179D+00-0.707D+00 0.349D+01-0.351D+01-0.579D+00 0.249D+01
 Gap=     0.119 Goal=   None    Shift=    0.500
 T=  964. Gap= 0.619 NK=0 IS=   19 IE=   57 IFin=   18
          NO(<0.9)=   0  NV(>0.1)=   0     18.00e < EF      0.00e >EF  Err=0.0D+00
 Gap=     0.119 Goal=   None    Shift=    0.500
 T=  964. Gap= 0.619 NK=0 IS=   19 IE=   57 IFin=   18
          NO(<0.9)=   0  NV(>0.1)=   0     18.00e < EF      0.00e >EF  Err=0.0D+00
 GapD=    0.119 DampG=1.000 DampE=1.000 DampFc=1.0000 IDamp=-1.
 RMSDP=1.62D-03 MaxDP=1.06D-02 DE=-2.27D-02 OVMax= 5.87D-03

 Cycle   7  Pass 1  IDiag  1:
 E= -196.693896382579     Delta-E=       -0.025069400079 Rises=F Damp=F
 DIIS: error= 4.80D-03 at cycle   7 NSaved=   7.
 NSaved= 7 IEnMin= 7 EnMin= -196.693896382579     IErMin= 7 ErrMin= 4.80D-03
 ErrMax= 4.80D-03  0.00D+00 EMaxC= 1.00D+00 BMatC= 1.87D-03 BMatP= 9.52D-03
 IDIUse=1 WtCom= 1.00D+00 WtEn= 0.00D+00
 Coeff-Com: -0.830D-01-0.715D-01-0.401D+00 0.102D+01 0.181D+01-0.431D+01
 Coeff-Com:  0.303D+01
 Coeff:     -0.830D-01-0.715D-01-0.401D+00 0.102D+01 0.181D+01-0.431D+01
 Coeff:      0.303D+01
 Gap=     0.128 Goal=   None    Shift=    0.500
 T=  718. Gap= 0.628 NK=0 IS=   19 IE=   57 IFin=   18
          NO(<0.9)=   0  NV(>0.1)=   0     18.00e < EF      0.00e >EF  Err=0.0D+00
 Gap=     0.128 Goal=   None    Shift=    0.500
 T=  718. Gap= 0.628 NK=0 IS=   19 IE=   57 IFin=   18
          NO(<0.9)=   0  NV(>0.1)=   0     18.00e < EF      0.00e >EF  Err=0.0D+00
 GapD=    0.128 DampG=1.000 DampE=1.000 DampFc=1.0000 IDamp=-1.
 RMSDP=2.60D-04 MaxDP=1.85D-03 DE=-2.51D-02 OVMax= 5.71D-03

 Cycle   8  Pass 1  IDiag  1:
 E= -196.694473363468     Delta-E=       -0.000576980889 Rises=F Damp=F
 DIIS: error= 3.74D-03 at cycle   8 NSaved=   8.
 NSaved= 8 IEnMin= 8 EnMin= -196.694473363468     IErMin= 8 ErrMin= 3.74D-03
 ErrMax= 3.74D-03  0.00D+00 EMaxC= 1.00D+00 BMatC= 9.28D-04 BMatP= 1.87D-03
 IDIUse=1 WtCom= 1.00D+00 WtEn= 0.00D+00
 Coeff-Com: -0.316D-01 0.464D+00-0.991D+00 0.601D-02 0.291D+01-0.309D+01
 Coeff-Com: -0.148D+01 0.322D+01
 Coeff:     -0.316D-01 0.464D+00-0.991D+00 0.601D-02 0.291D+01-0.309D+01
 Coeff:     -0.148D+01 0.322D+01
 Gap=     0.135 Goal=   None    Shift=    0.500
 T=  484. Gap= 0.635 NK=0 IS=   19 IE=   57 IFin=   18
          NO(<0.9)=   0  NV(>0.1)=   0     18.00e < EF      0.00e >EF  Err=0.0D+00
 Gap=     0.135 Goal=   None    Shift=    0.500
 T=  484. Gap= 0.635 NK=0 IS=   19 IE=   57 IFin=   18
          NO(<0.9)=   0  NV(>0.1)=   0     18.00e < EF      0.00e >EF  Err=0.0D+00
 GapD=    0.135 DampG=1.000 DampE=1.000 DampFc=1.0000 IDamp=-1.
 RMSDP=1.94D-04 MaxDP=2.55D-03 DE=-5.77D-04 OVMax= 6.36D-03

 Cycle   9  Pass 1  IDiag  1:
 E= -196.694843489203     Delta-E=       -0.000370125735 Rises=F Damp=F
 DIIS: error= 2.58D-03 at cycle   9 NSaved=   9.
 NSaved= 9 IEnMin= 9 EnMin= -196.694843489203     IErMin= 9 ErrMin= 2.58D-03
 ErrMax= 2.58D-03  0.00D+00 EMaxC= 1.00D+00 BMatC= 3.67D-04 BMatP= 9.28D-04
 IDIUse=1 WtCom= 1.00D+00 WtEn= 0.00D+00
 Coeff-Com:  0.132D-01-0.893D+00 0.188D+01-0.101D+01-0.208D+01 0.357D+01
 Coeff-Com: -0.198D+01-0.166D+01 0.316D+01
 Coeff:      0.132D-01-0.893D+00 0.188D+01-0.101D+01-0.208D+01 0.357D+01
 Coeff:     -0.198D+01-0.166D+01 0.316D+01
 Gap=     0.139 Goal=   None    Shift=    0.500
 T=  242. Gap= 0.639 NK=0 IS=   19 IE=   57 IFin=   18
          NO(<0.9)=   0  NV(>0.1)=   0     18.00e < EF      0.00e >EF  Err=0.0D+00
 Gap=     0.139 Goal=   None    Shift=    0.500
 T=  242. Gap= 0.639 NK=0 IS=   19 IE=   57 IFin=   18
          NO(<0.9)=   0  NV(>0.1)=   0     18.00e < EF      0.00e >EF  Err=0.0D+00
 GapD=    0.139 DampG=1.000 DampE=1.000 DampFc=1.0000 IDamp=-1.
 RMSDP=1.54D-04 MaxDP=2.33D-03 DE=-3.70D-04 OVMax= 5.55D-03

 Cycle  10  Pass 1  IDiag  1:
 E= -196.695025630352     Delta-E=       -0.000182141149 Rises=F Damp=F
 DIIS: error= 1.57D-03 at cycle  10 NSaved=  10.
 NSaved=10 IEnMin=10 EnMin= -196.695025630352     IErMin=10 ErrMin= 1.57D-03
 ErrMax= 1.57D-03  0.00D+00 EMaxC= 1.00D+00 BMatC= 1.12D-04 BMatP= 3.67D-04
 IDIUse=1 WtCom= 1.00D+00 WtEn= 0.00D+00
 Coeff-Com:  0.134D-01-0.296D+00 0.475D+00-0.282D+00 0.493D+00-0.666D+00
 Coeff-Com:  0.533D+00 0.346D+00-0.294D+01 0.332D+01
 Coeff:      0.134D-01-0.296D+00 0.475D+00-0.282D+00 0.493D+00-0.666D+00
 Coeff:      0.533D+00 0.346D+00-0.294D+01 0.332D+01
 Gap=     0.139 Goal=   None    Shift=    0.500
 T=   35. Gap= 0.639 NK=0 IS=   19 IE=   57 IFin=   18
          NO(<0.9)=   0  NV(>0.1)=   0     18.00e < EF      0.00e >EF  Err=0.0D+00
 Gap=     0.139 Goal=   None    Shift=    0.500
 T=   35. Gap= 0.639 NK=0 IS=   19 IE=   57 IFin=   18
          NO(<0.9)=   0  NV(>0.1)=   0     18.00e < EF      0.00e >EF  Err=0.0D+00
 GapD=    0.139 DampG=1.000 DampE=1.000 DampFc=1.0000 IDamp=-1.
 RMSDP=8.91D-05 MaxDP=1.53D-03 DE=-1.82D-04 OVMax= 3.64D-03

 Cycle  11  Pass 1  IDiag  1:
 E= -196.695087333021     Delta-E=       -0.000061702669 Rises=F Damp=F
 DIIS: error= 8.76D-04 at cycle  11 NSaved=  11.
 NSaved=11 IEnMin=11 EnMin= -196.695087333021     IErMin=11 ErrMin= 8.76D-04
 ErrMax= 8.76D-04  0.00D+00 EMaxC= 1.00D+00 BMatC= 3.08D-05 BMatP= 1.12D-04
 IDIUse=1 WtCom= 1.00D+00 WtEn= 0.00D+00
 Coeff-Com:  0.279D-02 0.808D-01-0.233D+00 0.219D+00-0.127D+00 0.101D+00
 Coeff-Com: -0.910D-01-0.875D-01 0.106D+01-0.343D+01 0.350D+01
 Coeff:      0.279D-02 0.808D-01-0.233D+00 0.219D+00-0.127D+00 0.101D+00
 Coeff:     -0.910D-01-0.875D-01 0.106D+01-0.343D+01 0.350D+01
 Gap=     0.139 Goal=   None    Shift=    0.500
 Gap=     0.139 Goal=   None    Shift=    0.500
 RMSDP=4.48D-05 MaxDP=8.86D-04 DE=-6.17D-05 OVMax= 1.97D-03

 Cycle  12  Pass 1  IDiag  1:
 E= -196.695104794266     Delta-E=       -0.000017461244 Rises=F Damp=F
 DIIS: error= 5.05D-04 at cycle  12 NSaved=  12.
 NSaved=12 IEnMin=12 EnMin= -196.695104794266     IErMin=12 ErrMin= 5.05D-04
 ErrMax= 5.05D-04  0.00D+00 EMaxC= 1.00D+00 BMatC= 9.29D-06 BMatP= 3.08D-05
 IDIUse=1 WtCom= 1.00D+00 WtEn= 0.00D+00
 Coeff-Com:  0.242D-03-0.271D-01 0.832D-01-0.866D-01-0.269D-01 0.121D+00
 Coeff-Com: -0.608D-01-0.112D+00 0.922D-01 0.468D+00-0.231D+01 0.285D+01
 Coeff:      0.242D-03-0.271D-01 0.832D-01-0.866D-01-0.269D-01 0.121D+00
 Coeff:     -0.608D-01-0.112D+00 0.922D-01 0.468D+00-0.231D+01 0.285D+01
 Gap=     0.139 Goal=   None    Shift=    0.500
 Gap=     0.139 Goal=   None    Shift=    0.500
 RMSDP=2.37D-05 MaxDP=5.14D-04 DE=-1.75D-05 OVMax= 1.06D-03

 Cycle  13  Pass 1  IDiag  1:
 E= -196.695109942473     Delta-E=       -0.000005148207 Rises=F Damp=F
 DIIS: error= 3.12D-04 at cycle  13 NSaved=  13.
 NSaved=13 IEnMin=13 EnMin= -196.695109942473     IErMin=13 ErrMin= 3.12D-04
 ErrMax= 3.12D-04  0.00D+00 EMaxC= 1.00D+00 BMatC= 3.40D-06 BMatP= 9.29D-06
 IDIUse=1 WtCom= 1.00D+00 WtEn= 0.00D+00
 Coeff-Com: -0.122D-02-0.529D-02 0.251D-01-0.279D-01 0.349D-01-0.490D-01
 Coeff-Com:  0.443D-01 0.345D-01-0.112D+00-0.154D+00 0.125D+01-0.372D+01
 Coeff-Com:  0.368D+01
 Coeff:     -0.122D-02-0.529D-02 0.251D-01-0.279D-01 0.349D-01-0.490D-01
 Coeff:      0.443D-01 0.345D-01-0.112D+00-0.154D+00 0.125D+01-0.372D+01
 Coeff:      0.368D+01
 Gap=     0.139 Goal=   None    Shift=    0.500
 Gap=     0.139 Goal=   None    Shift=    0.500
 RMSDP=1.33D-05 MaxDP=2.88D-04 DE=-5.15D-06 OVMax= 6.03D-04

 Cycle  14  Pass 1  IDiag  1:
 E= -196.695111698983     Delta-E=       -0.000001756510 Rises=F Damp=F
 DIIS: error= 2.03D-04 at cycle  14 NSaved=  14.
 NSaved=14 IEnMin=14 EnMin= -196.695111698983     IErMin=14 ErrMin= 2.03D-04
 ErrMax= 2.03D-04  0.00D+00 EMaxC= 1.00D+00 BMatC= 1.44D-06 BMatP= 3.40D-06
 IDIUse=1 WtCom= 1.00D+00 WtEn= 0.00D+00
 Coeff-Com: -0.726D-03-0.935D-03 0.184D-01-0.259D-01-0.245D-01 0.667D-01
 Coeff-Com: -0.576D-01 0.240D-01 0.618D-01-0.255D+00 0.803D-01 0.136D+01
 Coeff-Com: -0.406D+01 0.382D+01
 Coeff:     -0.726D-03-0.935D-03 0.184D-01-0.259D-01-0.245D-01 0.667D-01
 Coeff:     -0.576D-01 0.240D-01 0.618D-01-0.255D+00 0.803D-01 0.136D+01
 Coeff:     -0.406D+01 0.382D+01
 Gap=     0.139 Goal=   None    Shift=    0.500
 Gap=     0.139 Goal=   None    Shift=    0.500
 RMSDP=8.25D-06 MaxDP=1.75D-04 DE=-1.76D-06 OVMax= 3.92D-04

 Cycle  15  Pass 1  IDiag  1:
 E= -196.695112424298     Delta-E=       -0.000000725315 Rises=F Damp=F
 DIIS: error= 1.31D-04 at cycle  15 NSaved=  15.
 NSaved=15 IEnMin=15 EnMin= -196.695112424298     IErMin=15 ErrMin= 1.31D-04
 ErrMax= 1.31D-04  0.00D+00 EMaxC= 1.00D+00 BMatC= 5.88D-07 BMatP= 1.44D-06
 IDIUse=1 WtCom= 1.00D+00 WtEn= 0.00D+00
 Coeff-Com:  0.991D-04-0.107D-01 0.301D-01-0.271D-01-0.872D-02 0.306D-01
 Coeff-Com: -0.458D-02-0.485D-01 0.774D-01-0.293D-01-0.218D+00 0.350D+00
 Coeff-Com:  0.740D+00-0.360D+01 0.371D+01
 Coeff:      0.991D-04-0.107D-01 0.301D-01-0.271D-01-0.872D-02 0.306D-01
 Coeff:     -0.458D-02-0.485D-01 0.774D-01-0.293D-01-0.218D+00 0.350D+00
 Coeff:      0.740D+00-0.360D+01 0.371D+01
 Gap=     0.139 Goal=   None    Shift=    0.500
 Gap=     0.139 Goal=   None    Shift=    0.500
 RMSDP=5.68D-06 MaxDP=1.14D-04 DE=-7.25D-07 OVMax= 2.69D-04

 Cycle  16  Pass 1  IDiag  1:
 E= -196.695112737114     Delta-E=       -0.000000312815 Rises=F Damp=F
 DIIS: error= 8.05D-05 at cycle  16 NSaved=  16.
 NSaved=16 IEnMin=16 EnMin= -196.695112737114     IErMin=16 ErrMin= 8.05D-05
 ErrMax= 8.05D-05  0.00D+00 EMaxC= 1.00D+00 BMatC= 2.11D-07 BMatP= 5.88D-07
 IDIUse=1 WtCom= 1.00D+00 WtEn= 0.00D+00
 Coeff-Com:  0.125D-03-0.489D-02 0.131D-01-0.114D-01-0.635D-02 0.174D-01
 Coeff-Com: -0.481D-02-0.191D-01 0.512D-01-0.880D-01 0.114D+00-0.169D+00
 Coeff-Com:  0.130D+00 0.311D+00-0.229D+01 0.296D+01
 Coeff:      0.125D-03-0.489D-02 0.131D-01-0.114D-01-0.635D-02 0.174D-01
 Coeff:     -0.481D-02-0.191D-01 0.512D-01-0.880D-01 0.114D+00-0.169D+00
 Coeff:      0.130D+00 0.311D+00-0.229D+01 0.296D+01
 Gap=     0.139 Goal=   None    Shift=    0.500
 Gap=     0.139 Goal=   None    Shift=    0.500
 RMSDP=3.50D-06 MaxDP=7.29D-05 DE=-3.13D-07 OVMax= 1.71D-04

 Cycle  17  Pass 1  IDiag  1:
 E= -196.695112854129     Delta-E=       -0.000000117015 Rises=F Damp=F
 DIIS: error= 4.82D-05 at cycle  17 NSaved=  17.
 NSaved=17 IEnMin=17 EnMin= -196.695112854129     IErMin=17 ErrMin= 4.82D-05
 ErrMax= 4.82D-05  0.00D+00 EMaxC= 1.00D+00 BMatC= 7.21D-08 BMatP= 2.11D-07
 IDIUse=1 WtCom= 1.00D+00 WtEn= 0.00D+00
 Coeff-Com: -0.659D-04 0.122D-02-0.171D-03-0.319D-02 0.157D-02 0.359D-02
 Coeff-Com: -0.594D-02 0.660D-03 0.112D-01-0.162D-01-0.309D-01 0.187D+00
 Coeff-Com: -0.271D+00-0.229D+00 0.176D+01-0.437D+01 0.396D+01
 Coeff:     -0.659D-04 0.122D-02-0.171D-03-0.319D-02 0.157D-02 0.359D-02
 Coeff:     -0.594D-02 0.660D-03 0.112D-01-0.162D-01-0.309D-01 0.187D+00
 Coeff:     -0.271D+00-0.229D+00 0.176D+01-0.437D+01 0.396D+01
 Gap=     0.139 Goal=   None    Shift=    0.500
 Gap=     0.139 Goal=   None    Shift=    0.500
 RMSDP=1.93D-06 MaxDP=4.33D-05 DE=-1.17D-07 OVMax= 9.77D-05

 Cycle  18  Pass 1  IDiag  1:
 E= -196.695112893170     Delta-E=       -0.000000039041 Rises=F Damp=F
 DIIS: error= 2.99D-05 at cycle  18 NSaved=  18.
 NSaved=18 IEnMin=18 EnMin= -196.695112893170     IErMin=18 ErrMin= 2.99D-05
 ErrMax= 2.99D-05  0.00D+00 EMaxC= 1.00D+00 BMatC= 2.72D-08 BMatP= 7.21D-08
 IDIUse=1 WtCom= 1.00D+00 WtEn= 0.00D+00
 Coeff-Com: -0.354D-04-0.298D-03 0.291D-02-0.482D-02 0.123D-02 0.339D-02
 Coeff-Com: -0.264D-02-0.558D-02 0.104D-01 0.678D-03-0.487D-01 0.125D+00
 Coeff-Com: -0.216D-02-0.405D+00 0.763D+00-0.618D+00-0.164D+01 0.282D+01
 Coeff:     -0.354D-04-0.298D-03 0.291D-02-0.482D-02 0.123D-02 0.339D-02
 Coeff:     -0.264D-02-0.558D-02 0.104D-01 0.678D-03-0.487D-01 0.125D+00
 Coeff:     -0.216D-02-0.405D+00 0.763D+00-0.618D+00-0.164D+01 0.282D+01
 Gap=     0.139 Goal=   None    Shift=    0.500
 Gap=     0.139 Goal=   None    Shift=    0.500
 RMSDP=1.18D-06 MaxDP=2.68D-05 DE=-3.90D-08 OVMax= 6.06D-05

 Cycle  19  Pass 1  IDiag  1:
 E= -196.695112907939     Delta-E=       -0.000000014768 Rises=F Damp=F
 DIIS: error= 1.85D-05 at cycle  19 NSaved=  19.
 NSaved=19 IEnMin=19 EnMin= -196.695112907939     IErMin=19 ErrMin= 1.85D-05
 ErrMax= 1.85D-05  0.00D+00 EMaxC= 1.00D+00 BMatC= 1.04D-08 BMatP= 2.72D-08
 IDIUse=1 WtCom= 1.00D+00 WtEn= 0.00D+00
 Coeff-Com: -0.803D-05-0.248D-04-0.119D-04 0.383D-03-0.134D-02 0.143D-02
 Coeff-Com: -0.442D-03 0.889D-03 0.258D-02-0.155D-01 0.309D-01-0.313D-01
 Coeff-Com: -0.485D-01 0.192D+00-0.133D+00-0.349D+00 0.188D+01-0.495D+01
 Coeff-Com:  0.442D+01
 Coeff:     -0.803D-05-0.248D-04-0.119D-04 0.383D-03-0.134D-02 0.143D-02
 Coeff:     -0.442D-03 0.889D-03 0.258D-02-0.155D-01 0.309D-01-0.313D-01
 Coeff:     -0.485D-01 0.192D+00-0.133D+00-0.349D+00 0.188D+01-0.495D+01
 Coeff:      0.442D+01
 Gap=     0.139 Goal=   None    Shift=    0.500
 Gap=     0.139 Goal=   None    Shift=    0.500
 RMSDP=7.38D-07 MaxDP=1.67D-05 DE=-1.48D-08 OVMax= 3.80D-05

 SCF Done:  E(ULC-wHPBE) =  -196.695112908     A.U. after   19 cycles
            NFock= 19  Conv=0.74D-06     -V/T= 2.0233
 <Sx>= 0.0000 <Sy>= 0.0000 <Sz>= 0.0000 <S**2>=-0.0000 S=-0.0000
 <L.S>= 0.000000000000E+00
 KE= 1.922164923000D+02 PE=-7.391718526580D+02 EE= 2.052383476570D+02
 Annihilation of the first spin contaminant:
 S**2 before annihilation    -0.0000,   after    -0.0000
 Leave Link  502 at Thu Mar  5 12:50:38 2020, MaxMem=  6710886400 cpu:              28.8 elap:               1.8
 (Enter /opt/ohpc/pub/libs/gaussian/g16-A.03/sandybridge/g16/l508.exe)
 QCSCF skips out because SCF is already converged.
 Leave Link  508 at Thu Mar  5 12:50:38 2020, MaxMem=  6710886400 cpu:               0.1 elap:               0.0
 (Enter /opt/ohpc/pub/libs/gaussian/g16-A.03/sandybridge/g16/l601.exe)
 Copying SCF densities to generalized density rwf, IOpCl= 1 IROHF=0.

 **********************************************************************

            Population analysis using the SCF density.

 **********************************************************************

 Orbital symmetries:
 Alpha Orbitals:
       Occupied  (B2) (A1) (B2) (A1) (A1) (A1) (B2) (A1) (B2) (A1)
                 (A1) (B2) (B2) (A1) (B1) (A1) (A2) (B1)
       Virtual   (A1) (B2) (A2) (B1) (A1) (B2) (A1) (B2) (A1) (A1)
                 (B2) (A1) (B2) (B2) (B1) (A2) (B1) (A1) (A1) (B2)
                 (A1) (A2) (A1) (B1) (B2) (A1) (B2) (A1) (B2) (A1)
                 (A1) (A1) (B2) (A1) (B2) (B2) (A1) (A1) (B2)
 Beta  Orbitals:
       Occupied  (B2) (A1) (B2) (A1) (A1) (A1) (B2) (A1) (B2) (A1)
                 (A1) (B2) (B2) (A1) (B1) (A1) (A2) (B1)
       Virtual   (A1) (B2) (A2) (B1) (A1) (B2) (A1) (B2) (A1) (A1)
                 (B2) (A1) (B2) (B2) (B1) (A2) (B1) (A1) (A1) (B2)
                 (A1) (A2) (A1) (B1) (B2) (A1) (B2) (A1) (B2) (A1)
                 (A1) (A1) (B2) (A1) (B2) (B2) (A1) (A1) (B2)
 The electronic state is 1-A1.
 Alpha  occ. eigenvalues --  -10.19416 -10.19416 -10.15194 -10.15193 -10.09454
 Alpha  occ. eigenvalues --   -0.98086  -0.90152  -0.82064  -0.72867  -0.66830
 Alpha  occ. eigenvalues --   -0.65244  -0.58337  -0.53717  -0.50850  -0.48969
 Alpha  occ. eigenvalues --   -0.47528  -0.39758  -0.29593
 Alpha virt. eigenvalues --   -0.15728  -0.11321  -0.01029   0.10310   0.10499
 Alpha virt. eigenvalues --    0.14333   0.18256   0.19202   0.20766   0.31154
 Alpha virt. eigenvalues --    0.32544   0.40637   0.41615   0.52953   0.53060
 Alpha virt. eigenvalues --    0.61777   0.62091   0.62989   0.63515   0.65401
 Alpha virt. eigenvalues --    0.65881   0.67763   0.71033   0.71386   0.72037
 Alpha virt. eigenvalues --    0.79103   0.84828   0.86827   0.89438   0.91500
 Alpha virt. eigenvalues --    0.95912   0.98464   1.00751   1.06683   1.13034
 Alpha virt. eigenvalues --    1.18442   1.22451   1.46240   1.46960
  Beta  occ. eigenvalues --  -10.19416 -10.19416 -10.15194 -10.15193 -10.09454
  Beta  occ. eigenvalues --   -0.98086  -0.90152  -0.82064  -0.72867  -0.66830
  Beta  occ. eigenvalues --   -0.65244  -0.58337  -0.53717  -0.50850  -0.48969
  Beta  occ. eigenvalues --   -0.47528  -0.39758  -0.29593
  Beta virt. eigenvalues --   -0.15728  -0.11321  -0.01029   0.10310   0.10499
  Beta virt. eigenvalues --    0.14333   0.18256   0.19202   0.20766   0.31154
  Beta virt. eigenvalues --    0.32544   0.40637   0.41615   0.52953   0.53060
  Beta virt. eigenvalues --    0.61777   0.62091   0.62989   0.63515   0.65401
  Beta virt. eigenvalues --    0.65881   0.67763   0.71033   0.71386   0.72037
  Beta virt. eigenvalues --    0.79103   0.84828   0.86827   0.89438   0.91500
  Beta virt. eigenvalues --    0.95912   0.98464   1.00751   1.06683   1.13034
  Beta virt. eigenvalues --    1.18442   1.22451   1.46240   1.46960
          Condensed to atoms (all electrons):
               1          2          3          4          5          6
     1  C    5.305432   0.510189  -0.079018  -0.038901   0.144539   0.115447
     2  C    0.510189   4.911755   0.538787  -0.052774  -0.038901  -0.002890
     3  C   -0.079018   0.538787   4.922738   0.538787  -0.079018  -0.000209
     4  C   -0.038901  -0.052774   0.538787   4.911755   0.510189  -0.002890
     5  C    0.144539  -0.038901  -0.079018   0.510189   5.305432   0.115447
     6  H    0.115447  -0.002890  -0.000209  -0.002890   0.115447   0.665224
     7  H    0.354245  -0.036869   0.002653   0.000805  -0.003562  -0.008697
     8  H   -0.033020   0.358351  -0.013991   0.003933   0.000466   0.000179
     9  H    0.004937  -0.038029   0.374083  -0.038029   0.004937  -0.000002
    10  H    0.000466   0.003933  -0.013991   0.358351  -0.033020   0.000179
    11  H   -0.003562   0.000805   0.002653  -0.036869   0.354245  -0.008697
               7          8          9         10         11
     1  C    0.354245  -0.033020   0.004937   0.000466  -0.003562
     2  C   -0.036869   0.358351  -0.038029   0.003933   0.000805
     3  C    0.002653  -0.013991   0.374083  -0.013991   0.002653
     4  C    0.000805   0.003933  -0.038029   0.358351  -0.036869
     5  C   -0.003562   0.000466   0.004937  -0.033020   0.354245
     6  H   -0.008697   0.000179  -0.000002   0.000179  -0.008697
     7  H    0.497592   0.001011  -0.000138  -0.000010   0.000044
     8  H    0.001011   0.478594  -0.003420  -0.000090  -0.000010
     9  H   -0.000138  -0.003420   0.564283  -0.003420  -0.000138
    10  H   -0.000010  -0.000090  -0.003420   0.478594   0.001011
    11  H    0.000044  -0.000010  -0.000138   0.001011   0.497592
          Atomic-Atomic Spin Densities.
               1          2          3          4          5          6
     1  C   -0.000000   0.000000  -0.000000   0.000000  -0.000000   0.000000
     2  C    0.000000  -0.000000  -0.000000   0.000000   0.000000  -0.000000
     3  C   -0.000000  -0.000000   0.000000  -0.000000  -0.000000   0.000000
     4  C    0.000000   0.000000  -0.000000  -0.000000   0.000000  -0.000000
     5  C   -0.000000   0.000000  -0.000000   0.000000  -0.000000   0.000000
     6  H    0.000000  -0.000000   0.000000  -0.000000   0.000000   0.000000
     7  H    0.000000  -0.000000  -0.000000   0.000000  -0.000000  -0.000000
     8  H    0.000000   0.000000   0.000000   0.000000   0.000000  -0.000000
     9  H   -0.000000  -0.000000   0.000000  -0.000000  -0.000000   0.000000
    10  H    0.000000   0.000000   0.000000   0.000000   0.000000  -0.000000
    11  H   -0.000000   0.000000  -0.000000  -0.000000   0.000000  -0.000000
               7          8          9         10         11
     1  C    0.000000   0.000000  -0.000000   0.000000  -0.000000
     2  C   -0.000000   0.000000  -0.000000   0.000000   0.000000
     3  C   -0.000000   0.000000   0.000000   0.000000  -0.000000
     4  C    0.000000   0.000000  -0.000000   0.000000  -0.000000
     5  C   -0.000000   0.000000  -0.000000   0.000000   0.000000
     6  H   -0.000000  -0.000000   0.000000  -0.000000  -0.000000
     7  H    0.000000  -0.000000  -0.000000   0.000000   0.000000
     8  H   -0.000000   0.000000  -0.000000  -0.000000   0.000000
     9  H   -0.000000  -0.000000   0.000000  -0.000000  -0.000000
    10  H    0.000000  -0.000000  -0.000000   0.000000  -0.000000
    11  H    0.000000   0.000000  -0.000000  -0.000000   0.000000
 Mulliken charges and spin densities:
               1          2
     1  C   -0.280753  -0.000000
     2  C   -0.154356   0.000000
     3  C   -0.193475  -0.000000
     4  C   -0.154356   0.000000
     5  C   -0.280753  -0.000000
     6  H    0.126909   0.000000
     7  H    0.192928  -0.000000
     8  H    0.207997   0.000000
     9  H    0.134936   0.000000
    10  H    0.207997   0.000000
    11  H    0.192928  -0.000000
 Sum of Mulliken charges =  -0.00000  -0.00000
 Mulliken charges and spin densities with hydrogens summed into heavy atoms:
               1          2
     1  C    0.039084  -0.000000
     2  C    0.053640   0.000000
     3  C   -0.058540  -0.000000
     4  C    0.053640   0.000000
     5  C   -0.087825  -0.000000
 Electronic spatial extent (au):  <R**2>=            394.3984
 Charge=              0.0000 electrons
 Dipole moment (field-independent basis, Debye):
    X=             -0.0000    Y=              0.0000    Z=             -1.1592  Tot=              1.1592
 Quadrupole moment (field-independent basis, Debye-Ang):
   XX=            -36.0921   YY=            -22.6851   ZZ=            -23.7160
   XY=              0.0000   XZ=             -0.0000   YZ=             -0.0000
 Traceless Quadrupole moment (field-independent basis, Debye-Ang):
   XX=             -8.5944   YY=              4.8127   ZZ=              3.7817
   XY=              0.0000   XZ=             -0.0000   YZ=             -0.0000
 Octapole moment (field-independent basis, Debye-Ang**2):
  XXX=              0.0000  YYY=             -0.0000  ZZZ=            -11.0398  XYY=              0.0000
  XXY=              0.0000  XXZ=              2.6239  XZZ=              0.0000  YZZ=             -0.0000
  YYZ=              1.5252  XYZ=             -0.0000
 Hexadecapole moment (field-independent basis, Debye-Ang**3):
 XXXX=            -38.8287 YYYY=           -227.4599 ZZZZ=           -173.8816 XXXY=             -0.0000
 XXXZ=             -0.0000 YYYX=             -0.0000 YYYZ=              0.0000 ZZZX=             -0.0000
 ZZZY=              0.0000 XXYY=            -60.7606 XXZZ=            -51.7023 YYZZ=            -69.3546
 XXYZ=              0.0000 YYXZ=             -0.0000 ZZXY=             -0.0000
 N-N= 1.450218997931D+02 E-N=-7.391715638765D+02  KE= 1.922164923000D+02
 Symmetry A1   KE= 1.103655433127D+02
 Symmetry A2   KE= 2.352938931945D+00
 Symmetry B1   KE= 4.394638383816D+00
 Symmetry B2   KE= 7.510337167160D+01
 Symmetry A1   SP=-1.161705472537D-14
 Symmetry A2   SP= 2.144929232176D-15
 Symmetry B1   SP= 9.101906542069D-16
 Symmetry B2   SP= 5.585179607144D-15
                          Isotropic Fermi Contact Couplings
        Atom                 a.u.       MegaHertz       Gauss      10(-4) cm-1
     1  C(13)              0.00000       0.00000       0.00000       0.00000
     2  C(13)              0.00000       0.00000       0.00000       0.00000
     3  C(13)             -0.00000      -0.00000      -0.00000      -0.00000
     4  C(13)              0.00000       0.00000       0.00000       0.00000
     5  C(13)              0.00000       0.00000       0.00000       0.00000
     6  H(1)               0.00000       0.00000       0.00000       0.00000
     7  H(1)              -0.00000      -0.00000      -0.00000      -0.00000
     8  H(1)              -0.00000      -0.00000      -0.00000      -0.00000
     9  H(1)              -0.00000      -0.00000      -0.00000      -0.00000
    10  H(1)              -0.00000      -0.00000      -0.00000      -0.00000
    11  H(1)              -0.00000      -0.00000      -0.00000      -0.00000
 --------------------------------------------------------
       Center         ----  Spin Dipole Couplings  ----
                      3XX-RR        3YY-RR        3ZZ-RR
 --------------------------------------------------------
     1   Atom        0.000000      0.000000      0.000000
     2   Atom        0.000000      0.000000      0.000000
     3   Atom        0.000000      0.000000      0.000000
     4   Atom        0.000000      0.000000      0.000000
     5   Atom        0.000000      0.000000      0.000000
     6   Atom        0.000000      0.000000      0.000000
     7   Atom        0.000000      0.000000      0.000000
     8   Atom        0.000000      0.000000      0.000000
     9   Atom        0.000000      0.000000      0.000000
    10   Atom        0.000000      0.000000      0.000000
    11   Atom        0.000000      0.000000      0.000000
 --------------------------------------------------------
                        XY            XZ            YZ
 --------------------------------------------------------
     1   Atom        0.000000      0.000000      0.000000
     2   Atom        0.000000      0.000000      0.000000
     3   Atom        0.000000      0.000000      0.000000
     4   Atom        0.000000      0.000000      0.000000
     5   Atom        0.000000      0.000000      0.000000
     6   Atom        0.000000      0.000000      0.000000
     7   Atom        0.000000      0.000000      0.000000
     8   Atom        0.000000      0.000000      0.000000
     9   Atom        0.000000      0.000000      0.000000
    10   Atom        0.000000      0.000000      0.000000
    11   Atom        0.000000      0.000000      0.000000
 --------------------------------------------------------


 ---------------------------------------------------------------------------------
              Anisotropic Spin Dipole Couplings in Principal Axis System
 ---------------------------------------------------------------------------------

       Atom             a.u.   MegaHertz   Gauss  10(-4) cm-1        Axes

              Baa     0.0000     0.000     0.000     0.000  1.0000  0.0000  0.0000
     1 C(13)  Bbb     0.0000     0.000     0.000     0.000 -0.0000  1.0000  0.0000
              Bcc     0.0000     0.000     0.000     0.000  0.0000  0.0000  1.0000
 
              Baa     0.0000     0.000     0.000     0.000  1.0000  0.0000  0.0000
     2 C(13)  Bbb     0.0000     0.000     0.000     0.000 -0.0000  1.0000  0.0000
              Bcc     0.0000     0.000     0.000     0.000  0.0000  0.0000  1.0000
 
              Baa     0.0000     0.000     0.000     0.000  1.0000  0.0000  0.0000
     3 C(13)  Bbb     0.0000     0.000     0.000     0.000 -0.0000  1.0000  0.0000
              Bcc     0.0000     0.000     0.000     0.000  0.0000  0.0000  1.0000
 
              Baa     0.0000     0.000     0.000     0.000  1.0000  0.0000  0.0000
     4 C(13)  Bbb     0.0000     0.000     0.000     0.000 -0.0000  1.0000  0.0000
              Bcc     0.0000     0.000     0.000     0.000  0.0000  0.0000  1.0000
 
              Baa     0.0000     0.000     0.000     0.000  1.0000  0.0000  0.0000
     5 C(13)  Bbb     0.0000     0.000     0.000     0.000 -0.0000  1.0000  0.0000
              Bcc     0.0000     0.000     0.000     0.000  0.0000  0.0000  1.0000
 
              Baa     0.0000     0.000     0.000     0.000  1.0000  0.0000  0.0000
     6 H(1)   Bbb     0.0000     0.000     0.000     0.000 -0.0000  1.0000  0.0000
              Bcc     0.0000     0.000     0.000     0.000  0.0000  0.0000  1.0000
 
              Baa     0.0000     0.000     0.000     0.000  1.0000  0.0000  0.0000
     7 H(1)   Bbb     0.0000     0.000     0.000     0.000 -0.0000  1.0000  0.0000
              Bcc     0.0000     0.000     0.000     0.000  0.0000  0.0000  1.0000
 
              Baa     0.0000     0.000     0.000     0.000  1.0000  0.0000  0.0000
     8 H(1)   Bbb     0.0000     0.000     0.000     0.000 -0.0000  1.0000  0.0000
              Bcc     0.0000     0.000     0.000     0.000  0.0000  0.0000  1.0000
 
              Baa     0.0000     0.000     0.000     0.000  1.0000  0.0000  0.0000
     9 H(1)   Bbb     0.0000     0.000     0.000     0.000 -0.0000  1.0000  0.0000
              Bcc     0.0000     0.000     0.000     0.000  0.0000  0.0000  1.0000
 
              Baa     0.0000     0.000     0.000     0.000  1.0000  0.0000  0.0000
    10 H(1)   Bbb     0.0000     0.000     0.000     0.000 -0.0000  1.0000  0.0000
              Bcc     0.0000     0.000     0.000     0.000  0.0000  0.0000  1.0000
 
              Baa     0.0000     0.000     0.000     0.000  1.0000  0.0000  0.0000
    11 H(1)   Bbb     0.0000     0.000     0.000     0.000 -0.0000  1.0000  0.0000
              Bcc     0.0000     0.000     0.000     0.000  0.0000  0.0000  1.0000
 

 ---------------------------------------------------------------------------------

 No NMR shielding tensors so no spin-rotation constants.
 Leave Link  601 at Thu Mar  5 12:50:39 2020, MaxMem=  6710886400 cpu:               1.9 elap:               0.1
 (Enter /opt/ohpc/pub/libs/gaussian/g16-A.03/sandybridge/g16/l9999.exe)

 Test job not archived.
 1\1\GINC-CNODE212\SP\ULC-wHPBE\6-31G\C5H6\SMGO234\05-Mar-2020\0\\#P uL
 C-wHPBE/6-31G iop(3/130=0273800000, 3/131=0273800000, 3/119=0726200000
 , 3/120=0726200000) scf=(conver=6,fermi,ndamp=35,noincfock,novaracc,vs
 hift=500,xqc)\\H6 C5\\0,1\C,0,-1.206512,0.69658,0.\C,0,-1.206512,-0.69
 658,0.\C,0,0.,-1.39316,0.\C,0,1.206512,-0.69658,0.\C,0,1.206512,0.6965
 8,0.\H,0,0.,2.482681,0.\H,0,-2.150065,1.24134,0.\H,0,-2.150065,-1.2413
 4,0.\H,0,0.,-2.482681,0.\H,0,2.150065,-1.24134,0.\H,0,2.150065,1.24134
 ,0.\\Version=EM64L-G16RevA.03\State=1-A1\HF=-196.6951129\S2=0.\S2-1=0.
 \S2A=0.\RMSD=7.380e-07\Dipole=0.,0.4560607,0.\Quadrupole=3.5781011,2.8
 116204,-6.3897215,0.,0.,0.\PG=C02V [C2(H1C1H1),SGV(C4H4)]\\@


 WE MIGHT AS WELL ATTEMPT TO INTRODUCE A NEW PLANET 
 INTO THE SOLAR SYSTEM, OR TO ANNIHILATE ONE ALREADYIN EXISTENCE, 
 AS TO CREATE OR DESTROY A PARTICLE OF HYDROGEN.
 ALL THE CHANGES WE CAN PRODUCE CONSIST IN SEPARATING PARTICLES
 THAT ARE IN A STATE OF ... COMBINATION, AND JOINING 
 THOSE THAT WERE PREVIOUSLY AT A DISTANCE.

                                    -- JOHN DALTON, 1810
 Job cpu time:       0 days  0 hours  0 minutes 58.6 seconds.
 Elapsed time:       0 days  0 hours  0 minutes  4.0 seconds.
 File lengths (MBytes):  RWF=    272 Int=      0 D2E=      0 Chk=     32 Scr=     32
 Normal termination of Gaussian 16 at Thu Mar  5 12:50:39 2020.
