 Entering Gaussian System, Link 0=g16
 Input=a1b_tune_c6.gjf
 Output=a1b_tune_c6.log
 Initial command:
 /opt/ohpc/pub/libs/gaussian/g16-A.03/sandybridge/g16/l1.exe "/scratch/smgo234/Ocelot/test/a1b/tuning_a1b_acycle0/Gau-72622.inp" -scrdir="/scratch/smgo234/Ocelot/test/a1b/tuning_a1b_acycle0/"
 Entering Link 1 = /opt/ohpc/pub/libs/gaussian/g16-A.03/sandybridge/g16/l1.exe PID=     72623.
  
 Copyright (c) 1988,1990,1992,1993,1995,1998,2003,2009,2016,
            Gaussian, Inc.  All Rights Reserved.
  
 This is part of the Gaussian(R) 16 program.  It is based on
 the Gaussian(R) 09 system (copyright 2009, Gaussian, Inc.),
 the Gaussian(R) 03 system (copyright 2003, Gaussian, Inc.),
 the Gaussian(R) 98 system (copyright 1998, Gaussian, Inc.),
 the Gaussian(R) 94 system (copyright 1995, Gaussian, Inc.),
 the Gaussian 92(TM) system (copyright 1992, Gaussian, Inc.),
 the Gaussian 90(TM) system (copyright 1990, Gaussian, Inc.),
 the Gaussian 88(TM) system (copyright 1988, Gaussian, Inc.),
 the Gaussian 86(TM) system (copyright 1986, Carnegie Mellon
 University), and the Gaussian 82(TM) system (copyright 1983,
 Carnegie Mellon University). Gaussian is a federally registered
 trademark of Gaussian, Inc.
  
 This software contains proprietary and confidential information,
 including trade secrets, belonging to Gaussian, Inc.
  
 This software is provided under written license and may be
 used, copied, transmitted, or stored only in accord with that
 written license.
  
 The following legend is applicable only to US Government
 contracts under FAR:
  
                    RESTRICTED RIGHTS LEGEND
  
 Use, reproduction and disclosure by the US Government is
 subject to restrictions as set forth in subparagraphs (a)
 and (c) of the Commercial Computer Software - Restricted
 Rights clause in FAR 52.227-19.
  
 Gaussian, Inc.
 340 Quinnipiac St., Bldg. 40, Wallingford CT 06492
  
  
 ---------------------------------------------------------------
 Warning -- This program may not be used in any manner that
 competes with the business of Gaussian, Inc. or will provide
 assistance to any competitor of Gaussian, Inc.  The licensee
 of this program is prohibited from giving any competitor of
 Gaussian, Inc. access to this program.  By using this program,
 the user acknowledges that Gaussian, Inc. is engaged in the
 business of creating and licensing software in the field of
 computational chemistry and represents and warrants to the
 licensee that it is not a competitor of Gaussian, Inc. and that
 it will not use this program in any manner prohibited above.
 ---------------------------------------------------------------
  

 Cite this work as:
 Gaussian 16, Revision A.03,
 M. J. Frisch, G. W. Trucks, H. B. Schlegel, G. E. Scuseria, 
 M. A. Robb, J. R. Cheeseman, G. Scalmani, V. Barone, 
 G. A. Petersson, H. Nakatsuji, X. Li, M. Caricato, A. V. Marenich, 
 J. Bloino, B. G. Janesko, R. Gomperts, B. Mennucci, H. P. Hratchian, 
 J. V. Ortiz, A. F. Izmaylov, J. L. Sonnenberg, D. Williams-Young, 
 F. Ding, F. Lipparini, F. Egidi, J. Goings, B. Peng, A. Petrone, 
 T. Henderson, D. Ranasinghe, V. G. Zakrzewski, J. Gao, N. Rega, 
 G. Zheng, W. Liang, M. Hada, M. Ehara, K. Toyota, R. Fukuda, 
 J. Hasegawa, M. Ishida, T. Nakajima, Y. Honda, O. Kitao, H. Nakai, 
 T. Vreven, K. Throssell, J. A. Montgomery, Jr., J. E. Peralta, 
 F. Ogliaro, M. J. Bearpark, J. J. Heyd, E. N. Brothers, K. N. Kudin, 
 V. N. Staroverov, T. A. Keith, R. Kobayashi, J. Normand, 
 K. Raghavachari, A. P. Rendell, J. C. Burant, S. S. Iyengar, 
 J. Tomasi, M. Cossi, J. M. Millam, M. Klene, C. Adamo, R. Cammi, 
 J. W. Ochterski, R. L. Martin, K. Morokuma, O. Farkas, 
 J. B. Foresman, and D. J. Fox, Gaussian, Inc., Wallingford CT, 2016.
 
 ******************************************
 Gaussian 16:  EM64L-G16RevA.03 25-Dec-2016
                 5-Mar-2020 
 ******************************************
 %mem=50GB
 %nproc=16
 Will use up to   16 processors via shared memory.
 ----------------------------------------------------------------------
 #P uLC-wHPBE/6-31G iop(3/130=0303000000, 3/131=0303000000, 3/119=06970
 00000, 3/120=0697000000) scf=(conver=6,fermi,ndamp=35,noincfock,novara
 cc,vshift=500,xqc)
 ----------------------------------------------------------------------
 1/38=1,172=1/1;
 2/12=2,17=6,18=5,40=1/2;
 3/5=1,6=6,11=2,25=1,30=1,74=-71,116=2,119=697000000,120=697000000,130=303000000,131=303000000/1,2,3;
 4//1;
 5/5=100002,6=6,8=3,10=500,13=1,18=-1,22=13,38=1,93=35/2,8;
 6/7=2,8=2,9=2,10=2,28=1/1;
 99/5=1,9=1/99;
 Leave Link    1 at Thu Mar  5 12:44:04 2020, MaxMem=  6710886400 cpu:              18.3 elap:               1.2
 (Enter /opt/ohpc/pub/libs/gaussian/g16-A.03/sandybridge/g16/l101.exe)
 -----
 H6 C5
 -----
 Symbolic Z-matrix:
 Charge =  1 Multiplicity = 2
 C                    -1.20651   0.69658   0. 
 C                    -1.20651  -0.69658   0. 
 C                     0.       -1.39316   0. 
 C                     1.20651  -0.69658   0. 
 C                     1.20651   0.69658   0. 
 H                     0.        2.48268   0. 
 H                    -2.15007   1.24134   0. 
 H                    -2.15007  -1.24134   0. 
 H                     0.       -2.48268   0. 
 H                     2.15007  -1.24134   0. 
 H                     2.15007   1.24134   0. 
 
 ITRead=  0  0  0  0  0  0  0  0  0  0  0
 MicOpt= -1 -1 -1 -1 -1 -1 -1 -1 -1 -1 -1
 NAtoms=     11 NQM=       11 NQMF=       0 NMMI=      0 NMMIF=      0
                NMic=       0 NMicF=      0.
                    Isotopes and Nuclear Properties:
 (Nuclear quadrupole moments (NQMom) in fm**2, nuclear magnetic moments (NMagM)
  in nuclear magnetons)

  Atom         1           2           3           4           5           6           7           8           9          10
 IAtWgt=          12          12          12          12          12           1           1           1           1           1
 AtmWgt=  12.0000000  12.0000000  12.0000000  12.0000000  12.0000000   1.0078250   1.0078250   1.0078250   1.0078250   1.0078250
 NucSpn=           0           0           0           0           0           1           1           1           1           1
 AtZEff=  -0.0000000  -0.0000000  -0.0000000  -0.0000000  -0.0000000  -0.0000000  -0.0000000  -0.0000000  -0.0000000  -0.0000000
 NQMom=    0.0000000   0.0000000   0.0000000   0.0000000   0.0000000   0.0000000   0.0000000   0.0000000   0.0000000   0.0000000
 NMagM=    0.0000000   0.0000000   0.0000000   0.0000000   0.0000000   2.7928460   2.7928460   2.7928460   2.7928460   2.7928460
 AtZNuc=   6.0000000   6.0000000   6.0000000   6.0000000   6.0000000   1.0000000   1.0000000   1.0000000   1.0000000   1.0000000

  Atom        11
 IAtWgt=           1
 AtmWgt=   1.0078250
 NucSpn=           1
 AtZEff=  -0.0000000
 NQMom=    0.0000000
 NMagM=    2.7928460
 AtZNuc=   1.0000000
 Leave Link  101 at Thu Mar  5 12:44:05 2020, MaxMem=  6710886400 cpu:               3.1 elap:               0.2
 (Enter /opt/ohpc/pub/libs/gaussian/g16-A.03/sandybridge/g16/l202.exe)
                          Input orientation:                          
 ---------------------------------------------------------------------
 Center     Atomic      Atomic             Coordinates (Angstroms)
 Number     Number       Type             X           Y           Z
 ---------------------------------------------------------------------
      1          6           0       -1.206512    0.696580    0.000000
      2          6           0       -1.206512   -0.696580    0.000000
      3          6           0        0.000000   -1.393160    0.000000
      4          6           0        1.206512   -0.696580    0.000000
      5          6           0        1.206512    0.696580    0.000000
      6          1           0        0.000000    2.482681    0.000000
      7          1           0       -2.150065    1.241340    0.000000
      8          1           0       -2.150065   -1.241340    0.000000
      9          1           0        0.000000   -2.482681    0.000000
     10          1           0        2.150065   -1.241340    0.000000
     11          1           0        2.150065    1.241340    0.000000
 ---------------------------------------------------------------------
                    Distance matrix (angstroms):
                    1          2          3          4          5
     1  C    0.000000
     2  C    1.393160   0.000000
     3  C    2.413024   1.393160   0.000000
     4  C    2.786320   2.413024   1.393160   0.000000
     5  C    2.413024   2.786320   2.413024   1.393160   0.000000
     6  H    2.155418   3.400496   3.875841   3.400496   2.155418
     7  H    1.089521   2.155418   3.400496   3.875841   3.400496
     8  H    2.155418   1.089521   2.155418   3.400496   3.875841
     9  H    3.400496   2.155418   1.089521   2.155418   3.400496
    10  H    3.875841   3.400496   2.155418   1.089521   2.155418
    11  H    3.400496   3.875841   3.400496   2.155418   1.089521
                    6          7          8          9         10
     6  H    0.000000
     7  H    2.482681   0.000000
     8  H    4.300129   2.482680   0.000000
     9  H    4.965362   4.300129   2.482681   0.000000
    10  H    4.300129   4.965362   4.300130   2.482681   0.000000
    11  H    2.482681   4.300130   4.965362   4.300129   2.482680
                   11
    11  H    0.000000
 Stoichiometry    C5H6(1+,2)
 Framework group  C2V[C2(HCH),SGV(C4H4)]
 Deg. of freedom    10
 Full point group                 C2V     NOp   4
 Largest Abelian subgroup         C2V     NOp   4
 Largest concise Abelian subgroup C2      NOp   2
                         Standard orientation:                         
 ---------------------------------------------------------------------
 Center     Atomic      Atomic             Coordinates (Angstroms)
 Number     Number       Type             X           Y           Z
 ---------------------------------------------------------------------
      1          6           0       -0.000000    1.206512   -0.928773
      2          6           0       -0.000000    1.206512    0.464387
      3          6           0        0.000000    0.000000    1.160967
      4          6           0       -0.000000   -1.206512    0.464387
      5          6           0       -0.000000   -1.206512   -0.928773
      6          1           0       -0.000000   -0.000000   -2.714874
      7          1           0       -0.000000    2.150065   -1.473533
      8          1           0       -0.000000    2.150065    1.009147
      9          1           0        0.000000    0.000000    2.250488
     10          1           0       -0.000000   -2.150065    1.009147
     11          1           0       -0.000000   -2.150065   -1.473533
 ---------------------------------------------------------------------
 Rotational constants (GHZ):           8.2868568           5.7099792           3.3806054
 Leave Link  202 at Thu Mar  5 12:44:05 2020, MaxMem=  6710886400 cpu:               0.2 elap:               0.0
 (Enter /opt/ohpc/pub/libs/gaussian/g16-A.03/sandybridge/g16/l301.exe)
 Standard basis: 6-31G (6D, 7F)
 Ernie: Thresh=  0.10000D-02 Tol=  0.10000D-05 Strict=F.
 There are    27 symmetry adapted cartesian basis functions of A1  symmetry.
 There are     4 symmetry adapted cartesian basis functions of A2  symmetry.
 There are     6 symmetry adapted cartesian basis functions of B1  symmetry.
 There are    20 symmetry adapted cartesian basis functions of B2  symmetry.
 There are    27 symmetry adapted basis functions of A1  symmetry.
 There are     4 symmetry adapted basis functions of A2  symmetry.
 There are     6 symmetry adapted basis functions of B1  symmetry.
 There are    20 symmetry adapted basis functions of B2  symmetry.
    57 basis functions,   134 primitive gaussians,    57 cartesian basis functions
    18 alpha electrons       17 beta electrons
       nuclear repulsion energy       145.0218997931 Hartrees.
 IExCor=33909 DFT=T Ex+Corr=LC-wHPBE ExCW=0 ScaHFX=  1.000000
 ScaDFX=  1.000000  1.000000  1.000000  1.000000 ScalE2=  1.000000  1.000000
 IRadAn=      5 IRanWt=     -1 IRanGd=            0 ICorTp=0 IEmpDi=  4
 HFx  wShort=  0.000000 wLong=  0.400000 cFull=  0.000000 cShort=  0.000000 cLong=  0.697000
 DFx  wShort=  0.000000 wLong=  0.400000 cFull=  0.000000 cShort=  1.000000 cLong=  0.697000
 NAtoms=   11 NActive=   11 NUniq=    7 SFac= 2.47D+00 NAtFMM=   60 NAOKFM=F Big=F
 Integral buffers will be    131072 words long.
 Raffenetti 2 integral format.
 Two-electron integral symmetry is turned on.
 Leave Link  301 at Thu Mar  5 12:44:05 2020, MaxMem=  6710886400 cpu:               0.9 elap:               0.1
 (Enter /opt/ohpc/pub/libs/gaussian/g16-A.03/sandybridge/g16/l302.exe)
 NPDir=0 NMtPBC=     1 NCelOv=     1 NCel=       1 NClECP=     1 NCelD=      1
         NCelK=      1 NCelE2=     1 NClLst=     1 CellRange=     0.0.
 One-electron integrals computed using PRISM.
 One-electron integral symmetry used in STVInt
 NBasis=    57 RedAO= T EigKep=  2.88D-03  NBF=    27     4     6    20
 NBsUse=    57 1.00D-06 EigRej= -1.00D+00 NBFU=    27     4     6    20
 Precomputing XC quadrature grid using
 IXCGrd= 4 IRadAn=           5 IRanWt=          -1 IRanGd=           0 AccXCQ= 0.00D+00.
 Generated NRdTot=       0 NPtTot=           0 NUsed=           0 NTot=          32
 NSgBfM=    57    57    57    57    57 MxSgAt=    11 MxSgA2=    11.
 Leave Link  302 at Thu Mar  5 12:44:05 2020, MaxMem=  6710886400 cpu:               1.9 elap:               0.1
 (Enter /opt/ohpc/pub/libs/gaussian/g16-A.03/sandybridge/g16/l303.exe)
 DipDrv:  MaxL=1.
 Leave Link  303 at Thu Mar  5 12:44:05 2020, MaxMem=  6710886400 cpu:               0.5 elap:               0.1
 (Enter /opt/ohpc/pub/libs/gaussian/g16-A.03/sandybridge/g16/l401.exe)
 ExpMin= 1.61D-01 ExpMax= 3.05D+03 ExpMxC= 4.57D+02 IAcc=3 IRadAn=         5 AccDes= 0.00D+00
 Harris functional with IExCor=33909 and IRadAn=       5 diagonalized for initial guess.
 HarFok:  IExCor=33909 AccDes= 0.00D+00 IRadAn=         5 IDoV= 1 UseB2=F ITyADJ=14
 ICtDFT=  3500011 ScaDFX=  1.000000  1.000000  1.000000  1.000000
 FoFCou: FMM=F IPFlag=           0 FMFlag=      100000 FMFlg1=           0
         NFxFlg=           0 DoJE=T BraDBF=F KetDBF=T FulRan=T
         wScrn=  0.000000 ICntrl=       500 IOpCl=  0 I1Cent=   200000004 NGrid=           0
         NMat0=    1 NMatS0=      1 NMatT0=    0 NMatD0=    1 NMtDS0=    0 NMtDT0=    0
 Petite list used in FoFCou.
 Harris En= -191.320830132133    
 JPrj=0 DoOrth=F DoCkMO=F.
 Initial guess orbital symmetries:
 Alpha Orbitals:
       Occupied  (A1) (B2) (A1) (B2) (A1) (A1) (B2) (A1) (B2) (A1)
                 (A1) (B2) (B2) (A1) (B1) (A1) (A2) (B1)
       Virtual   (B2) (A1) (A2) (B1) (A1) (B2) (A1) (B2) (A1) (A1)
                 (B2) (A1) (B2) (B1) (B2) (A1) (B1) (A2) (A1) (B2)
                 (A1) (A2) (B1) (B2) (A1) (A1) (B2) (A1) (B2) (A1)
                 (A1) (B2) (A1) (A1) (B2) (B2) (A1) (A1) (B2)
 Beta  Orbitals:
       Occupied  (A1) (B2) (A1) (B2) (A1) (A1) (B2) (A1) (B2) (A1)
                 (A1) (B2) (B2) (A1) (B1) (A1) (A2)
       Virtual   (B1) (B2) (A1) (A2) (B1) (A1) (B2) (A1) (B2) (A1)
                 (A1) (B2) (A1) (B2) (B1) (B2) (A1) (B1) (A2) (A1)
                 (B2) (A1) (A2) (B1) (B2) (A1) (A1) (B2) (A1) (B2)
                 (A1) (A1) (B2) (A1) (A1) (B2) (B2) (A1) (A1) (B2)
 The electronic state of the initial guess is 2-B1.
 Initial guess <Sx>= 0.0000 <Sy>= 0.0000 <Sz>= 0.5000 <S**2>= 0.7500 S= 0.5000
 Leave Link  401 at Thu Mar  5 12:44:05 2020, MaxMem=  6710886400 cpu:               3.0 elap:               0.2
 (Enter /opt/ohpc/pub/libs/gaussian/g16-A.03/sandybridge/g16/l502.exe)
 Keep R1 and R2 ints in memory in symmetry-blocked form, NReq=16815659.
 FoFCou: FMM=F IPFlag=           0 FMFlag=           0 FMFlg1=           0
         NFxFlg=           0 DoJE=F BraDBF=F KetDBF=F FulRan=T
         wScrn=  0.000000 ICntrl=       600 IOpCl=  0 I1Cent=           0 NGrid=           0
         NMat0=    1 NMatS0=   1653 NMatT0=    0 NMatD0=    1 NMtDS0=    0 NMtDT0=    0
 Petite list used in FoFCou.
 UHF open shell SCF:
 Using DIIS extrapolation, IDIIS=    10.
 NGot=  6710886400 LenX=  6710059583 LenY=  6710055893
 Requested convergence on RMS density matrix=1.00D-06 within  32 cycles.
 Requested convergence on MAX density matrix=1.00D-04.
 Requested convergence on             energy=1.00D-04.
 Virtual orbitals will be shifted by   0.500 hartree.
 No special actions if energy rises.
 Dynamic level shift is on during FON iterations.

 Cycle   1  Pass 1  IDiag  1:
 E= -195.861839723180    
 DIIS: error= 5.91D-02 at cycle   1 NSaved=   1.
 NSaved= 1 IEnMin= 1 EnMin= -195.861839723180     IErMin= 1 ErrMin= 5.91D-02
 ErrMax= 5.91D-02  0.00D+00 EMaxC= 1.00D+00 BMatC= 2.94D-01 BMatP= 2.94D-01
 IDIUse=1 WtCom= 1.00D+00 WtEn= 0.00D+00
 Coeff-Com:  0.100D+01
 Coeff:      0.100D+01
 Gap=     0.029 Goal=   None    Shift=    0.500
 T= 1903. Gap= 0.486 NK=0 IS=   19 IE=   57 IFin=   18
          NO(<0.9)=   0  NV(>0.1)=   0     18.00e < EF      0.00e >EF  Err=0.0D+00
 Gap=     0.051 Goal=   None    Shift=    0.500
 T= 1903. Gap= 0.557 NK=0 IS=   18 IE=   57 IFin=   17
          NO(<0.9)=   0  NV(>0.1)=   0     17.00e < EF      0.00e >EF  Err=0.0D+00
 GapD=    0.029 DampG=0.250 DampE=0.500 DampFc=0.1250 IDamp=-1.
 Damping current iteration by 1.25D-01
 RMSDP=8.01D-03 MaxDP=6.41D-02              OVMax= 1.32D-01

 Cycle   2  Pass 1  IDiag  1:
 E= -195.881928623445     Delta-E=       -0.020088900265 Rises=F Damp=T
 DIIS: error= 5.13D-02 at cycle   2 NSaved=   2.
 NSaved= 2 IEnMin= 2 EnMin= -195.881928623445     IErMin= 2 ErrMin= 5.13D-02
 ErrMax= 5.13D-02  0.00D+00 EMaxC= 1.00D+00 BMatC= 2.10D-01 BMatP= 2.94D-01
 IDIUse=1 WtCom= 1.00D+00 WtEn= 0.00D+00
 Coeff-Com: -0.492D+01 0.592D+01
 Coeff:     -0.492D+01 0.592D+01
 Gap=     0.128 Goal=   None    Shift=    0.500
 T= 1876. Gap= 0.608 NK=4 IS=   19 IE=   24 IFin=   18
          NO(<0.9)=   0  NV(>0.1)=   0     18.00e < EF      0.00e >EF  Err=0.0D+00
 Gap=     0.158 Goal=   None    Shift=    0.500
 T= 1876. Gap= 0.660 NK=4 IS=   18 IE=   21 IFin=   17
          NO(<0.9)=   0  NV(>0.1)=   0     17.00e < EF      0.00e >EF  Err=0.0D+00
 GapD=    0.128 DampG=1.000 DampE=0.500 DampFc=0.5000 IDamp=-1.
 Damping current iteration by 5.00D-01
 RMSDP=7.48D-03 MaxDP=6.24D-02 DE=-2.01D-02 OVMax= 5.51D-02

 Cycle   3  Pass 1  IDiag  1:
 E= -195.939522114519     Delta-E=       -0.057593491074 Rises=F Damp=T
 DIIS: error= 2.74D-02 at cycle   3 NSaved=   3.
 NSaved= 3 IEnMin= 3 EnMin= -195.939522114519     IErMin= 3 ErrMin= 2.74D-02
 ErrMax= 2.74D-02  0.00D+00 EMaxC= 1.00D+00 BMatC= 4.45D-02 BMatP= 2.10D-01
 IDIUse=1 WtCom= 1.00D+00 WtEn= 0.00D+00
 Coeff-Com:  0.222D+01-0.373D+01 0.251D+01
 Coeff:      0.222D+01-0.373D+01 0.251D+01
 Gap=     0.160 Goal=   None    Shift=    0.500
 T= 1751. Gap= 0.659 NK=4 IS=   19 IE=   24 IFin=   18
          NO(<0.9)=   0  NV(>0.1)=   0     18.00e < EF      0.00e >EF  Err=0.0D+00
 Gap=     0.211 Goal=   None    Shift=    0.500
 T= 1751. Gap= 0.711 NK=4 IS=   18 IE=   21 IFin=   17
          NO(<0.9)=   0  NV(>0.1)=   0     17.00e < EF      0.00e >EF  Err=0.0D+00
 GapD=    0.160 DampG=1.000 DampE=0.500 DampFc=0.5000 IDamp=-1.
 Damping current iteration by 5.00D-01
 RMSDP=3.74D-03 MaxDP=3.20D-02 DE=-5.76D-02 OVMax= 2.25D-02

 Cycle   4  Pass 1  IDiag  1:
 E= -195.961893596034     Delta-E=       -0.022371481515 Rises=F Damp=T
 DIIS: error= 1.58D-02 at cycle   4 NSaved=   4.
 NSaved= 4 IEnMin= 4 EnMin= -195.961893596034     IErMin= 4 ErrMin= 1.58D-02
 ErrMax= 1.58D-02  0.00D+00 EMaxC= 1.00D+00 BMatC= 1.14D-02 BMatP= 4.45D-02
 IDIUse=1 WtCom= 1.00D+00 WtEn= 0.00D+00
 Coeff-Com:  0.804D+00-0.616D+00-0.209D+01 0.290D+01
 Coeff:      0.804D+00-0.616D+00-0.209D+01 0.290D+01
 Gap=     0.175 Goal=   None    Shift=    0.500
 T= 1525. Gap= 0.675 NK=4 IS=   19 IE=   24 IFin=   18
          NO(<0.9)=   0  NV(>0.1)=   0     18.00e < EF      0.00e >EF  Err=0.0D+00
 Gap=     0.224 Goal=   None    Shift=    0.500
 T= 1525. Gap= 0.724 NK=4 IS=   18 IE=   21 IFin=   17
          NO(<0.9)=   0  NV(>0.1)=   0     17.00e < EF      0.00e >EF  Err=0.0D+00
 GapD=    0.175 DampG=1.000 DampE=0.500 DampFc=0.5000 IDamp=-1.
 Damping current iteration by 5.00D-01
 RMSDP=2.06D-03 MaxDP=2.22D-02 DE=-2.24D-02 OVMax= 1.57D-02

 Cycle   5  Pass 1  IDiag  1:
 E= -195.972335253958     Delta-E=       -0.010441657924 Rises=F Damp=T
 DIIS: error= 1.05D-02 at cycle   5 NSaved=   5.
 NSaved= 5 IEnMin= 5 EnMin= -195.972335253958     IErMin= 5 ErrMin= 1.05D-02
 ErrMax= 1.05D-02  0.00D+00 EMaxC= 1.00D+00 BMatC= 3.85D-03 BMatP= 1.14D-02
 IDIUse=1 WtCom= 1.00D+00 WtEn= 0.00D+00
 Coeff-Com: -0.814D+00 0.121D+01 0.290D+00-0.401D+01 0.433D+01
 Coeff:     -0.814D+00 0.121D+01 0.290D+00-0.401D+01 0.433D+01
 Gap=     0.181 Goal=   None    Shift=    0.500
 T= 1186. Gap= 0.681 NK=4 IS=   19 IE=   24 IFin=   18
          NO(<0.9)=   0  NV(>0.1)=   0     18.00e < EF      0.00e >EF  Err=0.0D+00
 Gap=     0.227 Goal=   None    Shift=    0.500
 T= 1186. Gap= 0.728 NK=4 IS=   18 IE=   21 IFin=   17
          NO(<0.9)=   0  NV(>0.1)=   0     17.00e < EF      0.00e >EF  Err=0.0D+00
 GapD=    0.181 DampG=1.000 DampE=0.500 DampFc=0.5000 IDamp=-1.
 Damping current iteration by 5.00D-01
 RMSDP=1.45D-03 MaxDP=1.90D-02 DE=-1.04D-02 OVMax= 1.93D-02

 Cycle   6  Pass 1  IDiag  1:
 E= -195.977843120016     Delta-E=       -0.005507866058 Rises=F Damp=T
 DIIS: error= 7.29D-03 at cycle   6 NSaved=   6.
 NSaved= 6 IEnMin= 6 EnMin= -195.977843120016     IErMin= 6 ErrMin= 7.29D-03
 ErrMax= 7.29D-03  0.00D+00 EMaxC= 1.00D+00 BMatC= 1.56D-03 BMatP= 3.85D-03
 IDIUse=1 WtCom= 1.00D+00 WtEn= 0.00D+00
 Coeff-Com:  0.283D+00-0.500D+00 0.432D+00 0.120D+01-0.524D+01 0.483D+01
 Coeff:      0.283D+00-0.500D+00 0.432D+00 0.120D+01-0.524D+01 0.483D+01
 Gap=     0.184 Goal=   None    Shift=    0.500
 T=  904. Gap= 0.684 NK=4 IS=   19 IE=   24 IFin=   18
          NO(<0.9)=   0  NV(>0.1)=   0     18.00e < EF      0.00e >EF  Err=0.0D+00
 Gap=     0.227 Goal=   None    Shift=    0.500
 T=  904. Gap= 0.727 NK=4 IS=   18 IE=   21 IFin=   17
          NO(<0.9)=   0  NV(>0.1)=   0     17.00e < EF      0.00e >EF  Err=0.0D+00
 GapD=    0.184 DampG=1.000 DampE=1.000 DampFc=1.0000 IDamp=-1.
 RMSDP=1.10D-03 MaxDP=1.58D-02 DE=-5.51D-03 OVMax= 1.75D-02

 Cycle   7  Pass 1  IDiag  1:
 E= -195.984632623547     Delta-E=       -0.006789503531 Rises=F Damp=F
 DIIS: error= 3.23D-03 at cycle   7 NSaved=   7.
 NSaved= 7 IEnMin= 7 EnMin= -195.984632623547     IErMin= 7 ErrMin= 3.23D-03
 ErrMax= 3.23D-03  0.00D+00 EMaxC= 1.00D+00 BMatC= 2.49D-04 BMatP= 1.56D-03
 IDIUse=1 WtCom= 1.00D+00 WtEn= 0.00D+00
 Coeff-Com:  0.155D+00-0.200D+00-0.302D+00 0.104D+01 0.125D+01-0.385D+01
 Coeff-Com:  0.291D+01
 Coeff:      0.155D+00-0.200D+00-0.302D+00 0.104D+01 0.125D+01-0.385D+01
 Coeff:      0.291D+01
 Gap=     0.187 Goal=   None    Shift=    0.500
 T=  622. Gap= 0.687 NK=4 IS=   19 IE=   24 IFin=   18
          NO(<0.9)=   0  NV(>0.1)=   0     18.00e < EF      0.00e >EF  Err=0.0D+00
 Gap=     0.227 Goal=   None    Shift=    0.500
 T=  622. Gap= 0.727 NK=4 IS=   18 IE=   21 IFin=   17
          NO(<0.9)=   0  NV(>0.1)=   0     17.00e < EF      0.00e >EF  Err=0.0D+00
 GapD=    0.187 DampG=1.000 DampE=1.000 DampFc=1.0000 IDamp=-1.
 RMSDP=3.80D-04 MaxDP=5.82D-03 DE=-6.79D-03 OVMax= 1.57D-02

 Cycle   8  Pass 1  IDiag  1:
 E= -195.985142320558     Delta-E=       -0.000509697011 Rises=F Damp=F
 DIIS: error= 2.30D-03 at cycle   8 NSaved=   8.
 NSaved= 8 IEnMin= 8 EnMin= -195.985142320558     IErMin= 8 ErrMin= 2.30D-03
 ErrMax= 2.30D-03  0.00D+00 EMaxC= 1.00D+00 BMatC= 1.45D-04 BMatP= 2.49D-04
 IDIUse=1 WtCom= 1.00D+00 WtEn= 0.00D+00
 Coeff-Com: -0.414D-01 0.873D-01-0.153D+00-0.253D+00 0.230D+01-0.301D+01
 Coeff-Com:  0.629D+00 0.143D+01
 Coeff:     -0.414D-01 0.873D-01-0.153D+00-0.253D+00 0.230D+01-0.301D+01
 Coeff:      0.629D+00 0.143D+01
 Gap=     0.188 Goal=   None    Shift=    0.500
 T=  327. Gap= 0.688 NK=4 IS=   19 IE=   24 IFin=   18
          NO(<0.9)=   0  NV(>0.1)=   0     18.00e < EF      0.00e >EF  Err=0.0D+00
 Gap=     0.226 Goal=   None    Shift=    0.500
 T=  327. Gap= 0.727 NK=4 IS=   18 IE=   21 IFin=   17
          NO(<0.9)=   0  NV(>0.1)=   0     17.00e < EF      0.00e >EF  Err=0.0D+00
 GapD=    0.188 DampG=1.000 DampE=1.000 DampFc=1.0000 IDamp=-1.
 RMSDP=2.54D-04 MaxDP=3.34D-03 DE=-5.10D-04 OVMax= 1.06D-02

 Cycle   9  Pass 1  IDiag  1:
 E= -195.985417145720     Delta-E=       -0.000274825163 Rises=F Damp=F
 DIIS: error= 1.83D-03 at cycle   9 NSaved=   9.
 NSaved= 9 IEnMin= 9 EnMin= -195.985417145720     IErMin= 9 ErrMin= 1.83D-03
 ErrMax= 1.83D-03  0.00D+00 EMaxC= 1.00D+00 BMatC= 9.78D-05 BMatP= 1.45D-04
 IDIUse=1 WtCom= 1.00D+00 WtEn= 0.00D+00
 Coeff-Com: -0.976D-01 0.111D+00 0.381D+00-0.118D+01-0.718D+00 0.308D+01
 Coeff-Com: -0.250D+01-0.170D+01 0.362D+01
 Coeff:     -0.976D-01 0.111D+00 0.381D+00-0.118D+01-0.718D+00 0.308D+01
 Coeff:     -0.250D+01-0.170D+01 0.362D+01
 Gap=     0.192 Goal=   None    Shift=    0.500
 Gap=     0.225 Goal=   None    Shift=    0.500
 GapD=    0.192 DampG=1.000 DampE=1.000 DampFc=1.0000 IDamp=-1.
 RMSDP=2.80D-04 MaxDP=4.20D-03 DE=-2.75D-04 OVMax= 1.22D-02

 Cycle  10  Pass 1  IDiag  1:
 E= -195.985686088034     Delta-E=       -0.000268942313 Rises=F Damp=F
 DIIS: error= 1.74D-03 at cycle  10 NSaved=  10.
 NSaved=10 IEnMin=10 EnMin= -195.985686088034     IErMin=10 ErrMin= 1.74D-03
 ErrMax= 1.74D-03  0.00D+00 EMaxC= 1.00D+00 BMatC= 7.31D-05 BMatP= 9.78D-05
 IDIUse=1 WtCom= 1.00D+00 WtEn= 0.00D+00
 Coeff-Com: -0.300D-01 0.361D-01 0.131D+00-0.408D+00-0.347D+00 0.123D+01
 Coeff-Com: -0.791D+00-0.912D+00 0.503D+00 0.158D+01
 Coeff:     -0.300D-01 0.361D-01 0.131D+00-0.408D+00-0.347D+00 0.123D+01
 Coeff:     -0.791D+00-0.912D+00 0.503D+00 0.158D+01
 Gap=     0.193 Goal=   None    Shift=    0.500
 Gap=     0.224 Goal=   None    Shift=    0.500
 GapD=    0.193 DampG=1.000 DampE=1.000 DampFc=1.0000 IDamp=-1.
 RMSDP=2.00D-04 MaxDP=3.53D-03 DE=-2.69D-04 OVMax= 9.87D-03

 Cycle  11  Pass 1  IDiag  1:
 E= -195.985867515844     Delta-E=       -0.000181427810 Rises=F Damp=F
 DIIS: error= 1.67D-03 at cycle  11 NSaved=  11.
 NSaved=11 IEnMin=11 EnMin= -195.985867515844     IErMin=11 ErrMin= 1.67D-03
 ErrMax= 1.67D-03  0.00D+00 EMaxC= 1.00D+00 BMatC= 6.37D-05 BMatP= 7.31D-05
 IDIUse=1 WtCom= 1.00D+00 WtEn= 0.00D+00
 Coeff-Com: -0.913D-02 0.762D-02 0.685D-02 0.393D-02 0.351D-01-0.860D-01
 Coeff-Com: -0.450D-02 0.729D-03 0.129D+01-0.422D+01 0.398D+01
 Coeff:     -0.913D-02 0.762D-02 0.685D-02 0.393D-02 0.351D-01-0.860D-01
 Coeff:     -0.450D-02 0.729D-03 0.129D+01-0.422D+01 0.398D+01
 Gap=     0.196 Goal=   None    Shift=    0.500
 Gap=     0.223 Goal=   None    Shift=    0.500
 GapD=    0.196 DampG=1.000 DampE=1.000 DampFc=1.0000 IDamp=-1.
 RMSDP=1.94D-04 MaxDP=3.72D-03 DE=-1.81D-04 OVMax= 1.04D-02

 Cycle  12  Pass 1  IDiag  1:
 E= -195.986042487105     Delta-E=       -0.000174971262 Rises=F Damp=F
 DIIS: error= 1.64D-03 at cycle  12 NSaved=  12.
 NSaved=12 IEnMin=12 EnMin= -195.986042487105     IErMin=12 ErrMin= 1.64D-03
 ErrMax= 1.64D-03  0.00D+00 EMaxC= 1.00D+00 BMatC= 6.06D-05 BMatP= 6.37D-05
 IDIUse=1 WtCom= 1.00D+00 WtEn= 0.00D+00
 Coeff-Com: -0.573D-02 0.248D-02-0.283D-01 0.163D+00-0.832D-01-0.180D+00
 Coeff-Com:  0.189D+00 0.136D-01 0.155D+01-0.658D+01 0.790D+01-0.195D+01
 Coeff:     -0.573D-02 0.248D-02-0.283D-01 0.163D+00-0.832D-01-0.180D+00
 Coeff:      0.189D+00 0.136D-01 0.155D+01-0.658D+01 0.790D+01-0.195D+01
 Gap=     0.194 Goal=   None    Shift=    0.500
 Gap=     0.224 Goal=   None    Shift=    0.500
 GapD=    0.194 DampG=1.000 DampE=1.000 DampFc=1.0000 IDamp=-1.
 RMSDP=7.35D-05 MaxDP=1.68D-03 DE=-1.75D-04 OVMax= 3.78D-03

 Cycle  13  Pass 1  IDiag  1:
 E= -195.986102022262     Delta-E=       -0.000059535156 Rises=F Damp=F
 DIIS: error= 1.58D-03 at cycle  13 NSaved=  13.
 NSaved=13 IEnMin=13 EnMin= -195.986102022262     IErMin=13 ErrMin= 1.58D-03
 ErrMax= 1.58D-03  0.00D+00 EMaxC= 1.00D+00 BMatC= 5.90D-05 BMatP= 6.06D-05
 IDIUse=1 WtCom= 1.00D+00 WtEn= 0.00D+00
 Coeff-Com: -0.293D-02-0.319D-03-0.336D-01 0.173D+00-0.639D-01-0.223D+00
 Coeff-Com:  0.231D+00 0.232D-01 0.125D+01-0.574D+01 0.708D+01-0.188D+01
 Coeff-Com:  0.177D+00
 Coeff:     -0.293D-02-0.319D-03-0.336D-01 0.173D+00-0.639D-01-0.223D+00
 Coeff:      0.231D+00 0.232D-01 0.125D+01-0.574D+01 0.708D+01-0.188D+01
 Coeff:      0.177D+00
 Gap=     0.194 Goal=   None    Shift=    0.500
 Gap=     0.224 Goal=   None    Shift=    0.500
 GapD=    0.194 DampG=1.000 DampE=1.000 DampFc=1.0000 IDamp=-1.
 RMSDP=4.65D-05 MaxDP=1.04D-03 DE=-5.95D-05 OVMax= 2.53D-03

 Cycle  14  Pass 1  IDiag  1:
 E= -195.986140150130     Delta-E=       -0.000038127869 Rises=F Damp=F
 DIIS: error= 1.56D-03 at cycle  14 NSaved=  14.
 NSaved=14 IEnMin=14 EnMin= -195.986140150130     IErMin=14 ErrMin= 1.56D-03
 ErrMax= 1.56D-03  0.00D+00 EMaxC= 1.00D+00 BMatC= 5.91D-05 BMatP= 5.90D-05
 IDIUse=1 WtCom= 1.00D+00 WtEn= 0.00D+00
 Large coefficients: NSaved= 14 BigCof=   10.68 CofMax=   10.00 Det=-3.73D-09
 Inversion failed.  Reducing to 13 matrices.
 Large coefficients: NSaved= 13 BigCof=   10.31 CofMax=   10.00 Det=-3.86D-09
 Inversion failed.  Reducing to 12 matrices.
 Coeff-Com: -0.904D-01 0.367D+00-0.243D+00-0.239D+00 0.358D+00 0.187D-01
 Coeff-Com:  0.140D+01-0.698D+01 0.924D+01 0.221D+00-0.959D+01 0.655D+01
 Coeff:     -0.904D-01 0.367D+00-0.243D+00-0.239D+00 0.358D+00 0.187D-01
 Coeff:      0.140D+01-0.698D+01 0.924D+01 0.221D+00-0.959D+01 0.655D+01
 Gap=     0.194 Goal=   None    Shift=    0.500
 Gap=     0.224 Goal=   None    Shift=    0.500
 GapD=    0.194 DampG=1.000 DampE=1.000 DampFc=1.0000 IDamp=-1.
 RMSDP=2.28D-05 MaxDP=4.95D-04 DE=-3.81D-05 OVMax= 1.15D-03

 Cycle  15  Pass 1  IDiag  1:
 E= -195.986156067772     Delta-E=       -0.000015917642 Rises=F Damp=F
 DIIS: error= 1.56D-03 at cycle  15 NSaved=  13.
 NSaved=13 IEnMin=13 EnMin= -195.986156067772     IErMin=13 ErrMin= 1.56D-03
 ErrMax= 1.56D-03  0.00D+00 EMaxC= 1.00D+00 BMatC= 5.96D-05 BMatP= 5.90D-05
 IDIUse=1 WtCom= 1.00D+00 WtEn= 0.00D+00
 Large coefficients: NSaved= 13 BigCof=   14.80 CofMax=   10.00 Det=-9.26D-10
 Inversion failed.  Reducing to 12 matrices.
 Coeff-Com:  0.457D-01-0.281D+00 0.387D+00-0.209D+00-0.255D+00 0.117D+01
 Coeff-Com: -0.337D+01 0.449D+01 0.984D+00-0.712D+01 0.543D+01-0.273D+00
 Coeff:      0.457D-01-0.281D+00 0.387D+00-0.209D+00-0.255D+00 0.117D+01
 Coeff:     -0.337D+01 0.449D+01 0.984D+00-0.712D+01 0.543D+01-0.273D+00
 Gap=     0.195 Goal=   None    Shift=    0.500
 Gap=     0.224 Goal=   None    Shift=    0.500
 GapD=    0.195 DampG=1.000 DampE=1.000 DampFc=1.0000 IDamp=-1.
 RMSDP=3.38D-05 MaxDP=6.59D-04 DE=-1.59D-05 OVMax= 1.89D-03

 Cycle  16  Pass 1  IDiag  1:
 E= -195.986185781389     Delta-E=       -0.000029713617 Rises=F Damp=F
 DIIS: error= 1.56D-03 at cycle  16 NSaved=  13.
 NSaved=13 IEnMin=13 EnMin= -195.986185781389     IErMin=12 ErrMin= 1.56D-03
 ErrMax= 1.56D-03  0.00D+00 EMaxC= 1.00D+00 BMatC= 5.97D-05 BMatP= 5.90D-05
 IDIUse=1 WtCom= 1.00D+00 WtEn= 0.00D+00
 Coeff-Com:  0.399D-01-0.251D+00 0.351D+00-0.191D+00-0.263D+00 0.115D+01
 Coeff-Com: -0.327D+01 0.425D+01 0.164D+01-0.822D+01 0.550D+01 0.184D+01
 Coeff-Com: -0.157D+01
 Coeff:      0.399D-01-0.251D+00 0.351D+00-0.191D+00-0.263D+00 0.115D+01
 Coeff:     -0.327D+01 0.425D+01 0.164D+01-0.822D+01 0.550D+01 0.184D+01
 Coeff:     -0.157D+01
 Gap=     0.195 Goal=   None    Shift=    0.500
 Gap=     0.224 Goal=   None    Shift=    0.500
 GapD=    0.195 DampG=1.000 DampE=1.000 DampFc=1.0000 IDamp=-1.
 RMSDP=1.25D-05 MaxDP=3.01D-04 DE=-2.97D-05 OVMax= 7.02D-04

 Cycle  17  Pass 1  IDiag  1:
 E= -195.986195615855     Delta-E=       -0.000009834466 Rises=F Damp=F
 DIIS: error= 1.56D-03 at cycle  17 NSaved=  14.
 NSaved=14 IEnMin=14 EnMin= -195.986195615855     IErMin=12 ErrMin= 1.56D-03
 ErrMax= 1.56D-03  0.00D+00 EMaxC= 1.00D+00 BMatC= 6.01D-05 BMatP= 5.90D-05
 IDIUse=1 WtCom= 1.00D+00 WtEn= 0.00D+00
 Large coefficients: NSaved= 14 BigCof=   54.57 CofMax=   10.00 Det=-3.13D-10
 Inversion failed.  Reducing to 13 matrices.
 Large coefficients: NSaved= 13 BigCof=   49.89 CofMax=   10.00 Det=-3.44D-10
 Inversion failed.  Reducing to 12 matrices.
 Large coefficients: NSaved= 12 BigCof=   47.28 CofMax=   10.00 Det=-3.52D-10
 Inversion failed.  Reducing to 11 matrices.
 Large coefficients: NSaved= 11 BigCof=   44.65 CofMax=   10.00 Det=-3.85D-10
 Inversion failed.  Reducing to 10 matrices.
 Large coefficients: NSaved= 10 BigCof=   44.74 CofMax=   10.00 Det=-3.86D-10
 Inversion failed.  Reducing to  9 matrices.
 Large coefficients: NSaved=  9 BigCof=   45.94 CofMax=   10.00 Det=-3.88D-10
 Inversion failed.  Reducing to  8 matrices.
 Large coefficients: NSaved=  8 BigCof=   46.02 CofMax=   10.00 Det=-3.92D-10
 Inversion failed.  Reducing to  7 matrices.
 Large coefficients: NSaved=  7 BigCof=   46.50 CofMax=   10.00 Det=-3.93D-10
 Inversion failed.  Reducing to  6 matrices.
 Large coefficients: NSaved=  6 BigCof=   19.29 CofMax=   10.00 Det=-1.72D-09
 Inversion failed.  Reducing to  5 matrices.
 Large coefficients: NSaved=  5 BigCof=   19.55 CofMax=   10.00 Det=-2.07D-09
 Inversion failed.  Reducing to  4 matrices.
 Large coefficients: NSaved=  4 BigCof=   12.11 CofMax=   10.00 Det=-3.40D-09
 Inversion failed.  Reducing to  3 matrices.
 Coeff-Com: -0.108D+01 0.768D+01-0.560D+01
 Coeff:     -0.108D+01 0.768D+01-0.560D+01
 Gap=     0.196 Goal=   None    Shift=    0.500
 Gap=     0.223 Goal=   None    Shift=    0.500
 GapD=    0.196 DampG=1.000 DampE=1.000 DampFc=1.0000 IDamp=-1.
 RMSDP=6.51D-05 MaxDP=1.14D-03 DE=-9.83D-06 OVMax= 3.55D-03

 Cycle  18  Pass 1  IDiag  1:
 E= -195.986252767246     Delta-E=       -0.000057151391 Rises=F Damp=F
 DIIS: error= 1.58D-03 at cycle  18 NSaved=   4.
 NSaved= 4 IEnMin= 4 EnMin= -195.986252767246     IErMin= 1 ErrMin= 1.56D-03
 ErrMax= 1.58D-03  0.00D+00 EMaxC= 1.00D+00 BMatC= 5.95D-05 BMatP= 5.96D-05
 IDIUse=1 WtCom= 1.00D+00 WtEn= 0.00D+00
 Coeff-Com: -0.886D+00 0.726D+01-0.551D+01 0.135D+00
 Coeff:     -0.886D+00 0.726D+01-0.551D+01 0.135D+00
 Gap=     0.196 Goal=   None    Shift=    0.500
 Gap=     0.223 Goal=   None    Shift=    0.500
 GapD=    0.196 DampG=1.000 DampE=1.000 DampFc=1.0000 IDamp=-1.
 RMSDP=3.94D-05 MaxDP=8.45D-04 DE=-5.72D-05 OVMax= 2.26D-03

 Cycle  19  Pass 1  IDiag  1:
 E= -195.986288392724     Delta-E=       -0.000035625478 Rises=F Damp=F
 DIIS: error= 1.59D-03 at cycle  19 NSaved=   5.
 NSaved= 5 IEnMin= 5 EnMin= -195.986288392724     IErMin= 1 ErrMin= 1.56D-03
 ErrMax= 1.59D-03  0.00D+00 EMaxC= 1.00D+00 BMatC= 5.98D-05 BMatP= 5.95D-05
 IDIUse=1 WtCom= 1.00D+00 WtEn= 0.00D+00
 Large coefficients: NSaved=  5 BigCof=   20.66 CofMax=   10.00 Det=-6.71D-10
 Inversion failed.  Reducing to  4 matrices.
 Coeff-Com:  0.882D+00-0.134D+01 0.897D+01-0.752D+01
 Coeff:      0.882D+00-0.134D+01 0.897D+01-0.752D+01
 Gap=     0.194 Goal=   None    Shift=    0.500
 Gap=     0.224 Goal=   None    Shift=    0.500
 GapD=    0.194 DampG=1.000 DampE=1.000 DampFc=1.0000 IDamp=-1.
 RMSDP=5.60D-05 MaxDP=9.08D-04 DE=-3.56D-05 OVMax= 2.88D-03

 Cycle  20  Pass 1  IDiag  1:
 E= -195.986242416792     Delta-E=        0.000045975932 Rises=F Damp=F
 DIIS: error= 1.59D-03 at cycle  20 NSaved=   5.
 NSaved= 5 IEnMin= 4 EnMin= -195.986288392724     IErMin= 1 ErrMin= 1.56D-03
 ErrMax= 1.59D-03  0.00D+00 EMaxC= 1.00D+00 BMatC= 6.19D-05 BMatP= 5.95D-05
 IDIUse=1 WtCom= 1.00D+00 WtEn= 0.00D+00
 Large coefficients: NSaved=  5 BigCof=   15.21 CofMax=   10.00 Det=-1.80D-09
 Inversion failed.  Reducing to  4 matrices.
 Large coefficients: NSaved=  4 BigCof=   16.60 CofMax=   10.00 Det=-1.81D-09
 Inversion failed.  Reducing to  3 matrices.
 Coeff-Com:  0.917D+01-0.801D+01-0.154D+00
 Coeff:      0.917D+01-0.801D+01-0.154D+00
 Gap=     0.194 Goal=   None    Shift=    0.000
 Gap=     0.224 Goal=   None    Shift=    0.000
 GapD=    0.194 DampG=1.000 DampE=1.000 DampFc=1.0000 IDamp=-1.
 RMSDP=1.11D-04 MaxDP=2.30D-03 DE= 4.60D-05 OVMax= 6.62D-03

 Cycle  21  Pass 1  IDiag  1:
 E= -195.986142181649     Delta-E=        0.000100235143 Rises=F Damp=F
 DIIS: error= 1.60D-03 at cycle  21 NSaved=   4.
 NSaved= 4 IEnMin= 2 EnMin= -195.986288392724     IErMin= 1 ErrMin= 1.58D-03
 ErrMax= 1.60D-03  0.00D+00 EMaxC= 1.00D+00 BMatC= 6.13D-05 BMatP= 5.95D-05
 IDIUse=1 WtCom= 1.00D+00 WtEn= 0.00D+00
 Large coefficients: NSaved=  4 BigCof=   15.21 CofMax=   10.00 Det=-3.45D-09
 Inversion failed.  Reducing to  3 matrices.
 Coeff-Com:  0.215D+01-0.272D+01 0.158D+01
 Coeff:      0.215D+01-0.272D+01 0.158D+01
 Gap=     0.197 Goal=   None    Shift=    0.000
 Gap=     0.223 Goal=   None    Shift=    0.000
 GapD=    0.197 DampG=1.000 DampE=1.000 DampFc=1.0000 IDamp=-1.
 RMSDP=2.39D-04 MaxDP=4.67D-03 DE= 1.00D-04 OVMax= 1.41D-02

 Cycle  22  Pass 1  IDiag  1:
 E= -195.986357125996     Delta-E=       -0.000214944347 Rises=F Damp=F
 DIIS: error= 1.55D-03 at cycle  22 NSaved=   4.
 NSaved= 4 IEnMin= 4 EnMin= -195.986357125996     IErMin= 4 ErrMin= 1.55D-03
 ErrMax= 1.55D-03  0.00D+00 EMaxC= 1.00D+00 BMatC= 6.11D-05 BMatP= 5.98D-05
 IDIUse=1 WtCom= 1.00D+00 WtEn= 0.00D+00
 Coeff-Com:  0.468D+00-0.624D+01 0.502D+01 0.176D+01
 Coeff:      0.468D+00-0.624D+01 0.502D+01 0.176D+01
 Gap=     0.194 Goal=   None    Shift=    0.500
 Gap=     0.225 Goal=   None    Shift=    0.500
 GapD=    0.194 DampG=1.000 DampE=1.000 DampFc=1.0000 IDamp=-1.
 RMSDP=1.04D-04 MaxDP=1.72D-03 DE=-2.15D-04 OVMax= 5.69D-03

 Cycle  23  Pass 1  IDiag  1:
 E= -195.986266156860     Delta-E=        0.000090969136 Rises=F Damp=F
 DIIS: error= 1.53D-03 at cycle  23 NSaved=   5.
 NSaved= 5 IEnMin= 4 EnMin= -195.986357125996     IErMin= 5 ErrMin= 1.53D-03
 ErrMax= 1.53D-03  0.00D+00 EMaxC= 1.00D+00 BMatC= 6.37D-05 BMatP= 5.98D-05
 IDIUse=1 WtCom= 1.00D+00 WtEn= 0.00D+00
 Coeff-Com:  0.185D+01-0.741D+01 0.493D+01 0.434D+00 0.120D+01
 Coeff:      0.185D+01-0.741D+01 0.493D+01 0.434D+00 0.120D+01
 Gap=     0.193 Goal=   None    Shift=    0.000
 Gap=     0.225 Goal=   None    Shift=    0.000
 GapD=    0.193 DampG=1.000 DampE=1.000 DampFc=1.0000 IDamp=-1.
 RMSDP=2.08D-04 MaxDP=4.51D-03 DE= 9.10D-05 OVMax= 1.22D-02

 Cycle  24  Pass 1  IDiag  1:
 E= -195.986081888054     Delta-E=        0.000184268806 Rises=F Damp=F
 DIIS: error= 1.53D-03 at cycle  24 NSaved=   6.
 NSaved= 6 IEnMin= 4 EnMin= -195.986357125996     IErMin= 5 ErrMin= 1.53D-03
 ErrMax= 1.53D-03  0.00D+00 EMaxC= 1.00D+00 BMatC= 5.98D-05 BMatP= 5.98D-05
 IDIUse=1 WtCom= 1.00D+00 WtEn= 0.00D+00
 Large coefficients: NSaved=  6 BigCof=   13.55 CofMax=   10.00 Det=-4.36D-09
 Inversion failed.  Reducing to  5 matrices.
 Coeff-Com: -0.332D+01 0.308D+01 0.198D+01-0.512D+01 0.438D+01
 Coeff:     -0.332D+01 0.308D+01 0.198D+01-0.512D+01 0.438D+01
 Gap=     0.188 Goal=   None    Shift=    0.000
 Gap=     0.227 Goal=   None    Shift=    0.000
 GapD=    0.188 DampG=1.000 DampE=1.000 DampFc=1.0000 IDamp=-1.
 RMSDP=4.81D-04 MaxDP=9.50D-03 DE= 1.84D-04 OVMax= 2.84D-02

 Cycle  25  Pass 1  IDiag  1:
 E= -195.985660351005     Delta-E=        0.000421537049 Rises=F Damp=F
 DIIS: error= 1.57D-03 at cycle  25 NSaved=   6.
 NSaved= 6 IEnMin= 3 EnMin= -195.986357125996     IErMin= 4 ErrMin= 1.53D-03
 ErrMax= 1.57D-03  0.00D+00 EMaxC= 1.00D+00 BMatC= 5.54D-05 BMatP= 5.98D-05
 IDIUse=1 WtCom= 1.00D+00 WtEn= 0.00D+00
 Coeff-Com:  0.155D+01-0.104D+01 0.832D+00-0.463D+00-0.327D+01 0.339D+01
 Coeff:      0.155D+01-0.104D+01 0.832D+00-0.463D+00-0.327D+01 0.339D+01
 Gap=     0.182 Goal=   None    Shift=    0.000
 Gap=     0.233 Goal=   None    Shift=    0.000
 GapD=    0.182 DampG=1.000 DampE=1.000 DampFc=1.0000 IDamp=-1.
 RMSDP=6.53D-04 MaxDP=1.29D-02 DE= 4.22D-04 OVMax= 3.79D-02

 Cycle  26  Pass 1  IDiag  1:
 E= -195.985126267962     Delta-E=        0.000534083043 Rises=F Damp=F
 DIIS: error= 1.35D-03 at cycle  26 NSaved=   7.
 NSaved= 7 IEnMin= 3 EnMin= -195.986357125996     IErMin= 7 ErrMin= 1.35D-03
 ErrMax= 1.35D-03  0.00D+00 EMaxC= 1.00D+00 BMatC= 4.72D-05 BMatP= 5.54D-05
 IDIUse=1 WtCom= 1.00D+00 WtEn= 0.00D+00
 Large coefficients: NSaved=  7 BigCof=   15.28 CofMax=   10.00 Det=-3.13D-08
 Inversion failed.  Reducing to  6 matrices.
 Coeff-Com: -0.818D+00 0.478D+00 0.121D+01-0.247D+01 0.109D+01 0.151D+01
 Coeff:     -0.818D+00 0.478D+00 0.121D+01-0.247D+01 0.109D+01 0.151D+01
 Gap=     0.171 Goal=   None    Shift=    0.000
 Gap=     0.242 Goal=   None    Shift=    0.000
 GapD=    0.171 DampG=1.000 DampE=1.000 DampFc=1.0000 IDamp=-1.
 RMSDP=1.20D-03 MaxDP=2.50D-02 DE= 5.34D-04 OVMax= 7.30D-02

 Cycle  27  Pass 1  IDiag  1:
 E= -195.984261327496     Delta-E=        0.000864940465 Rises=F Damp=F
 DIIS: error= 2.14D-03 at cycle  27 NSaved=   7.
 NSaved= 7 IEnMin= 3 EnMin= -195.986357125996     IErMin= 6 ErrMin= 1.35D-03
 ErrMax= 2.14D-03  0.00D+00 EMaxC= 1.00D+00 BMatC= 7.34D-05 BMatP= 4.72D-05
 IDIUse=1 WtCom= 1.00D+00 WtEn= 0.00D+00
 Large coefficients: NSaved=  7 BigCof=   16.90 CofMax=   10.00 Det=-1.45D-08
 Inversion failed.  Reducing to  6 matrices.
 Coeff-Com:  0.239D+01-0.292D+01-0.884D+00 0.469D+00 0.163D+01 0.324D+00
 Coeff:      0.239D+01-0.292D+01-0.884D+00 0.469D+00 0.163D+01 0.324D+00
 Gap=     0.171 Goal=   None    Shift=    0.000
 Gap=     0.247 Goal=   None    Shift=    0.000
 GapD=    0.171 DampG=1.000 DampE=1.000 DampFc=1.0000 IDamp=-1.
 RMSDP=2.81D-04 MaxDP=5.42D-03 DE= 8.65D-04 OVMax= 1.70D-02

 Cycle  28  Pass 1  IDiag  1:
 E= -195.984100214811     Delta-E=        0.000161112685 Rises=F Damp=F
 DIIS: error= 1.95D-03 at cycle  28 NSaved=   7.
 NSaved= 7 IEnMin= 3 EnMin= -195.986357125996     IErMin= 5 ErrMin= 1.35D-03
 ErrMax= 1.95D-03  0.00D+00 EMaxC= 1.00D+00 BMatC= 5.84D-05 BMatP= 4.72D-05
 IDIUse=1 WtCom= 1.00D+00 WtEn= 0.00D+00
 Coeff-Com: -0.122D+01 0.167D+01 0.258D+01-0.261D+01-0.720D+00-0.540D+01
 Coeff-Com:  0.669D+01
 Coeff:     -0.122D+01 0.167D+01 0.258D+01-0.261D+01-0.720D+00-0.540D+01
 Coeff:      0.669D+01
 Gap=     0.166 Goal=   None    Shift=    0.000
 Gap=     0.255 Goal=   None    Shift=    0.000
 GapD=    0.166 DampG=1.000 DampE=1.000 DampFc=1.0000 IDamp=-1.
 RMSDP=1.08D-03 MaxDP=1.95D-02 DE= 1.61D-04 OVMax= 6.88D-02

 Cycle  29  Pass 1  IDiag  1:
 E= -195.983507446274     Delta-E=        0.000592768537 Rises=F Damp=F
 DIIS: error= 1.47D-03 at cycle  29 NSaved=   8.
 NSaved= 8 IEnMin= 3 EnMin= -195.986357125996     IErMin= 5 ErrMin= 1.35D-03
 ErrMax= 1.47D-03  0.00D+00 EMaxC= 1.00D+00 BMatC= 4.04D-05 BMatP= 4.72D-05
 IDIUse=1 WtCom= 1.00D+00 WtEn= 0.00D+00
 Large coefficients: NSaved=  8 BigCof=   20.29 CofMax=   10.00 Det=-2.38D-08
 Inversion failed.  Reducing to  7 matrices.
 Large coefficients: NSaved=  7 BigCof=   18.58 CofMax=   10.00 Det=-2.42D-08
 Inversion failed.  Reducing to  6 matrices.
 Large coefficients: NSaved=  6 BigCof=   16.64 CofMax=   10.00 Det=-2.61D-08
 Inversion failed.  Reducing to  5 matrices.
 Coeff-Com:  0.261D+01-0.419D+01 0.738D+00 0.543D+00 0.130D+01
 Coeff:      0.261D+01-0.419D+01 0.738D+00 0.543D+00 0.130D+01
 Gap=     0.156 Goal=   None    Shift=    0.000
 Gap=     0.242 Goal=   None    Shift=    0.000
 GapD=    0.156 DampG=1.000 DampE=1.000 DampFc=1.0000 IDamp=-1.
 RMSDP=2.57D-03 MaxDP=5.80D-02 DE= 5.93D-04 OVMax= 1.22D-01

 Cycle  30  Pass 1  IDiag  1:
 E= -195.980151815002     Delta-E=        0.003355631272 Rises=F Damp=F
 DIIS: error= 7.83D-03 at cycle  30 NSaved=   6.
 NSaved= 6 IEnMin= 2 EnMin= -195.986357125996     IErMin= 5 ErrMin= 1.47D-03
 ErrMax= 7.83D-03  0.00D+00 EMaxC= 1.00D+00 BMatC= 1.17D-03 BMatP= 4.04D-05
 IDIUse=1 WtCom= 1.00D+00 WtEn= 0.00D+00
 Coeff-Com:  0.188D+01-0.339D+01 0.142D+01 0.125D+01 0.102D+00-0.260D+00
 Coeff:      0.188D+01-0.339D+01 0.142D+01 0.125D+01 0.102D+00-0.260D+00
 Gap=     0.156 Goal=   None    Shift=    0.000
 Gap=     0.227 Goal=   None    Shift=    0.000
 RMSDP=3.95D-03 MaxDP=8.33D-02 DE= 3.36D-03 OVMax= 2.29D-01

 Cycle  31  Pass 1  IDiag  1:
 E= -195.984268803581     Delta-E=       -0.004116988579 Rises=F Damp=F
 DIIS: error= 2.72D-03 at cycle  31 NSaved=   7.
 NSaved= 7 IEnMin= 2 EnMin= -195.986357125996     IErMin= 5 ErrMin= 1.47D-03
 ErrMax= 2.72D-03  0.00D+00 EMaxC= 1.00D+00 BMatC= 1.35D-04 BMatP= 4.04D-05
 IDIUse=1 WtCom= 1.00D+00 WtEn= 0.00D+00
 Coeff-Com:  0.926D+00-0.237D+01 0.143D+01 0.615D+00 0.128D+00-0.332D+00
 Coeff-Com:  0.599D+00
 Coeff:      0.926D+00-0.237D+01 0.143D+01 0.615D+00 0.128D+00-0.332D+00
 Coeff:      0.599D+00
 Gap=     0.178 Goal=   None    Shift=    0.000
 Gap=     0.233 Goal=   None    Shift=    0.000
 RMSDP=7.64D-04 MaxDP=1.47D-02 DE=-4.12D-03 OVMax= 4.54D-02

 Cycle  32  Pass 1  IDiag  1:
 E= -195.984760813351     Delta-E=       -0.000492009770 Rises=F Damp=F
 DIIS: error= 3.10D-03 at cycle  32 NSaved=   8.
 NSaved= 8 IEnMin= 2 EnMin= -195.986357125996     IErMin= 5 ErrMin= 1.47D-03
 ErrMax= 3.10D-03  0.00D+00 EMaxC= 1.00D+00 BMatC= 1.72D-04 BMatP= 4.04D-05
 IDIUse=1 WtCom= 1.00D+00 WtEn= 0.00D+00
 Coeff-Com:  0.140D+01-0.159D+01 0.720D+00 0.194D+01-0.101D+01-0.325D+00
 Coeff-Com:  0.211D+01-0.225D+01
 Coeff:      0.140D+01-0.159D+01 0.720D+00 0.194D+01-0.101D+01-0.325D+00
 Coeff:      0.211D+01-0.225D+01
 Gap=     0.185 Goal=   None    Shift=    0.000
 Gap=     0.227 Goal=   None    Shift=    0.000
 GapD=    0.185 DampG=1.000 DampE=1.000 DampFc=1.0000 IDamp=-1.
 RMSDP=8.20D-04 MaxDP=1.66D-02 DE=-4.92D-04 OVMax= 4.92D-02

 >>>>>>>>>> Convergence criterion not met.
 SCF Done:  E(ULC-wHPBE) =  -195.984760813     A.U. after   33 cycles
            NFock= 32  Conv=0.82D-03     -V/T= 2.0209
 <Sx>= 0.0000 <Sy>= 0.0000 <Sz>= 0.5000 <S**2>= 0.8758 S= 0.5610
 <L.S>= 0.000000000000E+00
 KE= 1.919806468342D+02 PE=-7.305153103360D+02 EE= 1.975280028954D+02
 Annihilation of the first spin contaminant:
 S**2 before annihilation     0.8758,   after     0.7587
 Leave Link  502 at Thu Mar  5 12:44:09 2020, MaxMem=  6710886400 cpu:              54.6 elap:               3.5
 (Enter /opt/ohpc/pub/libs/gaussian/g16-A.03/sandybridge/g16/l508.exe)
 Keep R1 and R2 ints in memory in symmetry-blocked form, NReq=16816059.
 FoFCou: FMM=F IPFlag=           0 FMFlag=           0 FMFlg1=           0
         NFxFlg=           0 DoJE=F BraDBF=F KetDBF=F FulRan=T
         wScrn=  0.000000 ICntrl=       600 IOpCl=  0 I1Cent=           0 NGrid=           0
         NMat0=    1 NMatS0=   1653 NMatT0=    0 NMatD0=    1 NMtDS0=    0 NMtDT0=    0
 Petite list used in FoFCou.
 Tight linear equation convergence will be used.
 ULC-wHPBE wavefunction.
 Quadratic Convergence SCF Method.
 Line search only if initial step raises energy.
 Iteration   1 EE= -195.985354471300                                    Grad=1.125D-02 Max rot=    0.4888 deg.
 Gradient too large for Newton-Raphson -- use scaled steepest descent instead.
     ILin= 1 X=0.000D+00 Y=-1.959853544713D+02 DE= 0.00D+00 F= -2.60D-04
     ILin= 2 X=3.000D-01 Y=-1.959854253490D+02 DE=-7.09D-05 F= -2.13D-04
     ILin= 3 X=6.000D-01 Y=-1.959854820551D+02 DE=-1.28D-04 F= -1.65D-04
     ILin= 4 X=1.200D+00 Y=-1.959855531476D+02 DE=-1.99D-04 F= -7.16D-05
     ILin= 5 X=2.400D+00 Y=-1.959855274665D+02 DE=-1.73D-04 F=  1.14D-04
     An  expanding polynomial of degree  5 produced  1.6610
 Iteration   2 EE= -195.985569643143     Delta-E=       -0.000215171842 Grad=8.737D-03 Max rot=    0.2235 deg.
 QCNR:  CnvC1=8.74D-08 CnvC2=8.74D-07
 LinEq1:  Iter=  0 NonCon=     1 RMS=4.72D-04 Max=1.26D-02 NDo=     1
 AX will form     1 AO Fock derivatives at one time.
 LinEq1:  Iter=  1 NonCon=     1 RMS=4.21D-04 Max=9.60D-03 NDo=     1
 LinEq1:  Iter=  2 NonCon=     1 RMS=1.60D-04 Max=2.01D-03 NDo=     1
 LinEq1:  Iter=  3 NonCon=     1 RMS=1.14D-04 Max=2.30D-03 NDo=     1
 LinEq1:  Iter=  4 NonCon=     1 RMS=2.98D-05 Max=5.78D-04 NDo=     1
 LinEq1:  Iter=  5 NonCon=     1 RMS=1.22D-05 Max=2.09D-04 NDo=     1
 LinEq1:  Iter=  6 NonCon=     1 RMS=5.85D-06 Max=7.20D-05 NDo=     1
 LinEq1:  Iter=  7 NonCon=     1 RMS=1.90D-06 Max=2.31D-05 NDo=     1
 LinEq1:  Iter=  8 NonCon=     1 RMS=4.17D-07 Max=4.39D-06 NDo=     1
 LinEq1:  Iter=  9 NonCon=     0 RMS=6.56D-08 Max=8.60D-07 NDo=     1
 Linear equations converged to 8.737D-08 8.737D-07 after     9 iterations.
 Angle between quadratic step and gradient= 125.01 degrees.
 Incorrect curvature in search direction -- initial direction reversed.
     ILin= 1 X=0.000D+00 Y=-1.959855696431D+02 DE= 0.00D+00 F= -6.22D-03
     ILin= 2 X=1.000D+00 Y=-1.959766868178D+02 DE= 8.88D-03 F=  5.20D-02
     Reject lnstep minimum 4.546D-01 FVal=-1.959876327860D+02 Lims=  0.00D+00  1.00D+00
     ILin= 3 X=5.000D-01 Y=-1.959879075795D+02 DE=-2.34D-03 F=  1.68D-03
     A contracting polynomial of degree  3 produced  0.3362
 Iteration   3 EE= -195.987629356051     Delta-E=       -0.002059712908 Grad=9.189D-03 Max rot=    0.1557 deg.
 QCNR:  CnvC1=9.19D-08 CnvC2=9.19D-07
 LinEq1:  Iter=  0 NonCon=     1 RMS=3.71D-04 Max=7.97D-03 NDo=     1
 LinEq1:  Iter=  1 NonCon=     1 RMS=3.52D-04 Max=7.69D-03 NDo=     1
 LinEq1:  Iter=  2 NonCon=     1 RMS=1.80D-04 Max=2.93D-03 NDo=     1
 LinEq1:  Iter=  3 NonCon=     1 RMS=1.19D-04 Max=2.57D-03 NDo=     1
 LinEq1:  Iter=  4 NonCon=     1 RMS=2.84D-05 Max=4.73D-04 NDo=     1
 LinEq1:  Iter=  5 NonCon=     1 RMS=1.14D-05 Max=2.12D-04 NDo=     1
 LinEq1:  Iter=  6 NonCon=     1 RMS=6.12D-06 Max=7.62D-05 NDo=     1
 LinEq1:  Iter=  7 NonCon=     1 RMS=2.31D-06 Max=3.20D-05 NDo=     1
 LinEq1:  Iter=  8 NonCon=     1 RMS=4.30D-07 Max=4.51D-06 NDo=     1
 LinEq1:  Iter=  9 NonCon=     1 RMS=7.33D-08 Max=1.09D-06 NDo=     1
 LinEq1:  Iter= 10 NonCon=     0 RMS=1.13D-08 Max=1.52D-07 NDo=     1
 Linear equations converged to 9.189D-08 9.189D-07 after    10 iterations.
 Angle between quadratic step and gradient=  63.73 degrees.
     ILin= 1 X=0.000D+00 Y=-1.959876293561D+02 DE= 0.00D+00 F= -9.82D-04
     ILin= 2 X=1.000D+00 Y=-1.959879342344D+02 DE=-3.05D-04 F=  5.73D-04
     Accept linear search using points  1 and  2.
     An  expanding polynomial of degree  2 produced  0.7130
 Iteration   4 EE= -195.988014004203     Delta-E=       -0.000384648153 Grad=2.316D-03 Max rot=    0.0328 deg.
 QCNR:  CnvC1=2.32D-08 CnvC2=2.32D-07
 LinEq1:  Iter=  0 NonCon=     1 RMS=6.61D-05 Max=6.46D-04 NDo=     1
 LinEq1:  Iter=  1 NonCon=     1 RMS=5.92D-05 Max=1.12D-03 NDo=     1
 LinEq1:  Iter=  2 NonCon=     1 RMS=2.37D-05 Max=3.53D-04 NDo=     1
 LinEq1:  Iter=  3 NonCon=     1 RMS=1.76D-05 Max=4.82D-04 NDo=     1
 LinEq1:  Iter=  4 NonCon=     1 RMS=6.12D-06 Max=1.34D-04 NDo=     1
 LinEq1:  Iter=  5 NonCon=     1 RMS=2.02D-06 Max=2.03D-05 NDo=     1
 LinEq1:  Iter=  6 NonCon=     1 RMS=1.08D-06 Max=1.39D-05 NDo=     1
 LinEq1:  Iter=  7 NonCon=     1 RMS=4.63D-07 Max=7.92D-06 NDo=     1
 LinEq1:  Iter=  8 NonCon=     1 RMS=1.11D-07 Max=1.48D-06 NDo=     1
 LinEq1:  Iter=  9 NonCon=     1 RMS=2.35D-08 Max=2.59D-07 NDo=     1
 LinEq1:  Iter= 10 NonCon=     0 RMS=4.49D-09 Max=5.73D-08 NDo=     1
 Linear equations converged to 2.316D-08 2.316D-07 after    10 iterations.
 Angle between quadratic step and gradient=  52.54 degrees.
     ILin= 1 X=0.000D+00 Y=-1.959880140042D+02 DE= 0.00D+00 F= -1.01D-05
     ILin= 2 X=1.000D+00 Y=-1.959880190635D+02 DE=-5.06D-06
 Iteration   5 EE= -195.988019063471     Delta-E=       -0.000005059268 Grad=1.982D-06 Max rot=    0.0001 deg.
 Rotation gradient small -- convergence achieved.
 Orbital symmetries in SymMO:
    1=1    2=4    3=4    4=1    5=1    6=1    7=4    8=1    9=4   10=1
   11=1   12=4   13=4   14=1   15=3   16=1   17=2   18=3   19=4   20=1
   21=2   22=3   23=1   24=4   25=1   26=4   27=1   28=1   29=4   30=1
   31=4   32=3   33=4   34=3   35=2   36=1   37=1   38=4   39=1   40=2
   41=1   42=4   43=3   44=1   45=4   46=1   47=4   48=1   49=1   50=1
   51=4   52=1   53=4   54=4   55=1   56=1   57=4
 Orbital symmetries in SymMO:
    1=4    2=1    3=4    4=1    5=1    6=1    7=4    8=1    9=4   10=1
   11=1   12=4   13=4   14=1   15=1   16=3   17=2   18=1   19=3   20=4
   21=2   22=3   23=1   24=4   25=1   26=4   27=1   28=1   29=4   30=1
   31=4   32=3   33=4   34=1   35=2   36=3   37=1   38=4   39=1   40=2
   41=1   42=4   43=3   44=1   45=4   46=1   47=4   48=1   49=1   50=1
   51=4   52=1   53=4   54=4   55=1   56=1   57=4
 SCF Done:  E(ULC-wHPBE) =  -195.988019063     a.u. after    5 cycles
            Convg  =    0.1982D-05                    41 Fock formations.
              S**2 =  1.1096                  -V/T =  2.0205
 <Sx>= 0.0000 <Sy>= 0.0000 <Sz>= 0.5000 <S**2>= 1.1096 S= 0.6660
 <L.S>= 0.000000000000E+00
 Annihilation of the first spin contaminant:
 S**2 before annihilation     1.1096,   after     0.8389
 Leave Link  508 at Thu Mar  5 12:44:21 2020, MaxMem=  6710886400 cpu:             188.9 elap:              11.9
 (Enter /opt/ohpc/pub/libs/gaussian/g16-A.03/sandybridge/g16/l601.exe)
 Copying SCF densities to generalized density rwf, IOpCl= 1 IROHF=0.

 **********************************************************************

            Population analysis using the SCF density.

 **********************************************************************

 Orbital symmetries:
 Alpha Orbitals:
       Occupied  (A1) (B2) (B2) (A1) (A1) (A1) (B2) (A1) (B2) (A1)
                 (A1) (B2) (B2) (A1) (B1) (A1) (A2) (B1)
       Virtual   (B2) (A1) (A2) (B1) (A1) (B2) (A1) (B2) (A1) (A1)
                 (B2) (A1) (B2) (B1) (B2) (B1) (A2) (A1) (A1) (B2)
                 (A1) (A2) (A1) (B2) (B1) (A1) (B2) (A1) (B2) (A1)
                 (A1) (A1) (B2) (A1) (B2) (B2) (A1) (A1) (B2)
 Beta  Orbitals:
       Occupied  (B2) (A1) (B2) (A1) (A1) (A1) (B2) (A1) (B2) (A1)
                 (A1) (B2) (B2) (A1) (A1) (B1) (A2)
       Virtual   (A1) (B1) (B2) (A2) (B1) (A1) (B2) (A1) (B2) (A1)
                 (A1) (B2) (A1) (B2) (B1) (B2) (A1) (A2) (B1) (A1)
                 (B2) (A1) (A2) (A1) (B2) (B1) (A1) (B2) (A1) (B2)
                 (A1) (A1) (A1) (B2) (A1) (B2) (B2) (A1) (A1) (B2)
 The electronic state is 2-B1.
 Alpha  occ. eigenvalues --  -10.43135 -10.43135 -10.35347 -10.35347 -10.34593
 Alpha  occ. eigenvalues --   -1.20881  -1.11993  -1.05532  -0.94560  -0.87360
 Alpha  occ. eigenvalues --   -0.86881  -0.79816  -0.75015  -0.72896  -0.71827
 Alpha  occ. eigenvalues --   -0.68458  -0.62840  -0.55974
 Alpha virt. eigenvalues --   -0.37196  -0.31696  -0.23104  -0.12174  -0.07796
 Alpha virt. eigenvalues --   -0.03868  -0.00402   0.01112   0.02438   0.10068
 Alpha virt. eigenvalues --    0.11510   0.19575   0.20971   0.29508   0.32255
 Alpha virt. eigenvalues --    0.39679   0.39749   0.39810   0.42057   0.43316
 Alpha virt. eigenvalues --    0.45215   0.47260   0.47904   0.49914   0.49997
 Alpha virt. eigenvalues --    0.62389   0.64842   0.67445   0.70369   0.70385
 Alpha virt. eigenvalues --    0.75738   0.77646   0.79297   0.85366   0.92428
 Alpha virt. eigenvalues --    0.96976   1.01823   1.24471   1.24960
  Beta  occ. eigenvalues --  -10.41970 -10.41968 -10.35801 -10.35800 -10.33716
  Beta  occ. eigenvalues --   -1.19820  -1.11198  -1.02425  -0.93406  -0.86788
  Beta  occ. eigenvalues --   -0.85933  -0.79228  -0.74685  -0.72224  -0.69713
  Beta  occ. eigenvalues --   -0.68496  -0.59940
  Beta virt. eigenvalues --   -0.38200  -0.31543  -0.31312  -0.19967  -0.09603
  Beta virt. eigenvalues --   -0.07482  -0.03481   0.00196   0.01186   0.02906
  Beta virt. eigenvalues --    0.10738   0.12066   0.20242   0.21185   0.32820
  Beta virt. eigenvalues --    0.32940   0.40294   0.41419   0.42007   0.42726
  Beta virt. eigenvalues --    0.43879   0.45472   0.47905   0.50278   0.50912
  Beta virt. eigenvalues --    0.51353   0.56771   0.65341   0.65999   0.70480
  Beta virt. eigenvalues --    0.71401   0.76293   0.77618   0.79762   0.86679
  Beta virt. eigenvalues --    0.92577   0.97738   1.02367   1.25274   1.26498
          Condensed to atoms (all electrons):
               1          2          3          4          5          6
     1  C    5.204562   0.498693  -0.060858  -0.041385   0.139326   0.087637
     2  C    0.498693   4.980916   0.483999  -0.057215  -0.041385  -0.002672
     3  C   -0.060858   0.483999   4.877859   0.483999  -0.060858   0.000430
     4  C   -0.041385  -0.057215   0.483999   4.980916   0.498693  -0.002672
     5  C    0.139326  -0.041385  -0.060858   0.498693   5.204562   0.087637
     6  H    0.087637  -0.002672   0.000430  -0.002672   0.087637   0.571597
     7  H    0.346529  -0.027739   0.002281   0.000636  -0.002336  -0.005067
     8  H   -0.022591   0.352720  -0.010341   0.002921   0.000400   0.000082
     9  H    0.003736  -0.027095   0.367755  -0.027095   0.003736  -0.000000
    10  H    0.000400   0.002921  -0.010341   0.352720  -0.022591   0.000082
    11  H   -0.002336   0.000636   0.002281  -0.027739   0.346529  -0.005067
               7          8          9         10         11
     1  C    0.346529  -0.022591   0.003736   0.000400  -0.002336
     2  C   -0.027739   0.352720  -0.027095   0.002921   0.000636
     3  C    0.002281  -0.010341   0.367755  -0.010341   0.002281
     4  C    0.000636   0.002921  -0.027095   0.352720  -0.027739
     5  C   -0.002336   0.000400   0.003736  -0.022591   0.346529
     6  H   -0.005067   0.000082  -0.000000   0.000082  -0.005067
     7  H    0.393457   0.000702  -0.000078  -0.000006   0.000022
     8  H    0.000702   0.375854  -0.002168  -0.000051  -0.000006
     9  H   -0.000078  -0.002168   0.428443  -0.002168  -0.000078
    10  H   -0.000006  -0.000051  -0.002168   0.375854   0.000702
    11  H    0.000022  -0.000006  -0.000078   0.000702   0.393457
          Atomic-Atomic Spin Densities.
               1          2          3          4          5          6
     1  C    0.880978  -0.045114  -0.016894  -0.017010   0.071835  -0.019512
     2  C   -0.045114  -0.383709   0.012697   0.010168  -0.017010  -0.000693
     3  C   -0.016894   0.012697   0.694387   0.012697  -0.016894  -0.000007
     4  C   -0.017010   0.010168   0.012697  -0.383709  -0.045114  -0.000693
     5  C    0.071835  -0.017010  -0.016894  -0.045114   0.880978  -0.019512
     6  H   -0.019512  -0.000693  -0.000007  -0.000693  -0.019512  -0.429116
     7  H   -0.010224   0.003145  -0.000108   0.000070  -0.000308   0.003394
     8  H   -0.002682   0.005837  -0.001292  -0.000227   0.000245  -0.000019
     9  H    0.000095  -0.000042  -0.001973  -0.000042   0.000095   0.000000
    10  H    0.000245  -0.000227  -0.001292   0.005837  -0.002682  -0.000019
    11  H   -0.000308   0.000070  -0.000108   0.003145  -0.010224   0.003394
               7          8          9         10         11
     1  C   -0.010224  -0.002682   0.000095   0.000245  -0.000308
     2  C    0.003145   0.005837  -0.000042  -0.000227   0.000070
     3  C   -0.000108  -0.001292  -0.001973  -0.001292  -0.000108
     4  C    0.000070  -0.000227  -0.000042   0.005837   0.003145
     5  C   -0.000308   0.000245   0.000095  -0.002682  -0.010224
     6  H    0.003394  -0.000019   0.000000  -0.000019   0.003394
     7  H   -0.039158   0.000039   0.000006  -0.000000  -0.000009
     8  H    0.000039   0.021459   0.000001   0.000008  -0.000000
     9  H    0.000006   0.000001  -0.030063   0.000001   0.000006
    10  H   -0.000000   0.000008   0.000001   0.021459   0.000039
    11  H   -0.000009  -0.000000   0.000006   0.000039  -0.039158
 Mulliken charges and spin densities:
               1          2
     1  C   -0.153712   0.841407
     2  C   -0.163780  -0.414878
     3  C   -0.076204   0.681212
     4  C   -0.163780  -0.414878
     5  C   -0.153712   0.841407
     6  H    0.268015  -0.462782
     7  H    0.291601  -0.043154
     8  H    0.302478   0.023368
     9  H    0.255013  -0.031917
    10  H    0.302478   0.023368
    11  H    0.291601  -0.043154
 Sum of Mulliken charges =   1.00000   1.00000
 Mulliken charges and spin densities with hydrogens summed into heavy atoms:
               1          2
     1  C    0.405905   0.335471
     2  C    0.138699  -0.391510
     3  C    0.178809   0.649296
     4  C    0.138699  -0.391510
     5  C    0.137889   0.798253
 Electronic spatial extent (au):  <R**2>=            374.0852
 Charge=              1.0000 electrons
 Dipole moment (field-independent basis, Debye):
    X=             -0.0000    Y=              0.0000    Z=             -2.6840  Tot=              2.6840
 Quadrupole moment (field-independent basis, Debye-Ang):
   XX=            -32.0792   YY=            -12.5439   ZZ=            -10.5481
   XY=              0.0000   XZ=              0.0000   YZ=             -0.0000
 Traceless Quadrupole moment (field-independent basis, Debye-Ang):
   XX=            -13.6888   YY=              5.8465   ZZ=              7.8423
   XY=              0.0000   XZ=              0.0000   YZ=             -0.0000
 Octapole moment (field-independent basis, Debye-Ang**2):
  XXX=              0.0000  YYY=              0.0000  ZZZ=            -20.4500  XYY=             -0.0000
  XXY=             -0.0000  XXZ=              1.5204  XZZ=              0.0000  YZZ=              0.0000
  YYZ=             -3.5611  XYZ=             -0.0000
 Hexadecapole moment (field-independent basis, Debye-Ang**3):
 XXXX=            -32.3170 YYYY=           -173.9201 ZZZZ=            -99.4128 XXXY=             -0.0000
 XXXZ=             -0.0000 YYYX=             -0.0000 YYYZ=             -0.0000 ZZZX=             -0.0000
 ZZZY=              0.0000 XXYY=            -54.3085 XXZZ=            -43.5922 YYZZ=            -48.8794
 XXYZ=             -0.0000 YYXZ=              0.0000 ZZXY=             -0.0000
 N-N= 1.450218997931D+02 E-N=-7.306115347598D+02  KE= 1.920590282596D+02
 Symmetry A1   KE= 1.109037482493D+02
 Symmetry A2   KE= 2.449058233888D+00
 Symmetry B1   KE= 3.361643319507D+00
 Symmetry B2   KE= 7.534457845693D+01
 Symmetry A1   SP=-1.554610390073D-16
 Symmetry A2   SP=-6.591407107626D-16
 Symmetry B1   SP= 1.000000000000D+00
 Symmetry B2   SP= 1.600336616697D-15
                          Isotropic Fermi Contact Couplings
        Atom                 a.u.       MegaHertz       Gauss      10(-4) cm-1
     1  C(13)              0.17206     193.42374      69.01840      64.51921
     2  C(13)             -0.06658     -74.84466     -26.70643     -24.96549
     3  C(13)              0.11373     127.85707      45.62258      42.64853
     4  C(13)             -0.06658     -74.84466     -26.70643     -24.96549
     5  C(13)              0.17206     193.42374      69.01840      64.51921
     6  H(1)              -0.16188    -723.57398    -258.18919    -241.35830
     7  H(1)              -0.01699     -75.92583     -27.09222     -25.32613
     8  H(1)               0.01017      45.46944      16.22463      15.16697
     9  H(1)              -0.01220     -54.51397     -19.45194     -18.18390
    10  H(1)               0.01017      45.46944      16.22463      15.16697
    11  H(1)              -0.01699     -75.92583     -27.09222     -25.32613
 --------------------------------------------------------
       Center         ----  Spin Dipole Couplings  ----
                      3XX-RR        3YY-RR        3ZZ-RR
 --------------------------------------------------------
     1   Atom        0.542707     -0.211818     -0.330889
     2   Atom       -0.333873      0.127393      0.206480
     3   Atom        0.635367     -0.346023     -0.289344
     4   Atom       -0.333873      0.127393      0.206480
     5   Atom        0.542707     -0.211818     -0.330889
     6   Atom       -0.019187     -0.006951      0.026138
     7   Atom       -0.016273      0.040529     -0.024255
     8   Atom       -0.008512     -0.001487      0.009999
     9   Atom       -0.006635     -0.042092      0.048727
    10   Atom       -0.008512     -0.001487      0.009999
    11   Atom       -0.016273      0.040529     -0.024255
 --------------------------------------------------------
                        XY            XZ            YZ
 --------------------------------------------------------
     1   Atom        0.000000      0.000000      0.135338
     2   Atom       -0.000000      0.000000      0.003448
     3   Atom       -0.000000      0.000000      0.000000
     4   Atom       -0.000000     -0.000000     -0.003448
     5   Atom        0.000000      0.000000     -0.135338
     6   Atom        0.000000     -0.000000      0.000000
     7   Atom        0.000000      0.000000     -0.048892
     8   Atom        0.000000      0.000000     -0.011648
     9   Atom       -0.000000     -0.000000     -0.000000
    10   Atom        0.000000     -0.000000      0.011648
    11   Atom        0.000000      0.000000      0.048892
 --------------------------------------------------------


 ---------------------------------------------------------------------------------
              Anisotropic Spin Dipole Couplings in Principal Axis System
 ---------------------------------------------------------------------------------

       Atom             a.u.   MegaHertz   Gauss  10(-4) cm-1        Axes

              Baa    -0.4192   -56.254   -20.073   -18.764 -0.0000 -0.5465  0.8375
     1 C(13)  Bbb    -0.1235   -16.572    -5.913    -5.528  0.0000  0.8375  0.5465
              Bcc     0.5427    72.826    25.986    24.292  1.0000 -0.0000  0.0000
 
              Baa    -0.3339   -44.803   -15.987   -14.945  1.0000 -0.0000  0.0000
     2 C(13)  Bbb     0.1272    17.075     6.093     5.696  0.0000  0.9991 -0.0435
              Bcc     0.2066    27.728     9.894     9.249  0.0000  0.0435  0.9991
 
              Baa    -0.3460   -46.433   -16.568   -15.488  0.0000  1.0000 -0.0000
     3 C(13)  Bbb    -0.2893   -38.827   -13.855   -12.951 -0.0000  0.0000  1.0000
              Bcc     0.6354    85.260    30.423    28.440  1.0000 -0.0000  0.0000
 
              Baa    -0.3339   -44.803   -15.987   -14.945  1.0000  0.0000  0.0000
     4 C(13)  Bbb     0.1272    17.075     6.093     5.696 -0.0000  0.9991  0.0435
              Bcc     0.2066    27.728     9.894     9.249 -0.0000 -0.0435  0.9991
 
              Baa    -0.4192   -56.254   -20.073   -18.764 -0.0000  0.5465  0.8375
     5 C(13)  Bbb    -0.1235   -16.572    -5.913    -5.528 -0.0000  0.8375 -0.5465
              Bcc     0.5427    72.826    25.986    24.292  1.0000  0.0000  0.0000
 
              Baa    -0.0192   -10.238    -3.653    -3.415  1.0000 -0.0000  0.0000
     6 H(1)   Bbb    -0.0070    -3.709    -1.323    -1.237  0.0000  1.0000 -0.0000
              Bcc     0.0261    13.946     4.976     4.652 -0.0000  0.0000  1.0000
 
              Baa    -0.0505   -26.951    -9.617    -8.990 -0.0000  0.4731  0.8810
     7 H(1)   Bbb    -0.0163    -8.683    -3.098    -2.896  1.0000  0.0000  0.0000
              Bcc     0.0668    35.633    12.715    11.886 -0.0000  0.8810 -0.4731
 
              Baa    -0.0087    -4.658    -1.662    -1.554 -0.0000  0.8492  0.5281
     8 H(1)   Bbb    -0.0085    -4.542    -1.621    -1.515  1.0000  0.0000  0.0000
              Bcc     0.0172     9.200     3.283     3.069  0.0000 -0.5281  0.8492
 
              Baa    -0.0421   -22.458    -8.014    -7.491  0.0000  1.0000 -0.0000
     9 H(1)   Bbb    -0.0066    -3.540    -1.263    -1.181  1.0000 -0.0000 -0.0000
              Bcc     0.0487    25.999     9.277     8.672  0.0000  0.0000  1.0000
 
              Baa    -0.0087    -4.658    -1.662    -1.554 -0.0000  0.8492 -0.5281
    10 H(1)   Bbb    -0.0085    -4.542    -1.621    -1.515  1.0000  0.0000 -0.0000
              Bcc     0.0172     9.200     3.283     3.069  0.0000  0.5281  0.8492
 
              Baa    -0.0505   -26.951    -9.617    -8.990 -0.0000 -0.4731  0.8810
    11 H(1)   Bbb    -0.0163    -8.683    -3.098    -2.896  1.0000 -0.0000  0.0000
              Bcc     0.0668    35.633    12.715    11.886  0.0000  0.8810  0.4731
 

 ---------------------------------------------------------------------------------

 No NMR shielding tensors so no spin-rotation constants.
 Leave Link  601 at Thu Mar  5 12:44:21 2020, MaxMem=  6710886400 cpu:               2.9 elap:               0.2
 (Enter /opt/ohpc/pub/libs/gaussian/g16-A.03/sandybridge/g16/l9999.exe)

 Test job not archived.
 1\1\GINC-CNODE212\SP\ULC-wHPBE\6-31G\C5H6(1+,2)\SMGO234\05-Mar-2020\0\
 \#P uLC-wHPBE/6-31G iop(3/130=0303000000, 3/131=0303000000, 3/119=0697
 000000, 3/120=0697000000) scf=(conver=6,fermi,ndamp=35,noincfock,novar
 acc,vshift=500,xqc)\\H6 C5\\1,2\C,0,-1.206512,0.69658,0.\C,0,-1.206512
 ,-0.69658,0.\C,0,0.,-1.39316,0.\C,0,1.206512,-0.69658,0.\C,0,1.206512,
 0.69658,0.\H,0,0.,2.482681,0.\H,0,-2.150065,1.24134,0.\H,0,-2.150065,-
 1.24134,0.\H,0,0.,-2.482681,0.\H,0,2.150065,-1.24134,0.\H,0,2.150065,1
 .24134,0.\\Version=EM64L-G16RevA.03\State=2-B1\HF=-195.9880191\S2=1.10
 9579\S2-1=0.\S2A=0.838934\RMSD=5.331e-08\Dipole=0.,1.0559558,0.\Quadru
 pole=4.3467272,5.8305669,-10.1772941,0.,0.,0.\PG=C02V [C2(H1C1H1),SGV(
 C4H4)]\\@


 THE CAUTIOUS SELDOM ERR...CONFUCIUS                   
 Job cpu time:       0 days  0 hours  4 minutes 35.0 seconds.
 Elapsed time:       0 days  0 hours  0 minutes 17.7 seconds.
 File lengths (MBytes):  RWF=    272 Int=      0 D2E=      0 Chk=     32 Scr=     32
 Normal termination of Gaussian 16 at Thu Mar  5 12:44:21 2020.
