 Entering Gaussian System, Link 0=g16
 Input=a1b_tune_n10.gjf
 Output=a1b_tune_n10.log
 Initial command:
 /opt/ohpc/pub/libs/gaussian/g16-A.03/sandybridge/g16/l1.exe "/scratch/smgo234/Ocelot/test/a1b/tuning_a1b_acycle0/Gau-74055.inp" -scrdir="/scratch/smgo234/Ocelot/test/a1b/tuning_a1b_acycle0/"
 Entering Link 1 = /opt/ohpc/pub/libs/gaussian/g16-A.03/sandybridge/g16/l1.exe PID=     74056.
  
 Copyright (c) 1988,1990,1992,1993,1995,1998,2003,2009,2016,
            Gaussian, Inc.  All Rights Reserved.
  
 This is part of the Gaussian(R) 16 program.  It is based on
 the Gaussian(R) 09 system (copyright 2009, Gaussian, Inc.),
 the Gaussian(R) 03 system (copyright 2003, Gaussian, Inc.),
 the Gaussian(R) 98 system (copyright 1998, Gaussian, Inc.),
 the Gaussian(R) 94 system (copyright 1995, Gaussian, Inc.),
 the Gaussian 92(TM) system (copyright 1992, Gaussian, Inc.),
 the Gaussian 90(TM) system (copyright 1990, Gaussian, Inc.),
 the Gaussian 88(TM) system (copyright 1988, Gaussian, Inc.),
 the Gaussian 86(TM) system (copyright 1986, Carnegie Mellon
 University), and the Gaussian 82(TM) system (copyright 1983,
 Carnegie Mellon University). Gaussian is a federally registered
 trademark of Gaussian, Inc.
  
 This software contains proprietary and confidential information,
 including trade secrets, belonging to Gaussian, Inc.
  
 This software is provided under written license and may be
 used, copied, transmitted, or stored only in accord with that
 written license.
  
 The following legend is applicable only to US Government
 contracts under FAR:
  
                    RESTRICTED RIGHTS LEGEND
  
 Use, reproduction and disclosure by the US Government is
 subject to restrictions as set forth in subparagraphs (a)
 and (c) of the Commercial Computer Software - Restricted
 Rights clause in FAR 52.227-19.
  
 Gaussian, Inc.
 340 Quinnipiac St., Bldg. 40, Wallingford CT 06492
  
  
 ---------------------------------------------------------------
 Warning -- This program may not be used in any manner that
 competes with the business of Gaussian, Inc. or will provide
 assistance to any competitor of Gaussian, Inc.  The licensee
 of this program is prohibited from giving any competitor of
 Gaussian, Inc. access to this program.  By using this program,
 the user acknowledges that Gaussian, Inc. is engaged in the
 business of creating and licensing software in the field of
 computational chemistry and represents and warrants to the
 licensee that it is not a competitor of Gaussian, Inc. and that
 it will not use this program in any manner prohibited above.
 ---------------------------------------------------------------
  

 Cite this work as:
 Gaussian 16, Revision A.03,
 M. J. Frisch, G. W. Trucks, H. B. Schlegel, G. E. Scuseria, 
 M. A. Robb, J. R. Cheeseman, G. Scalmani, V. Barone, 
 G. A. Petersson, H. Nakatsuji, X. Li, M. Caricato, A. V. Marenich, 
 J. Bloino, B. G. Janesko, R. Gomperts, B. Mennucci, H. P. Hratchian, 
 J. V. Ortiz, A. F. Izmaylov, J. L. Sonnenberg, D. Williams-Young, 
 F. Ding, F. Lipparini, F. Egidi, J. Goings, B. Peng, A. Petrone, 
 T. Henderson, D. Ranasinghe, V. G. Zakrzewski, J. Gao, N. Rega, 
 G. Zheng, W. Liang, M. Hada, M. Ehara, K. Toyota, R. Fukuda, 
 J. Hasegawa, M. Ishida, T. Nakajima, Y. Honda, O. Kitao, H. Nakai, 
 T. Vreven, K. Throssell, J. A. Montgomery, Jr., J. E. Peralta, 
 F. Ogliaro, M. J. Bearpark, J. J. Heyd, E. N. Brothers, K. N. Kudin, 
 V. N. Staroverov, T. A. Keith, R. Kobayashi, J. Normand, 
 K. Raghavachari, A. P. Rendell, J. C. Burant, S. S. Iyengar, 
 J. Tomasi, M. Cossi, J. M. Millam, M. Klene, C. Adamo, R. Cammi, 
 J. W. Ochterski, R. L. Martin, K. Morokuma, O. Farkas, 
 J. B. Foresman, and D. J. Fox, Gaussian, Inc., Wallingford CT, 2016.
 
 ******************************************
 Gaussian 16:  EM64L-G16RevA.03 25-Dec-2016
                 5-Mar-2020 
 ******************************************
 %mem=50GB
 %nproc=16
 Will use up to   16 processors via shared memory.
 ----------------------------------------------------------------------
 #P uLC-wHPBE/6-31G iop(3/130=0275700000, 3/131=0275700000, 3/119=07243
 00000, 3/120=0724300000) scf=(conver=6,fermi,ndamp=35,noincfock,novara
 cc,vshift=500,xqc)
 ----------------------------------------------------------------------
 1/38=1,172=1/1;
 2/12=2,17=6,18=5,40=1/2;
 3/5=1,6=6,11=2,25=1,30=1,74=-71,116=2,119=724300000,120=724300000,130=275700000,131=275700000/1,2,3;
 4//1;
 5/5=100002,6=6,8=3,10=500,13=1,18=-1,22=13,38=1,93=35/2,8;
 6/7=2,8=2,9=2,10=2,28=1/1;
 99/5=1,9=1/99;
 Leave Link    1 at Thu Mar  5 12:48:59 2020, MaxMem=  6710886400 cpu:              22.6 elap:               1.5
 (Enter /opt/ohpc/pub/libs/gaussian/g16-A.03/sandybridge/g16/l101.exe)
 -----
 H6 C5
 -----
 Symbolic Z-matrix:
 Charge =  0 Multiplicity = 1
 C                    -1.20651   0.69658   0. 
 C                    -1.20651  -0.69658   0. 
 C                     0.       -1.39316   0. 
 C                     1.20651  -0.69658   0. 
 C                     1.20651   0.69658   0. 
 H                     0.        2.48268   0. 
 H                    -2.15007   1.24134   0. 
 H                    -2.15007  -1.24134   0. 
 H                     0.       -2.48268   0. 
 H                     2.15007  -1.24134   0. 
 H                     2.15007   1.24134   0. 
 
 ITRead=  0  0  0  0  0  0  0  0  0  0  0
 MicOpt= -1 -1 -1 -1 -1 -1 -1 -1 -1 -1 -1
 NAtoms=     11 NQM=       11 NQMF=       0 NMMI=      0 NMMIF=      0
                NMic=       0 NMicF=      0.
                    Isotopes and Nuclear Properties:
 (Nuclear quadrupole moments (NQMom) in fm**2, nuclear magnetic moments (NMagM)
  in nuclear magnetons)

  Atom         1           2           3           4           5           6           7           8           9          10
 IAtWgt=          12          12          12          12          12           1           1           1           1           1
 AtmWgt=  12.0000000  12.0000000  12.0000000  12.0000000  12.0000000   1.0078250   1.0078250   1.0078250   1.0078250   1.0078250
 NucSpn=           0           0           0           0           0           1           1           1           1           1
 AtZEff=  -0.0000000  -0.0000000  -0.0000000  -0.0000000  -0.0000000  -0.0000000  -0.0000000  -0.0000000  -0.0000000  -0.0000000
 NQMom=    0.0000000   0.0000000   0.0000000   0.0000000   0.0000000   0.0000000   0.0000000   0.0000000   0.0000000   0.0000000
 NMagM=    0.0000000   0.0000000   0.0000000   0.0000000   0.0000000   2.7928460   2.7928460   2.7928460   2.7928460   2.7928460
 AtZNuc=   6.0000000   6.0000000   6.0000000   6.0000000   6.0000000   1.0000000   1.0000000   1.0000000   1.0000000   1.0000000

  Atom        11
 IAtWgt=           1
 AtmWgt=   1.0078250
 NucSpn=           1
 AtZEff=  -0.0000000
 NQMom=    0.0000000
 NMagM=    2.7928460
 AtZNuc=   1.0000000
 Leave Link  101 at Thu Mar  5 12:48:59 2020, MaxMem=  6710886400 cpu:               2.5 elap:               0.2
 (Enter /opt/ohpc/pub/libs/gaussian/g16-A.03/sandybridge/g16/l202.exe)
                          Input orientation:                          
 ---------------------------------------------------------------------
 Center     Atomic      Atomic             Coordinates (Angstroms)
 Number     Number       Type             X           Y           Z
 ---------------------------------------------------------------------
      1          6           0       -1.206512    0.696580    0.000000
      2          6           0       -1.206512   -0.696580    0.000000
      3          6           0        0.000000   -1.393160    0.000000
      4          6           0        1.206512   -0.696580    0.000000
      5          6           0        1.206512    0.696580    0.000000
      6          1           0        0.000000    2.482681    0.000000
      7          1           0       -2.150065    1.241340    0.000000
      8          1           0       -2.150065   -1.241340    0.000000
      9          1           0        0.000000   -2.482681    0.000000
     10          1           0        2.150065   -1.241340    0.000000
     11          1           0        2.150065    1.241340    0.000000
 ---------------------------------------------------------------------
                    Distance matrix (angstroms):
                    1          2          3          4          5
     1  C    0.000000
     2  C    1.393160   0.000000
     3  C    2.413024   1.393160   0.000000
     4  C    2.786320   2.413024   1.393160   0.000000
     5  C    2.413024   2.786320   2.413024   1.393160   0.000000
     6  H    2.155418   3.400496   3.875841   3.400496   2.155418
     7  H    1.089521   2.155418   3.400496   3.875841   3.400496
     8  H    2.155418   1.089521   2.155418   3.400496   3.875841
     9  H    3.400496   2.155418   1.089521   2.155418   3.400496
    10  H    3.875841   3.400496   2.155418   1.089521   2.155418
    11  H    3.400496   3.875841   3.400496   2.155418   1.089521
                    6          7          8          9         10
     6  H    0.000000
     7  H    2.482681   0.000000
     8  H    4.300129   2.482680   0.000000
     9  H    4.965362   4.300129   2.482681   0.000000
    10  H    4.300129   4.965362   4.300130   2.482681   0.000000
    11  H    2.482681   4.300130   4.965362   4.300129   2.482680
                   11
    11  H    0.000000
 Stoichiometry    C5H6
 Framework group  C2V[C2(HCH),SGV(C4H4)]
 Deg. of freedom    10
 Full point group                 C2V     NOp   4
 Largest Abelian subgroup         C2V     NOp   4
 Largest concise Abelian subgroup C2      NOp   2
                         Standard orientation:                         
 ---------------------------------------------------------------------
 Center     Atomic      Atomic             Coordinates (Angstroms)
 Number     Number       Type             X           Y           Z
 ---------------------------------------------------------------------
      1          6           0       -0.000000    1.206512   -0.928773
      2          6           0       -0.000000    1.206512    0.464387
      3          6           0        0.000000    0.000000    1.160967
      4          6           0       -0.000000   -1.206512    0.464387
      5          6           0       -0.000000   -1.206512   -0.928773
      6          1           0       -0.000000   -0.000000   -2.714874
      7          1           0       -0.000000    2.150065   -1.473533
      8          1           0       -0.000000    2.150065    1.009147
      9          1           0        0.000000    0.000000    2.250488
     10          1           0       -0.000000   -2.150065    1.009147
     11          1           0       -0.000000   -2.150065   -1.473533
 ---------------------------------------------------------------------
 Rotational constants (GHZ):           8.2868568           5.7099792           3.3806054
 Leave Link  202 at Thu Mar  5 12:48:59 2020, MaxMem=  6710886400 cpu:               0.8 elap:               0.1
 (Enter /opt/ohpc/pub/libs/gaussian/g16-A.03/sandybridge/g16/l301.exe)
 Standard basis: 6-31G (6D, 7F)
 Ernie: Thresh=  0.10000D-02 Tol=  0.10000D-05 Strict=F.
 There are    27 symmetry adapted cartesian basis functions of A1  symmetry.
 There are     4 symmetry adapted cartesian basis functions of A2  symmetry.
 There are     6 symmetry adapted cartesian basis functions of B1  symmetry.
 There are    20 symmetry adapted cartesian basis functions of B2  symmetry.
 There are    27 symmetry adapted basis functions of A1  symmetry.
 There are     4 symmetry adapted basis functions of A2  symmetry.
 There are     6 symmetry adapted basis functions of B1  symmetry.
 There are    20 symmetry adapted basis functions of B2  symmetry.
    57 basis functions,   134 primitive gaussians,    57 cartesian basis functions
    18 alpha electrons       18 beta electrons
       nuclear repulsion energy       145.0218997931 Hartrees.
 IExCor=33909 DFT=T Ex+Corr=LC-wHPBE ExCW=0 ScaHFX=  1.000000
 ScaDFX=  1.000000  1.000000  1.000000  1.000000 ScalE2=  1.000000  1.000000
 IRadAn=      5 IRanWt=     -1 IRanGd=            0 ICorTp=0 IEmpDi=  4
 HFx  wShort=  0.000000 wLong=  0.400000 cFull=  0.000000 cShort=  0.000000 cLong=  0.724300
 DFx  wShort=  0.000000 wLong=  0.400000 cFull=  0.000000 cShort=  1.000000 cLong=  0.724300
 NAtoms=   11 NActive=   11 NUniq=    7 SFac= 2.47D+00 NAtFMM=   60 NAOKFM=F Big=F
 Integral buffers will be    131072 words long.
 Raffenetti 2 integral format.
 Two-electron integral symmetry is turned on.
 Leave Link  301 at Thu Mar  5 12:48:59 2020, MaxMem=  6710886400 cpu:               0.8 elap:               0.1
 (Enter /opt/ohpc/pub/libs/gaussian/g16-A.03/sandybridge/g16/l302.exe)
 NPDir=0 NMtPBC=     1 NCelOv=     1 NCel=       1 NClECP=     1 NCelD=      1
         NCelK=      1 NCelE2=     1 NClLst=     1 CellRange=     0.0.
 One-electron integrals computed using PRISM.
 One-electron integral symmetry used in STVInt
 NBasis=    57 RedAO= T EigKep=  2.88D-03  NBF=    27     4     6    20
 NBsUse=    57 1.00D-06 EigRej= -1.00D+00 NBFU=    27     4     6    20
 Precomputing XC quadrature grid using
 IXCGrd= 4 IRadAn=           5 IRanWt=          -1 IRanGd=           0 AccXCQ= 0.00D+00.
 Generated NRdTot=       0 NPtTot=           0 NUsed=           0 NTot=          32
 NSgBfM=    57    57    57    57    57 MxSgAt=    11 MxSgA2=    11.
 Leave Link  302 at Thu Mar  5 12:48:59 2020, MaxMem=  6710886400 cpu:               1.9 elap:               0.1
 (Enter /opt/ohpc/pub/libs/gaussian/g16-A.03/sandybridge/g16/l303.exe)
 DipDrv:  MaxL=1.
 Leave Link  303 at Thu Mar  5 12:49:00 2020, MaxMem=  6710886400 cpu:               0.5 elap:               0.0
 (Enter /opt/ohpc/pub/libs/gaussian/g16-A.03/sandybridge/g16/l401.exe)
 ExpMin= 1.61D-01 ExpMax= 3.05D+03 ExpMxC= 4.57D+02 IAcc=3 IRadAn=         5 AccDes= 0.00D+00
 Harris functional with IExCor=33909 and IRadAn=       5 diagonalized for initial guess.
 HarFok:  IExCor=33909 AccDes= 0.00D+00 IRadAn=         5 IDoV= 1 UseB2=F ITyADJ=14
 ICtDFT=  3500011 ScaDFX=  1.000000  1.000000  1.000000  1.000000
 FoFCou: FMM=F IPFlag=           0 FMFlag=      100000 FMFlg1=           0
         NFxFlg=           0 DoJE=T BraDBF=F KetDBF=T FulRan=T
         wScrn=  0.000000 ICntrl=       500 IOpCl=  0 I1Cent=   200000004 NGrid=           0
         NMat0=    1 NMatS0=      1 NMatT0=    0 NMatD0=    1 NMtDS0=    0 NMtDT0=    0
 Petite list used in FoFCou.
 Harris En= -191.702170985855    
 JPrj=0 DoOrth=F DoCkMO=F.
 Initial guess orbital symmetries:
 Alpha Orbitals:
       Occupied  (A1) (B2) (A1) (B2) (A1) (A1) (B2) (A1) (B2) (A1)
                 (A1) (B2) (B2) (A1) (B1) (A1) (A2) (B1)
       Virtual   (B2) (A1) (A2) (B1) (A1) (B2) (A1) (B2) (A1) (A1)
                 (B2) (A1) (B2) (B1) (B2) (A1) (B1) (A2) (A1) (B2)
                 (A1) (A2) (B1) (B2) (A1) (A1) (B2) (A1) (B2) (A1)
                 (A1) (B2) (A1) (A1) (B2) (B2) (A1) (A1) (B2)
 Beta  Orbitals:
       Occupied  (A1) (B2) (A1) (B2) (A1) (A1) (B2) (A1) (B2) (A1)
                 (A1) (B2) (B2) (A1) (B1) (A1) (A2) (B1)
       Virtual   (B2) (A1) (A2) (B1) (A1) (B2) (A1) (B2) (A1) (A1)
                 (B2) (A1) (B2) (B1) (B2) (A1) (B1) (A2) (A1) (B2)
                 (A1) (A2) (B1) (B2) (A1) (A1) (B2) (A1) (B2) (A1)
                 (A1) (B2) (A1) (A1) (B2) (B2) (A1) (A1) (B2)
 The electronic state of the initial guess is 1-A1.
 Initial guess <Sx>= 0.0000 <Sy>= 0.0000 <Sz>= 0.0000 <S**2>=-0.0000 S=-0.0000
 Leave Link  401 at Thu Mar  5 12:49:00 2020, MaxMem=  6710886400 cpu:               3.0 elap:               0.2
 (Enter /opt/ohpc/pub/libs/gaussian/g16-A.03/sandybridge/g16/l502.exe)
 Keep R1 and R2 ints in memory in symmetry-blocked form, NReq=16815659.
 FoFCou: FMM=F IPFlag=           0 FMFlag=           0 FMFlg1=           0
         NFxFlg=           0 DoJE=F BraDBF=F KetDBF=F FulRan=T
         wScrn=  0.000000 ICntrl=       600 IOpCl=  0 I1Cent=           0 NGrid=           0
         NMat0=    1 NMatS0=   1653 NMatT0=    0 NMatD0=    1 NMtDS0=    0 NMtDT0=    0
 Petite list used in FoFCou.
 UHF open shell SCF:
 Using DIIS extrapolation, IDIIS=    10.
 NGot=  6710886400 LenX=  6710059583 LenY=  6710055893
 Requested convergence on RMS density matrix=1.00D-06 within  32 cycles.
 Requested convergence on MAX density matrix=1.00D-04.
 Requested convergence on             energy=1.00D-04.
 Virtual orbitals will be shifted by   0.500 hartree.
 No special actions if energy rises.
 Dynamic level shift is on during FON iterations.

 Cycle   1  Pass 1  IDiag  1:
 E= -196.477363892328    
 DIIS: error= 4.72D-02 at cycle   1 NSaved=   1.
 NSaved= 1 IEnMin= 1 EnMin= -196.477363892328     IErMin= 1 ErrMin= 4.72D-02
 ErrMax= 4.72D-02  0.00D+00 EMaxC= 1.00D+00 BMatC= 4.77D-01 BMatP= 4.77D-01
 IDIUse=1 WtCom= 1.00D+00 WtEn= 0.00D+00
 Coeff-Com:  0.100D+01
 Coeff:      0.100D+01
 Gap=     0.073 Goal=   None    Shift=    0.500
 T= 1768. Gap= 0.517 NK=0 IS=   19 IE=   57 IFin=   18
          NO(<0.9)=   0  NV(>0.1)=   0     18.00e < EF      0.00e >EF  Err=0.0D+00
 Gap=     0.073 Goal=   None    Shift=    0.500
 T= 1768. Gap= 0.517 NK=0 IS=   19 IE=   57 IFin=   18
          NO(<0.9)=   0  NV(>0.1)=   0     18.00e < EF      0.00e >EF  Err=0.0D+00
 GapD=    0.073 DampG=0.500 DampE=0.500 DampFc=0.2500 IDamp=-1.
 Damping current iteration by 2.50D-01
 RMSDP=2.22D-02 MaxDP=4.70D-01              OVMax= 1.42D-01

 Cycle   2  Pass 1  IDiag  1:
 E= -196.543775711156     Delta-E=       -0.066411818828 Rises=F Damp=T
 DIIS: error= 2.39D-02 at cycle   2 NSaved=   2.
 NSaved= 2 IEnMin= 2 EnMin= -196.543775711156     IErMin= 2 ErrMin= 2.39D-02
 ErrMax= 2.39D-02  0.00D+00 EMaxC= 1.00D+00 BMatC= 1.29D-01 BMatP= 4.77D-01
 IDIUse=1 WtCom= 1.00D+00 WtEn= 0.00D+00
 Coeff-Com: -0.941D+00 0.194D+01
 Coeff:     -0.941D+00 0.194D+01
 Gap=     0.002 Goal=   None    Shift=    0.500
 T= 1660. Gap= 0.517 NK=0 IS=   19 IE=   57 IFin=   18
          NO(<0.9)=   0  NV(>0.1)=   0     18.00e < EF      0.00e >EF  Err=0.0D+00
 Gap=     0.002 Goal=   None    Shift=    0.500
 T= 1660. Gap= 0.517 NK=0 IS=   19 IE=   57 IFin=   18
          NO(<0.9)=   0  NV(>0.1)=   0     18.00e < EF      0.00e >EF  Err=0.0D+00
 GapD=    0.002 DampG=0.250 DampE=0.500 DampFc=0.1250 IDamp=-1.
 Damping current iteration by 1.25D-01
 RMSDP=8.67D-03 MaxDP=6.11D-02 DE=-6.64D-02 OVMax= 1.30D-01

 Cycle   3  Pass 1  IDiag  1:
 E= -196.556236717165     Delta-E=       -0.012461006009 Rises=F Damp=T
 DIIS: error= 2.11D-02 at cycle   3 NSaved=   3.
 NSaved= 3 IEnMin= 3 EnMin= -196.556236717165     IErMin= 3 ErrMin= 2.11D-02
 ErrMax= 2.11D-02  0.00D+00 EMaxC= 1.00D+00 BMatC= 9.46D-02 BMatP= 1.29D-01
 IDIUse=1 WtCom= 1.00D+00 WtEn= 0.00D+00
 Coeff-Com: -0.424D+00-0.274D+01 0.416D+01
 Coeff:     -0.424D+00-0.274D+01 0.416D+01
 Gap=     0.086 Goal=   None    Shift=    0.500
 T= 1511. Gap= 0.588 NK=0 IS=   19 IE=   57 IFin=   18
          NO(<0.9)=   0  NV(>0.1)=   0     18.00e < EF      0.00e >EF  Err=0.0D+00
 Gap=     0.086 Goal=   None    Shift=    0.500
 T= 1511. Gap= 0.588 NK=0 IS=   19 IE=   57 IFin=   18
          NO(<0.9)=   0  NV(>0.1)=   0     18.00e < EF      0.00e >EF  Err=0.0D+00
 GapD=    0.086 DampG=0.500 DampE=0.500 DampFc=0.2500 IDamp=-1.
 Damping current iteration by 2.50D-01
 RMSDP=7.05D-03 MaxDP=4.53D-02 DE=-1.25D-02 OVMax= 4.88D-02

 Cycle   4  Pass 1  IDiag  1:
 E= -196.579612352994     Delta-E=       -0.023375635829 Rises=F Damp=T
 DIIS: error= 1.73D-02 at cycle   4 NSaved=   4.
 NSaved= 4 IEnMin= 4 EnMin= -196.579612352994     IErMin= 4 ErrMin= 1.73D-02
 ErrMax= 1.73D-02  0.00D+00 EMaxC= 1.00D+00 BMatC= 5.70D-02 BMatP= 9.46D-02
 IDIUse=1 WtCom= 1.00D+00 WtEn= 0.00D+00
 Coeff-Com: -0.374D+00 0.393D+01-0.782D+01 0.526D+01
 Coeff:     -0.374D+00 0.393D+01-0.782D+01 0.526D+01
 Gap=     0.103 Goal=   None    Shift=    0.500
 T= 1275. Gap= 0.603 NK=0 IS=   19 IE=   57 IFin=   18
          NO(<0.9)=   0  NV(>0.1)=   0     18.00e < EF      0.00e >EF  Err=0.0D+00
 Gap=     0.103 Goal=   None    Shift=    0.500
 T= 1275. Gap= 0.603 NK=0 IS=   19 IE=   57 IFin=   18
          NO(<0.9)=   0  NV(>0.1)=   0     18.00e < EF      0.00e >EF  Err=0.0D+00
 GapD=    0.103 DampG=1.000 DampE=0.500 DampFc=0.5000 IDamp=-1.
 Damping current iteration by 5.00D-01
 RMSDP=5.36D-03 MaxDP=3.28D-02 DE=-2.34D-02 OVMax= 1.09D-02

 Cycle   5  Pass 1  IDiag  1:
 E= -196.619568272980     Delta-E=       -0.039955919986 Rises=F Damp=T
 DIIS: error= 1.17D-02 at cycle   5 NSaved=   5.
 NSaved= 5 IEnMin= 5 EnMin= -196.619568272980     IErMin= 5 ErrMin= 1.17D-02
 ErrMax= 1.17D-02  0.00D+00 EMaxC= 1.00D+00 BMatC= 2.13D-02 BMatP= 5.70D-02
 IDIUse=1 WtCom= 1.00D+00 WtEn= 0.00D+00
 Coeff-Com: -0.267D+00 0.511D+00 0.260D+01-0.555D+01 0.370D+01
 Coeff:     -0.267D+00 0.511D+00 0.260D+01-0.555D+01 0.370D+01
 Gap=     0.113 Goal=   None    Shift=    0.500
 T= 1144. Gap= 0.613 NK=0 IS=   19 IE=   57 IFin=   18
          NO(<0.9)=   0  NV(>0.1)=   0     18.00e < EF      0.00e >EF  Err=0.0D+00
 Gap=     0.113 Goal=   None    Shift=    0.500
 T= 1144. Gap= 0.613 NK=0 IS=   19 IE=   57 IFin=   18
          NO(<0.9)=   0  NV(>0.1)=   0     18.00e < EF      0.00e >EF  Err=0.0D+00
 GapD=    0.113 DampG=1.000 DampE=0.500 DampFc=0.5000 IDamp=-1.
 Damping current iteration by 5.00D-01
 RMSDP=2.88D-03 MaxDP=1.80D-02 DE=-4.00D-02 OVMax= 8.55D-03

 Cycle   6  Pass 1  IDiag  1:
 E= -196.642265331681     Delta-E=       -0.022697058700 Rises=F Damp=T
 DIIS: error= 8.09D-03 at cycle   6 NSaved=   6.
 NSaved= 6 IEnMin= 6 EnMin= -196.642265331681     IErMin= 6 ErrMin= 8.09D-03
 ErrMax= 8.09D-03  0.00D+00 EMaxC= 1.00D+00 BMatC= 9.47D-03 BMatP= 2.13D-02
 IDIUse=1 WtCom= 1.00D+00 WtEn= 0.00D+00
 Coeff-Com: -0.179D+00-0.701D+00 0.347D+01-0.349D+01-0.586D+00 0.249D+01
 Coeff:     -0.179D+00-0.701D+00 0.347D+01-0.349D+01-0.586D+00 0.249D+01
 Gap=     0.119 Goal=   None    Shift=    0.500
 T=  963. Gap= 0.619 NK=0 IS=   19 IE=   57 IFin=   18
          NO(<0.9)=   0  NV(>0.1)=   0     18.00e < EF      0.00e >EF  Err=0.0D+00
 Gap=     0.119 Goal=   None    Shift=    0.500
 T=  963. Gap= 0.619 NK=0 IS=   19 IE=   57 IFin=   18
          NO(<0.9)=   0  NV(>0.1)=   0     18.00e < EF      0.00e >EF  Err=0.0D+00
 GapD=    0.119 DampG=1.000 DampE=1.000 DampFc=1.0000 IDamp=-1.
 RMSDP=1.62D-03 MaxDP=1.06D-02 DE=-2.27D-02 OVMax= 5.86D-03

 Cycle   7  Pass 1  IDiag  1:
 E= -196.667278832990     Delta-E=       -0.025013501309 Rises=F Damp=F
 DIIS: error= 4.77D-03 at cycle   7 NSaved=   7.
 NSaved= 7 IEnMin= 7 EnMin= -196.667278832990     IErMin= 7 ErrMin= 4.77D-03
 ErrMax= 4.77D-03  0.00D+00 EMaxC= 1.00D+00 BMatC= 1.85D-03 BMatP= 9.47D-03
 IDIUse=1 WtCom= 1.00D+00 WtEn= 0.00D+00
 Coeff-Com: -0.832D-01-0.766D-01-0.375D+00 0.996D+00 0.177D+01-0.423D+01
 Coeff-Com:  0.300D+01
 Coeff:     -0.832D-01-0.766D-01-0.375D+00 0.996D+00 0.177D+01-0.423D+01
 Coeff:      0.300D+01
 Gap=     0.127 Goal=   None    Shift=    0.500
 T=  716. Gap= 0.627 NK=0 IS=   19 IE=   57 IFin=   18
          NO(<0.9)=   0  NV(>0.1)=   0     18.00e < EF      0.00e >EF  Err=0.0D+00
 Gap=     0.127 Goal=   None    Shift=    0.500
 T=  716. Gap= 0.627 NK=0 IS=   19 IE=   57 IFin=   18
          NO(<0.9)=   0  NV(>0.1)=   0     18.00e < EF      0.00e >EF  Err=0.0D+00
 GapD=    0.127 DampG=1.000 DampE=1.000 DampFc=1.0000 IDamp=-1.
 RMSDP=2.58D-04 MaxDP=1.84D-03 DE=-2.50D-02 OVMax= 5.67D-03

 Cycle   8  Pass 1  IDiag  1:
 E= -196.667847649872     Delta-E=       -0.000568816883 Rises=F Damp=F
 DIIS: error= 3.72D-03 at cycle   8 NSaved=   8.
 NSaved= 8 IEnMin= 8 EnMin= -196.667847649872     IErMin= 8 ErrMin= 3.72D-03
 ErrMax= 3.72D-03  0.00D+00 EMaxC= 1.00D+00 BMatC= 9.22D-04 BMatP= 1.85D-03
 IDIUse=1 WtCom= 1.00D+00 WtEn= 0.00D+00
 Coeff-Com: -0.321D-01 0.466D+00-0.984D+00-0.647D-02 0.289D+01-0.306D+01
 Coeff-Com: -0.151D+01 0.324D+01
 Coeff:     -0.321D-01 0.466D+00-0.984D+00-0.647D-02 0.289D+01-0.306D+01
 Coeff:     -0.151D+01 0.324D+01
 Gap=     0.135 Goal=   None    Shift=    0.500
 T=  481. Gap= 0.635 NK=0 IS=   19 IE=   57 IFin=   18
          NO(<0.9)=   0  NV(>0.1)=   0     18.00e < EF      0.00e >EF  Err=0.0D+00
 Gap=     0.135 Goal=   None    Shift=    0.500
 T=  481. Gap= 0.635 NK=0 IS=   19 IE=   57 IFin=   18
          NO(<0.9)=   0  NV(>0.1)=   0     18.00e < EF      0.00e >EF  Err=0.0D+00
 GapD=    0.135 DampG=1.000 DampE=1.000 DampFc=1.0000 IDamp=-1.
 RMSDP=1.93D-04 MaxDP=2.53D-03 DE=-5.69D-04 OVMax= 6.30D-03

 Cycle   9  Pass 1  IDiag  1:
 E= -196.668213900956     Delta-E=       -0.000366251083 Rises=F Damp=F
 DIIS: error= 2.58D-03 at cycle   9 NSaved=   9.
 NSaved= 9 IEnMin= 9 EnMin= -196.668213900956     IErMin= 9 ErrMin= 2.58D-03
 ErrMax= 2.58D-03  0.00D+00 EMaxC= 1.00D+00 BMatC= 3.66D-04 BMatP= 9.22D-04
 IDIUse=1 WtCom= 1.00D+00 WtEn= 0.00D+00
 Coeff-Com:  0.128D-01-0.889D+00 0.188D+01-0.101D+01-0.208D+01 0.357D+01
 Coeff-Com: -0.198D+01-0.167D+01 0.317D+01
 Coeff:      0.128D-01-0.889D+00 0.188D+01-0.101D+01-0.208D+01 0.357D+01
 Coeff:     -0.198D+01-0.167D+01 0.317D+01
 Gap=     0.139 Goal=   None    Shift=    0.500
 T=  239. Gap= 0.639 NK=0 IS=   19 IE=   57 IFin=   18
          NO(<0.9)=   0  NV(>0.1)=   0     18.00e < EF      0.00e >EF  Err=0.0D+00
 Gap=     0.139 Goal=   None    Shift=    0.500
 T=  239. Gap= 0.639 NK=0 IS=   19 IE=   57 IFin=   18
          NO(<0.9)=   0  NV(>0.1)=   0     18.00e < EF      0.00e >EF  Err=0.0D+00
 GapD=    0.139 DampG=1.000 DampE=1.000 DampFc=1.0000 IDamp=-1.
 RMSDP=1.53D-04 MaxDP=2.31D-03 DE=-3.66D-04 OVMax= 5.51D-03

 Cycle  10  Pass 1  IDiag  1:
 E= -196.668394835577     Delta-E=       -0.000180934622 Rises=F Damp=F
 DIIS: error= 1.57D-03 at cycle  10 NSaved=  10.
 NSaved=10 IEnMin=10 EnMin= -196.668394835577     IErMin=10 ErrMin= 1.57D-03
 ErrMax= 1.57D-03  0.00D+00 EMaxC= 1.00D+00 BMatC= 1.12D-04 BMatP= 3.66D-04
 IDIUse=1 WtCom= 1.00D+00 WtEn= 0.00D+00
 Coeff-Com:  0.133D-01-0.300D+00 0.487D+00-0.290D+00 0.475D+00-0.634D+00
 Coeff-Com:  0.516D+00 0.344D+00-0.293D+01 0.332D+01
 Coeff:      0.133D-01-0.300D+00 0.487D+00-0.290D+00 0.475D+00-0.634D+00
 Coeff:      0.516D+00 0.344D+00-0.293D+01 0.332D+01
 Gap=     0.139 Goal=   None    Shift=    0.500
 T=   34. Gap= 0.639 NK=0 IS=   19 IE=   57 IFin=   18
          NO(<0.9)=   0  NV(>0.1)=   0     18.00e < EF      0.00e >EF  Err=0.0D+00
 Gap=     0.139 Goal=   None    Shift=    0.500
 T=   34. Gap= 0.639 NK=0 IS=   19 IE=   57 IFin=   18
          NO(<0.9)=   0  NV(>0.1)=   0     18.00e < EF      0.00e >EF  Err=0.0D+00
 GapD=    0.139 DampG=1.000 DampE=1.000 DampFc=1.0000 IDamp=-1.
 RMSDP=8.91D-05 MaxDP=1.52D-03 DE=-1.81D-04 OVMax= 3.63D-03

 Cycle  11  Pass 1  IDiag  1:
 E= -196.668456569047     Delta-E=       -0.000061733470 Rises=F Damp=F
 DIIS: error= 8.78D-04 at cycle  11 NSaved=  11.
 NSaved=11 IEnMin=11 EnMin= -196.668456569047     IErMin=11 ErrMin= 8.78D-04
 ErrMax= 8.78D-04  0.00D+00 EMaxC= 1.00D+00 BMatC= 3.11D-05 BMatP= 1.12D-04
 IDIUse=1 WtCom= 1.00D+00 WtEn= 0.00D+00
 Coeff-Com:  0.284D-02 0.804D-01-0.233D+00 0.219D+00-0.124D+00 0.956D-01
 Coeff-Com: -0.858D-01-0.922D-01 0.107D+01-0.345D+01 0.352D+01
 Coeff:      0.284D-02 0.804D-01-0.233D+00 0.219D+00-0.124D+00 0.956D-01
 Coeff:     -0.858D-01-0.922D-01 0.107D+01-0.345D+01 0.352D+01
 Gap=     0.138 Goal=   None    Shift=    0.500
 Gap=     0.138 Goal=   None    Shift=    0.500
 RMSDP=4.49D-05 MaxDP=8.85D-04 DE=-6.17D-05 OVMax= 1.97D-03

 Cycle  12  Pass 1  IDiag  1:
 E= -196.668474137138     Delta-E=       -0.000017568091 Rises=F Damp=F
 DIIS: error= 5.06D-04 at cycle  12 NSaved=  12.
 NSaved=12 IEnMin=12 EnMin= -196.668474137138     IErMin=12 ErrMin= 5.06D-04
 ErrMax= 5.06D-04  0.00D+00 EMaxC= 1.00D+00 BMatC= 9.35D-06 BMatP= 3.11D-05
 IDIUse=1 WtCom= 1.00D+00 WtEn= 0.00D+00
 Coeff-Com:  0.293D-03-0.267D-01 0.813D-01-0.842D-01-0.287D-01 0.122D+00
 Coeff-Com: -0.605D-01-0.113D+00 0.918D-01 0.471D+00-0.231D+01 0.286D+01
 Coeff:      0.293D-03-0.267D-01 0.813D-01-0.842D-01-0.287D-01 0.122D+00
 Coeff:     -0.605D-01-0.113D+00 0.918D-01 0.471D+00-0.231D+01 0.286D+01
 Gap=     0.138 Goal=   None    Shift=    0.500
 Gap=     0.138 Goal=   None    Shift=    0.500
 RMSDP=2.38D-05 MaxDP=5.15D-04 DE=-1.76D-05 OVMax= 1.06D-03

 Cycle  13  Pass 1  IDiag  1:
 E= -196.668479317004     Delta-E=       -0.000005179865 Rises=F Damp=F
 DIIS: error= 3.12D-04 at cycle  13 NSaved=  13.
 NSaved=13 IEnMin=13 EnMin= -196.668479317004     IErMin=13 ErrMin= 3.12D-04
 ErrMax= 3.12D-04  0.00D+00 EMaxC= 1.00D+00 BMatC= 3.41D-06 BMatP= 9.35D-06
 IDIUse=1 WtCom= 1.00D+00 WtEn= 0.00D+00
 Coeff-Com: -0.121D-02-0.504D-02 0.247D-01-0.283D-01 0.372D-01-0.516D-01
 Coeff-Com:  0.455D-01 0.341D-01-0.112D+00-0.147D+00 0.123D+01-0.368D+01
 Coeff-Com:  0.366D+01
 Coeff:     -0.121D-02-0.504D-02 0.247D-01-0.283D-01 0.372D-01-0.516D-01
 Coeff:      0.455D-01 0.341D-01-0.112D+00-0.147D+00 0.123D+01-0.368D+01
 Coeff:      0.366D+01
 Gap=     0.138 Goal=   None    Shift=    0.500
 Gap=     0.138 Goal=   None    Shift=    0.500
 RMSDP=1.34D-05 MaxDP=2.89D-04 DE=-5.18D-06 OVMax= 6.03D-04

 Cycle  14  Pass 1  IDiag  1:
 E= -196.668481078700     Delta-E=       -0.000001761696 Rises=F Damp=F
 DIIS: error= 2.03D-04 at cycle  14 NSaved=  14.
 NSaved=14 IEnMin=14 EnMin= -196.668481078700     IErMin=14 ErrMin= 2.03D-04
 ErrMax= 2.03D-04  0.00D+00 EMaxC= 1.00D+00 BMatC= 1.44D-06 BMatP= 3.41D-06
 IDIUse=1 WtCom= 1.00D+00 WtEn= 0.00D+00
 Coeff-Com: -0.745D-03-0.563D-03 0.176D-01-0.252D-01-0.246D-01 0.662D-01
 Coeff-Com: -0.573D-01 0.245D-01 0.612D-01-0.258D+00 0.895D-01 0.135D+01
 Coeff-Com: -0.406D+01 0.382D+01
 Coeff:     -0.745D-03-0.563D-03 0.176D-01-0.252D-01-0.246D-01 0.662D-01
 Coeff:     -0.573D-01 0.245D-01 0.612D-01-0.258D+00 0.895D-01 0.135D+01
 Coeff:     -0.406D+01 0.382D+01
 Gap=     0.138 Goal=   None    Shift=    0.500
 Gap=     0.138 Goal=   None    Shift=    0.500
 RMSDP=8.25D-06 MaxDP=1.75D-04 DE=-1.76D-06 OVMax= 3.92D-04

 Cycle  15  Pass 1  IDiag  1:
 E= -196.668481804259     Delta-E=       -0.000000725559 Rises=F Damp=F
 DIIS: error= 1.31D-04 at cycle  15 NSaved=  15.
 NSaved=15 IEnMin=15 EnMin= -196.668481804259     IErMin=15 ErrMin= 1.31D-04
 ErrMax= 1.31D-04  0.00D+00 EMaxC= 1.00D+00 BMatC= 5.91D-07 BMatP= 1.44D-06
 IDIUse=1 WtCom= 1.00D+00 WtEn= 0.00D+00
 Coeff-Com:  0.956D-04-0.107D-01 0.302D-01-0.270D-01-0.880D-02 0.306D-01
 Coeff-Com: -0.437D-02-0.487D-01 0.770D-01-0.275D-01-0.222D+00 0.352D+00
 Coeff-Com:  0.760D+00-0.363D+01 0.373D+01
 Coeff:      0.956D-04-0.107D-01 0.302D-01-0.270D-01-0.880D-02 0.306D-01
 Coeff:     -0.437D-02-0.487D-01 0.770D-01-0.275D-01-0.222D+00 0.352D+00
 Coeff:      0.760D+00-0.363D+01 0.373D+01
 Gap=     0.138 Goal=   None    Shift=    0.500
 Gap=     0.138 Goal=   None    Shift=    0.500
 RMSDP=5.68D-06 MaxDP=1.14D-04 DE=-7.26D-07 OVMax= 2.70D-04

 Cycle  16  Pass 1  IDiag  1:
 E= -196.668482118248     Delta-E=       -0.000000313990 Rises=F Damp=F
 DIIS: error= 8.07D-05 at cycle  16 NSaved=  16.
 NSaved=16 IEnMin=16 EnMin= -196.668482118248     IErMin=16 ErrMin= 8.07D-05
 ErrMax= 8.07D-05  0.00D+00 EMaxC= 1.00D+00 BMatC= 2.12D-07 BMatP= 5.91D-07
 IDIUse=1 WtCom= 1.00D+00 WtEn= 0.00D+00
 Coeff-Com:  0.127D-03-0.498D-02 0.133D-01-0.115D-01-0.641D-02 0.175D-01
 Coeff-Com: -0.465D-02-0.196D-01 0.522D-01-0.893D-01 0.114D+00-0.164D+00
 Coeff-Com:  0.122D+00 0.314D+00-0.229D+01 0.296D+01
 Coeff:      0.127D-03-0.498D-02 0.133D-01-0.115D-01-0.641D-02 0.175D-01
 Coeff:     -0.465D-02-0.196D-01 0.522D-01-0.893D-01 0.114D+00-0.164D+00
 Coeff:      0.122D+00 0.314D+00-0.229D+01 0.296D+01
 Gap=     0.138 Goal=   None    Shift=    0.500
 Gap=     0.138 Goal=   None    Shift=    0.500
 RMSDP=3.52D-06 MaxDP=7.30D-05 DE=-3.14D-07 OVMax= 1.72D-04

 Cycle  17  Pass 1  IDiag  1:
 E= -196.668482236057     Delta-E=       -0.000000117809 Rises=F Damp=F
 DIIS: error= 4.83D-05 at cycle  17 NSaved=  17.
 NSaved=17 IEnMin=17 EnMin= -196.668482236057     IErMin=17 ErrMin= 4.83D-05
 ErrMax= 4.83D-05  0.00D+00 EMaxC= 1.00D+00 BMatC= 7.27D-08 BMatP= 2.12D-07
 IDIUse=1 WtCom= 1.00D+00 WtEn= 0.00D+00
 Coeff-Com: -0.660D-04 0.120D-02-0.101D-03-0.325D-02 0.146D-02 0.380D-02
 Coeff-Com: -0.605D-02 0.588D-03 0.114D-01-0.164D-01-0.309D-01 0.186D+00
 Coeff-Com: -0.266D+00-0.238D+00 0.176D+01-0.434D+01 0.394D+01
 Coeff:     -0.660D-04 0.120D-02-0.101D-03-0.325D-02 0.146D-02 0.380D-02
 Coeff:     -0.605D-02 0.588D-03 0.114D-01-0.164D-01-0.309D-01 0.186D+00
 Coeff:     -0.266D+00-0.238D+00 0.176D+01-0.434D+01 0.394D+01
 Gap=     0.138 Goal=   None    Shift=    0.500
 Gap=     0.138 Goal=   None    Shift=    0.500
 RMSDP=1.94D-06 MaxDP=4.34D-05 DE=-1.18D-07 OVMax= 9.80D-05

 Cycle  18  Pass 1  IDiag  1:
 E= -196.668482275398     Delta-E=       -0.000000039341 Rises=F Damp=F
 DIIS: error= 3.00D-05 at cycle  18 NSaved=  18.
 NSaved=18 IEnMin=18 EnMin= -196.668482275398     IErMin=18 ErrMin= 3.00D-05
 ErrMax= 3.00D-05  0.00D+00 EMaxC= 1.00D+00 BMatC= 2.75D-08 BMatP= 7.27D-08
 IDIUse=1 WtCom= 1.00D+00 WtEn= 0.00D+00
 Coeff-Com: -0.359D-04-0.298D-03 0.292D-02-0.483D-02 0.122D-02 0.344D-02
 Coeff-Com: -0.265D-02-0.565D-02 0.104D-01 0.118D-02-0.500D-01 0.126D+00
 Coeff-Com:  0.201D-02-0.414D+00 0.766D+00-0.613D+00-0.165D+01 0.283D+01
 Coeff:     -0.359D-04-0.298D-03 0.292D-02-0.483D-02 0.122D-02 0.344D-02
 Coeff:     -0.265D-02-0.565D-02 0.104D-01 0.118D-02-0.500D-01 0.126D+00
 Coeff:      0.201D-02-0.414D+00 0.766D+00-0.613D+00-0.165D+01 0.283D+01
 Gap=     0.138 Goal=   None    Shift=    0.500
 Gap=     0.138 Goal=   None    Shift=    0.500
 RMSDP=1.19D-06 MaxDP=2.69D-05 DE=-3.93D-08 OVMax= 6.08D-05

 Cycle  19  Pass 1  IDiag  1:
 E= -196.668482290289     Delta-E=       -0.000000014891 Rises=F Damp=F
 DIIS: error= 1.86D-05 at cycle  19 NSaved=  19.
 NSaved=19 IEnMin=19 EnMin= -196.668482290289     IErMin=19 ErrMin= 1.86D-05
 ErrMax= 1.86D-05  0.00D+00 EMaxC= 1.00D+00 BMatC= 1.05D-08 BMatP= 2.75D-08
 IDIUse=1 WtCom= 1.00D+00 WtEn= 0.00D+00
 Coeff-Com: -0.806D-05-0.295D-04 0.697D-05 0.361D-03-0.134D-02 0.145D-02
 Coeff-Com: -0.452D-03 0.839D-03 0.278D-02-0.159D-01 0.310D-01-0.301D-01
 Coeff-Com: -0.517D-01 0.194D+00-0.130D+00-0.352D+00 0.188D+01-0.495D+01
 Coeff-Com:  0.442D+01
 Coeff:     -0.806D-05-0.295D-04 0.697D-05 0.361D-03-0.134D-02 0.145D-02
 Coeff:     -0.452D-03 0.839D-03 0.278D-02-0.159D-01 0.310D-01-0.301D-01
 Coeff:     -0.517D-01 0.194D+00-0.130D+00-0.352D+00 0.188D+01-0.495D+01
 Coeff:      0.442D+01
 Gap=     0.138 Goal=   None    Shift=    0.500
 Gap=     0.138 Goal=   None    Shift=    0.500
 RMSDP=7.41D-07 MaxDP=1.68D-05 DE=-1.49D-08 OVMax= 3.81D-05

 SCF Done:  E(ULC-wHPBE) =  -196.668482290     A.U. after   19 cycles
            NFock= 19  Conv=0.74D-06     -V/T= 2.0232
 <Sx>= 0.0000 <Sy>= 0.0000 <Sz>= 0.0000 <S**2>=-0.0000 S=-0.0000
 <L.S>= 0.000000000000E+00
 KE= 1.922139578086D+02 PE=-7.391658748119D+02 EE= 2.052615349200D+02
 Annihilation of the first spin contaminant:
 S**2 before annihilation    -0.0000,   after     0.0000
 Leave Link  502 at Thu Mar  5 12:49:02 2020, MaxMem=  6710886400 cpu:              28.6 elap:               1.8
 (Enter /opt/ohpc/pub/libs/gaussian/g16-A.03/sandybridge/g16/l508.exe)
 QCSCF skips out because SCF is already converged.
 Leave Link  508 at Thu Mar  5 12:49:02 2020, MaxMem=  6710886400 cpu:               0.3 elap:               0.0
 (Enter /opt/ohpc/pub/libs/gaussian/g16-A.03/sandybridge/g16/l601.exe)
 Copying SCF densities to generalized density rwf, IOpCl= 1 IROHF=0.

 **********************************************************************

            Population analysis using the SCF density.

 **********************************************************************

 Orbital symmetries:
 Alpha Orbitals:
       Occupied  (B2) (A1) (B2) (A1) (A1) (A1) (B2) (A1) (B2) (A1)
                 (A1) (B2) (B2) (A1) (B1) (A1) (A2) (B1)
       Virtual   (A1) (B2) (A2) (B1) (A1) (B2) (A1) (B2) (A1) (A1)
                 (B2) (A1) (B2) (B2) (B1) (A2) (B1) (A1) (A1) (B2)
                 (A1) (A2) (A1) (B1) (B2) (A1) (B2) (A1) (B2) (A1)
                 (A1) (A1) (B2) (A1) (B2) (B2) (A1) (A1) (B2)
 Beta  Orbitals:
       Occupied  (B2) (A1) (B2) (A1) (A1) (A1) (B2) (A1) (B2) (A1)
                 (A1) (B2) (B2) (A1) (B1) (A1) (A2) (B1)
       Virtual   (A1) (B2) (A2) (B1) (A1) (B2) (A1) (B2) (A1) (A1)
                 (B2) (A1) (B2) (B2) (B1) (A2) (B1) (A1) (A1) (B2)
                 (A1) (A2) (A1) (B1) (B2) (A1) (B2) (A1) (B2) (A1)
                 (A1) (A1) (B2) (A1) (B2) (B2) (A1) (A1) (B2)
 The electronic state is 1-A1.
 Alpha  occ. eigenvalues --  -10.19306 -10.19306 -10.15081 -10.15080 -10.09345
 Alpha  occ. eigenvalues --   -0.97978  -0.90045  -0.81959  -0.72765  -0.66730
 Alpha  occ. eigenvalues --   -0.65143  -0.58238  -0.53619  -0.50752  -0.48873
 Alpha  occ. eigenvalues --   -0.47440  -0.39665  -0.29505
 Alpha virt. eigenvalues --   -0.15688  -0.11282  -0.00986   0.10348   0.10529
 Alpha virt. eigenvalues --    0.14362   0.18284   0.19230   0.20794   0.31186
 Alpha virt. eigenvalues --    0.32575   0.40667   0.41646   0.52981   0.53087
 Alpha virt. eigenvalues --    0.61805   0.62119   0.63017   0.63546   0.65431
 Alpha virt. eigenvalues --    0.65911   0.67790   0.71061   0.71413   0.72067
 Alpha virt. eigenvalues --    0.79132   0.84856   0.86856   0.89466   0.91526
 Alpha virt. eigenvalues --    0.95941   0.98493   1.00779   1.06712   1.13062
 Alpha virt. eigenvalues --    1.18470   1.22479   1.46268   1.46988
  Beta  occ. eigenvalues --  -10.19306 -10.19306 -10.15081 -10.15080 -10.09345
  Beta  occ. eigenvalues --   -0.97978  -0.90045  -0.81959  -0.72765  -0.66730
  Beta  occ. eigenvalues --   -0.65143  -0.58238  -0.53619  -0.50752  -0.48873
  Beta  occ. eigenvalues --   -0.47440  -0.39665  -0.29505
  Beta virt. eigenvalues --   -0.15688  -0.11282  -0.00986   0.10348   0.10529
  Beta virt. eigenvalues --    0.14362   0.18284   0.19230   0.20794   0.31186
  Beta virt. eigenvalues --    0.32575   0.40667   0.41646   0.52981   0.53087
  Beta virt. eigenvalues --    0.61805   0.62119   0.63017   0.63546   0.65431
  Beta virt. eigenvalues --    0.65911   0.67790   0.71061   0.71413   0.72067
  Beta virt. eigenvalues --    0.79132   0.84856   0.86856   0.89466   0.91526
  Beta virt. eigenvalues --    0.95941   0.98493   1.00779   1.06712   1.13062
  Beta virt. eigenvalues --    1.18470   1.22479   1.46268   1.46988
          Condensed to atoms (all electrons):
               1          2          3          4          5          6
     1  C    5.305277   0.510230  -0.079018  -0.038922   0.144563   0.115449
     2  C    0.510230   4.911714   0.538883  -0.052772  -0.038922  -0.002885
     3  C   -0.079018   0.538883   4.922313   0.538883  -0.079018  -0.000214
     4  C   -0.038922  -0.052772   0.538883   4.911714   0.510230  -0.002885
     5  C    0.144563  -0.038922  -0.079018   0.510230   5.305277   0.115449
     6  H    0.115449  -0.002885  -0.000214  -0.002885   0.115449   0.665210
     7  H    0.354207  -0.036872   0.002658   0.000806  -0.003566  -0.008700
     8  H   -0.033049   0.358321  -0.013997   0.003940   0.000467   0.000180
     9  H    0.004946  -0.038057   0.374037  -0.038057   0.004946  -0.000002
    10  H    0.000467   0.003940  -0.013997   0.358321  -0.033049   0.000180
    11  H   -0.003566   0.000806   0.002658  -0.036872   0.354207  -0.008700
               7          8          9         10         11
     1  C    0.354207  -0.033049   0.004946   0.000467  -0.003566
     2  C   -0.036872   0.358321  -0.038057   0.003940   0.000806
     3  C    0.002658  -0.013997   0.374037  -0.013997   0.002658
     4  C    0.000806   0.003940  -0.038057   0.358321  -0.036872
     5  C   -0.003566   0.000467   0.004946  -0.033049   0.354207
     6  H   -0.008700   0.000180  -0.000002   0.000180  -0.008700
     7  H    0.497754   0.001010  -0.000139  -0.000010   0.000044
     8  H    0.001010   0.478760  -0.003429  -0.000090  -0.000010
     9  H   -0.000139  -0.003429   0.564526  -0.003429  -0.000139
    10  H   -0.000010  -0.000090  -0.003429   0.478760   0.001010
    11  H    0.000044  -0.000010  -0.000139   0.001010   0.497754
          Atomic-Atomic Spin Densities.
               1          2          3          4          5          6
     1  C    0.000000   0.000000  -0.000000   0.000000  -0.000000   0.000000
     2  C    0.000000  -0.000000  -0.000000   0.000000   0.000000  -0.000000
     3  C   -0.000000  -0.000000  -0.000000  -0.000000  -0.000000   0.000000
     4  C    0.000000   0.000000  -0.000000  -0.000000   0.000000  -0.000000
     5  C   -0.000000   0.000000  -0.000000   0.000000   0.000000   0.000000
     6  H    0.000000  -0.000000   0.000000  -0.000000   0.000000  -0.000000
     7  H    0.000000  -0.000000   0.000000  -0.000000  -0.000000   0.000000
     8  H    0.000000  -0.000000  -0.000000  -0.000000   0.000000  -0.000000
     9  H   -0.000000   0.000000  -0.000000   0.000000  -0.000000  -0.000000
    10  H    0.000000  -0.000000  -0.000000  -0.000000   0.000000  -0.000000
    11  H   -0.000000  -0.000000   0.000000  -0.000000   0.000000   0.000000
               7          8          9         10         11
     1  C    0.000000   0.000000  -0.000000   0.000000  -0.000000
     2  C   -0.000000  -0.000000   0.000000  -0.000000  -0.000000
     3  C    0.000000  -0.000000  -0.000000  -0.000000   0.000000
     4  C   -0.000000  -0.000000   0.000000  -0.000000  -0.000000
     5  C   -0.000000   0.000000  -0.000000   0.000000   0.000000
     6  H    0.000000  -0.000000  -0.000000  -0.000000   0.000000
     7  H    0.000000  -0.000000   0.000000  -0.000000   0.000000
     8  H   -0.000000  -0.000000   0.000000  -0.000000  -0.000000
     9  H    0.000000   0.000000  -0.000000   0.000000   0.000000
    10  H   -0.000000  -0.000000   0.000000  -0.000000  -0.000000
    11  H    0.000000  -0.000000   0.000000  -0.000000   0.000000
 Mulliken charges and spin densities:
               1          2
     1  C   -0.280583   0.000000
     2  C   -0.154385   0.000000
     3  C   -0.193189  -0.000000
     4  C   -0.154385   0.000000
     5  C   -0.280583   0.000000
     6  H    0.126918  -0.000000
     7  H    0.192808   0.000000
     8  H    0.207898  -0.000000
     9  H    0.134795  -0.000000
    10  H    0.207898  -0.000000
    11  H    0.192808   0.000000
 Sum of Mulliken charges =  -0.00000   0.00000
 Mulliken charges and spin densities with hydrogens summed into heavy atoms:
               1          2
     1  C    0.039143   0.000000
     2  C    0.053513   0.000000
     3  C   -0.058394  -0.000000
     4  C    0.053513   0.000000
     5  C   -0.087775   0.000000
 Electronic spatial extent (au):  <R**2>=            394.4094
 Charge=             -0.0000 electrons
 Dipole moment (field-independent basis, Debye):
    X=             -0.0000    Y=             -0.0000    Z=             -1.1596  Tot=              1.1596
 Quadrupole moment (field-independent basis, Debye-Ang):
   XX=            -36.0967   YY=            -22.6914   ZZ=            -23.7199
   XY=              0.0000   XZ=             -0.0000   YZ=             -0.0000
 Traceless Quadrupole moment (field-independent basis, Debye-Ang):
   XX=             -8.5941   YY=              4.8113   ZZ=              3.7828
   XY=              0.0000   XZ=             -0.0000   YZ=             -0.0000
 Octapole moment (field-independent basis, Debye-Ang**2):
  XXX=              0.0000  YYY=              0.0000  ZZZ=            -11.0428  XYY=              0.0000
  XXY=             -0.0000  XXZ=              2.6239  XZZ=              0.0000  YZZ=              0.0000
  YYZ=              1.5252  XYZ=             -0.0000
 Hexadecapole moment (field-independent basis, Debye-Ang**3):
 XXXX=            -38.8381 YYYY=           -227.5285 ZZZZ=           -173.9264 XXXY=             -0.0000
 XXXZ=             -0.0000 YYYX=             -0.0000 YYYZ=             -0.0000 ZZZX=             -0.0000
 ZZZY=              0.0000 XXYY=            -60.7718 XXZZ=            -51.7108 YYZZ=            -69.3762
 XXYZ=              0.0000 YYXZ=             -0.0000 ZZXY=             -0.0000
 N-N= 1.450218997931D+02 E-N=-7.391655848234D+02  KE= 1.922139578086D+02
 Symmetry A1   KE= 1.103646713580D+02
 Symmetry A2   KE= 2.352611628041D+00
 Symmetry B1   KE= 4.393910156516D+00
 Symmetry B2   KE= 7.510276466600D+01
 Symmetry A1   SP=-1.443302304654D-15
 Symmetry A2   SP= 1.360996116997D-15
 Symmetry B1   SP= 1.132534911446D-14
 Symmetry B2   SP= 1.196892427801D-14
                          Isotropic Fermi Contact Couplings
        Atom                 a.u.       MegaHertz       Gauss      10(-4) cm-1
     1  C(13)              0.00000       0.00000       0.00000       0.00000
     2  C(13)              0.00000       0.00000       0.00000       0.00000
     3  C(13)             -0.00000      -0.00000      -0.00000      -0.00000
     4  C(13)              0.00000       0.00000       0.00000       0.00000
     5  C(13)              0.00000       0.00000       0.00000       0.00000
     6  H(1)              -0.00000      -0.00000      -0.00000      -0.00000
     7  H(1)               0.00000       0.00000       0.00000       0.00000
     8  H(1)               0.00000       0.00000       0.00000       0.00000
     9  H(1)              -0.00000      -0.00000      -0.00000      -0.00000
    10  H(1)               0.00000       0.00000       0.00000       0.00000
    11  H(1)               0.00000       0.00000       0.00000       0.00000
 --------------------------------------------------------
       Center         ----  Spin Dipole Couplings  ----
                      3XX-RR        3YY-RR        3ZZ-RR
 --------------------------------------------------------
     1   Atom        0.000000      0.000000      0.000000
     2   Atom        0.000000      0.000000      0.000000
     3   Atom        0.000000      0.000000      0.000000
     4   Atom        0.000000      0.000000      0.000000
     5   Atom        0.000000      0.000000      0.000000
     6   Atom        0.000000      0.000000      0.000000
     7   Atom        0.000000      0.000000      0.000000
     8   Atom        0.000000      0.000000      0.000000
     9   Atom        0.000000      0.000000      0.000000
    10   Atom        0.000000      0.000000      0.000000
    11   Atom        0.000000      0.000000      0.000000
 --------------------------------------------------------
                        XY            XZ            YZ
 --------------------------------------------------------
     1   Atom        0.000000      0.000000      0.000000
     2   Atom        0.000000      0.000000      0.000000
     3   Atom        0.000000      0.000000      0.000000
     4   Atom        0.000000      0.000000      0.000000
     5   Atom        0.000000      0.000000      0.000000
     6   Atom        0.000000      0.000000      0.000000
     7   Atom        0.000000      0.000000      0.000000
     8   Atom        0.000000      0.000000      0.000000
     9   Atom        0.000000      0.000000      0.000000
    10   Atom        0.000000      0.000000      0.000000
    11   Atom        0.000000      0.000000      0.000000
 --------------------------------------------------------


 ---------------------------------------------------------------------------------
              Anisotropic Spin Dipole Couplings in Principal Axis System
 ---------------------------------------------------------------------------------

       Atom             a.u.   MegaHertz   Gauss  10(-4) cm-1        Axes

              Baa     0.0000     0.000     0.000     0.000  1.0000  0.0000  0.0000
     1 C(13)  Bbb     0.0000     0.000     0.000     0.000 -0.0000  1.0000  0.0000
              Bcc     0.0000     0.000     0.000     0.000  0.0000  0.0000  1.0000
 
              Baa     0.0000     0.000     0.000     0.000  1.0000  0.0000  0.0000
     2 C(13)  Bbb     0.0000     0.000     0.000     0.000 -0.0000  1.0000  0.0000
              Bcc     0.0000     0.000     0.000     0.000  0.0000  0.0000  1.0000
 
              Baa     0.0000     0.000     0.000     0.000  1.0000  0.0000  0.0000
     3 C(13)  Bbb     0.0000     0.000     0.000     0.000 -0.0000  1.0000  0.0000
              Bcc     0.0000     0.000     0.000     0.000  0.0000  0.0000  1.0000
 
              Baa     0.0000     0.000     0.000     0.000  1.0000  0.0000  0.0000
     4 C(13)  Bbb     0.0000     0.000     0.000     0.000 -0.0000  1.0000  0.0000
              Bcc     0.0000     0.000     0.000     0.000  0.0000  0.0000  1.0000
 
              Baa     0.0000     0.000     0.000     0.000  1.0000  0.0000  0.0000
     5 C(13)  Bbb     0.0000     0.000     0.000     0.000 -0.0000  1.0000  0.0000
              Bcc     0.0000     0.000     0.000     0.000  0.0000  0.0000  1.0000
 
              Baa     0.0000     0.000     0.000     0.000  1.0000  0.0000  0.0000
     6 H(1)   Bbb     0.0000     0.000     0.000     0.000 -0.0000  1.0000  0.0000
              Bcc     0.0000     0.000     0.000     0.000  0.0000  0.0000  1.0000
 
              Baa     0.0000     0.000     0.000     0.000  1.0000  0.0000  0.0000
     7 H(1)   Bbb     0.0000     0.000     0.000     0.000 -0.0000  1.0000  0.0000
              Bcc     0.0000     0.000     0.000     0.000  0.0000  0.0000  1.0000
 
              Baa     0.0000     0.000     0.000     0.000  1.0000  0.0000  0.0000
     8 H(1)   Bbb     0.0000     0.000     0.000     0.000 -0.0000  1.0000  0.0000
              Bcc     0.0000     0.000     0.000     0.000  0.0000  0.0000  1.0000
 
              Baa     0.0000     0.000     0.000     0.000  1.0000  0.0000  0.0000
     9 H(1)   Bbb     0.0000     0.000     0.000     0.000 -0.0000  1.0000  0.0000
              Bcc     0.0000     0.000     0.000     0.000  0.0000  0.0000  1.0000
 
              Baa     0.0000     0.000     0.000     0.000  1.0000  0.0000  0.0000
    10 H(1)   Bbb     0.0000     0.000     0.000     0.000 -0.0000  1.0000  0.0000
              Bcc     0.0000     0.000     0.000     0.000  0.0000  0.0000  1.0000
 
              Baa     0.0000     0.000     0.000     0.000  1.0000  0.0000  0.0000
    11 H(1)   Bbb     0.0000     0.000     0.000     0.000 -0.0000  1.0000  0.0000
              Bcc     0.0000     0.000     0.000     0.000  0.0000  0.0000  1.0000
 

 ---------------------------------------------------------------------------------

 No NMR shielding tensors so no spin-rotation constants.
 Leave Link  601 at Thu Mar  5 12:49:02 2020, MaxMem=  6710886400 cpu:               2.2 elap:               0.2
 (Enter /opt/ohpc/pub/libs/gaussian/g16-A.03/sandybridge/g16/l9999.exe)

 Test job not archived.
 1\1\GINC-CNODE212\SP\ULC-wHPBE\6-31G\C5H6\SMGO234\05-Mar-2020\0\\#P uL
 C-wHPBE/6-31G iop(3/130=0275700000, 3/131=0275700000, 3/119=0724300000
 , 3/120=0724300000) scf=(conver=6,fermi,ndamp=35,noincfock,novaracc,vs
 hift=500,xqc)\\H6 C5\\0,1\C,0,-1.206512,0.69658,0.\C,0,-1.206512,-0.69
 658,0.\C,0,0.,-1.39316,0.\C,0,1.206512,-0.69658,0.\C,0,1.206512,0.6965
 8,0.\H,0,0.,2.482681,0.\H,0,-2.150065,1.24134,0.\H,0,-2.150065,-1.2413
 4,0.\H,0,0.,-2.482681,0.\H,0,2.150065,-1.24134,0.\H,0,2.150065,1.24134
 ,0.\\Version=EM64L-G16RevA.03\State=1-A1\HF=-196.6684823\S2=0.\S2-1=0.
 \S2A=0.\RMSD=7.413e-07\Dipole=0.,0.4562146,0.\Quadrupole=3.5770798,2.8
 123878,-6.3894676,0.,0.,0.\PG=C02V [C2(H1C1H1),SGV(C4H4)]\\@


 THERE ONCE WAS A GIRL NAMED IRENE,
 WHO LIVED ON DISTILLED KEROSENE,
      BUT SHE STARTED ABSORBIN'
      A NEW HYDROCARBON,
 AND SINCE THEN HAS NEVER BENZENE.
 Job cpu time:       0 days  0 hours  1 minutes  3.8 seconds.
 Elapsed time:       0 days  0 hours  0 minutes  4.3 seconds.
 File lengths (MBytes):  RWF=    272 Int=      0 D2E=      0 Chk=     32 Scr=     32
 Normal termination of Gaussian 16 at Thu Mar  5 12:49:02 2020.
