 Entering Gaussian System, Link 0=g16
 Input=a1b_tune_n1.gjf
 Output=a1b_tune_n1.log
 Initial command:
 /opt/ohpc/pub/libs/gaussian/g16-A.03/sandybridge/g16/l1.exe "/scratch/smgo234/Ocelot/test/a1b/tuning_a1b_acycle0/Gau-70693.inp" -scrdir="/scratch/smgo234/Ocelot/test/a1b/tuning_a1b_acycle0/"
 Entering Link 1 = /opt/ohpc/pub/libs/gaussian/g16-A.03/sandybridge/g16/l1.exe PID=     70694.
  
 Copyright (c) 1988,1990,1992,1993,1995,1998,2003,2009,2016,
            Gaussian, Inc.  All Rights Reserved.
  
 This is part of the Gaussian(R) 16 program.  It is based on
 the Gaussian(R) 09 system (copyright 2009, Gaussian, Inc.),
 the Gaussian(R) 03 system (copyright 2003, Gaussian, Inc.),
 the Gaussian(R) 98 system (copyright 1998, Gaussian, Inc.),
 the Gaussian(R) 94 system (copyright 1995, Gaussian, Inc.),
 the Gaussian 92(TM) system (copyright 1992, Gaussian, Inc.),
 the Gaussian 90(TM) system (copyright 1990, Gaussian, Inc.),
 the Gaussian 88(TM) system (copyright 1988, Gaussian, Inc.),
 the Gaussian 86(TM) system (copyright 1986, Carnegie Mellon
 University), and the Gaussian 82(TM) system (copyright 1983,
 Carnegie Mellon University). Gaussian is a federally registered
 trademark of Gaussian, Inc.
  
 This software contains proprietary and confidential information,
 including trade secrets, belonging to Gaussian, Inc.
  
 This software is provided under written license and may be
 used, copied, transmitted, or stored only in accord with that
 written license.
  
 The following legend is applicable only to US Government
 contracts under FAR:
  
                    RESTRICTED RIGHTS LEGEND
  
 Use, reproduction and disclosure by the US Government is
 subject to restrictions as set forth in subparagraphs (a)
 and (c) of the Commercial Computer Software - Restricted
 Rights clause in FAR 52.227-19.
  
 Gaussian, Inc.
 340 Quinnipiac St., Bldg. 40, Wallingford CT 06492
  
  
 ---------------------------------------------------------------
 Warning -- This program may not be used in any manner that
 competes with the business of Gaussian, Inc. or will provide
 assistance to any competitor of Gaussian, Inc.  The licensee
 of this program is prohibited from giving any competitor of
 Gaussian, Inc. access to this program.  By using this program,
 the user acknowledges that Gaussian, Inc. is engaged in the
 business of creating and licensing software in the field of
 computational chemistry and represents and warrants to the
 licensee that it is not a competitor of Gaussian, Inc. and that
 it will not use this program in any manner prohibited above.
 ---------------------------------------------------------------
  

 Cite this work as:
 Gaussian 16, Revision A.03,
 M. J. Frisch, G. W. Trucks, H. B. Schlegel, G. E. Scuseria, 
 M. A. Robb, J. R. Cheeseman, G. Scalmani, V. Barone, 
 G. A. Petersson, H. Nakatsuji, X. Li, M. Caricato, A. V. Marenich, 
 J. Bloino, B. G. Janesko, R. Gomperts, B. Mennucci, H. P. Hratchian, 
 J. V. Ortiz, A. F. Izmaylov, J. L. Sonnenberg, D. Williams-Young, 
 F. Ding, F. Lipparini, F. Egidi, J. Goings, B. Peng, A. Petrone, 
 T. Henderson, D. Ranasinghe, V. G. Zakrzewski, J. Gao, N. Rega, 
 G. Zheng, W. Liang, M. Hada, M. Ehara, K. Toyota, R. Fukuda, 
 J. Hasegawa, M. Ishida, T. Nakajima, Y. Honda, O. Kitao, H. Nakai, 
 T. Vreven, K. Throssell, J. A. Montgomery, Jr., J. E. Peralta, 
 F. Ogliaro, M. J. Bearpark, J. J. Heyd, E. N. Brothers, K. N. Kudin, 
 V. N. Staroverov, T. A. Keith, R. Kobayashi, J. Normand, 
 K. Raghavachari, A. P. Rendell, J. C. Burant, S. S. Iyengar, 
 J. Tomasi, M. Cossi, J. M. Millam, M. Klene, C. Adamo, R. Cammi, 
 J. W. Ochterski, R. L. Martin, K. Morokuma, O. Farkas, 
 J. B. Foresman, and D. J. Fox, Gaussian, Inc., Wallingford CT, 2016.
 
 ******************************************
 Gaussian 16:  EM64L-G16RevA.03 25-Dec-2016
                 5-Mar-2020 
 ******************************************
 %mem=50GB
 %nproc=16
 Will use up to   16 processors via shared memory.
 ----------------------------------------------------------------------
 #P uLC-wHPBE/6-31G iop(3/130=0328100000, 3/131=0328100000, 3/119=06719
 00000, 3/120=0671900000) scf=(conver=6,fermi,ndamp=35,noincfock,novara
 cc,vshift=500,xqc)
 ----------------------------------------------------------------------
 1/38=1,172=1/1;
 2/12=2,17=6,18=5,40=1/2;
 3/5=1,6=6,11=2,25=1,30=1,74=-71,116=2,119=671900000,120=671900000,130=328100000,131=328100000/1,2,3;
 4//1;
 5/5=100002,6=6,8=3,10=500,13=1,18=-1,22=13,38=1,93=35/2,8;
 6/7=2,8=2,9=2,10=2,28=1/1;
 99/5=1,9=1/99;
 Leave Link    1 at Thu Mar  5 12:42:12 2020, MaxMem=  6710886400 cpu:              14.8 elap:               1.0
 (Enter /opt/ohpc/pub/libs/gaussian/g16-A.03/sandybridge/g16/l101.exe)
 -----
 H6 C5
 -----
 Symbolic Z-matrix:
 Charge =  0 Multiplicity = 1
 C                    -1.20651   0.69658   0. 
 C                    -1.20651  -0.69658   0. 
 C                     0.       -1.39316   0. 
 C                     1.20651  -0.69658   0. 
 C                     1.20651   0.69658   0. 
 H                     0.        2.48268   0. 
 H                    -2.15007   1.24134   0. 
 H                    -2.15007  -1.24134   0. 
 H                     0.       -2.48268   0. 
 H                     2.15007  -1.24134   0. 
 H                     2.15007   1.24134   0. 
 
 ITRead=  0  0  0  0  0  0  0  0  0  0  0
 MicOpt= -1 -1 -1 -1 -1 -1 -1 -1 -1 -1 -1
 NAtoms=     11 NQM=       11 NQMF=       0 NMMI=      0 NMMIF=      0
                NMic=       0 NMicF=      0.
                    Isotopes and Nuclear Properties:
 (Nuclear quadrupole moments (NQMom) in fm**2, nuclear magnetic moments (NMagM)
  in nuclear magnetons)

  Atom         1           2           3           4           5           6           7           8           9          10
 IAtWgt=          12          12          12          12          12           1           1           1           1           1
 AtmWgt=  12.0000000  12.0000000  12.0000000  12.0000000  12.0000000   1.0078250   1.0078250   1.0078250   1.0078250   1.0078250
 NucSpn=           0           0           0           0           0           1           1           1           1           1
 AtZEff=  -0.0000000  -0.0000000  -0.0000000  -0.0000000  -0.0000000  -0.0000000  -0.0000000  -0.0000000  -0.0000000  -0.0000000
 NQMom=    0.0000000   0.0000000   0.0000000   0.0000000   0.0000000   0.0000000   0.0000000   0.0000000   0.0000000   0.0000000
 NMagM=    0.0000000   0.0000000   0.0000000   0.0000000   0.0000000   2.7928460   2.7928460   2.7928460   2.7928460   2.7928460
 AtZNuc=   6.0000000   6.0000000   6.0000000   6.0000000   6.0000000   1.0000000   1.0000000   1.0000000   1.0000000   1.0000000

  Atom        11
 IAtWgt=           1
 AtmWgt=   1.0078250
 NucSpn=           1
 AtZEff=  -0.0000000
 NQMom=    0.0000000
 NMagM=    2.7928460
 AtZNuc=   1.0000000
 Leave Link  101 at Thu Mar  5 12:42:12 2020, MaxMem=  6710886400 cpu:               5.3 elap:               0.4
 (Enter /opt/ohpc/pub/libs/gaussian/g16-A.03/sandybridge/g16/l202.exe)
                          Input orientation:                          
 ---------------------------------------------------------------------
 Center     Atomic      Atomic             Coordinates (Angstroms)
 Number     Number       Type             X           Y           Z
 ---------------------------------------------------------------------
      1          6           0       -1.206512    0.696580    0.000000
      2          6           0       -1.206512   -0.696580    0.000000
      3          6           0        0.000000   -1.393160    0.000000
      4          6           0        1.206512   -0.696580    0.000000
      5          6           0        1.206512    0.696580    0.000000
      6          1           0        0.000000    2.482681    0.000000
      7          1           0       -2.150065    1.241340    0.000000
      8          1           0       -2.150065   -1.241340    0.000000
      9          1           0        0.000000   -2.482681    0.000000
     10          1           0        2.150065   -1.241340    0.000000
     11          1           0        2.150065    1.241340    0.000000
 ---------------------------------------------------------------------
                    Distance matrix (angstroms):
                    1          2          3          4          5
     1  C    0.000000
     2  C    1.393160   0.000000
     3  C    2.413024   1.393160   0.000000
     4  C    2.786320   2.413024   1.393160   0.000000
     5  C    2.413024   2.786320   2.413024   1.393160   0.000000
     6  H    2.155418   3.400496   3.875841   3.400496   2.155418
     7  H    1.089521   2.155418   3.400496   3.875841   3.400496
     8  H    2.155418   1.089521   2.155418   3.400496   3.875841
     9  H    3.400496   2.155418   1.089521   2.155418   3.400496
    10  H    3.875841   3.400496   2.155418   1.089521   2.155418
    11  H    3.400496   3.875841   3.400496   2.155418   1.089521
                    6          7          8          9         10
     6  H    0.000000
     7  H    2.482681   0.000000
     8  H    4.300129   2.482680   0.000000
     9  H    4.965362   4.300129   2.482681   0.000000
    10  H    4.300129   4.965362   4.300130   2.482681   0.000000
    11  H    2.482681   4.300130   4.965362   4.300129   2.482680
                   11
    11  H    0.000000
 Stoichiometry    C5H6
 Framework group  C2V[C2(HCH),SGV(C4H4)]
 Deg. of freedom    10
 Full point group                 C2V     NOp   4
 Largest Abelian subgroup         C2V     NOp   4
 Largest concise Abelian subgroup C2      NOp   2
                         Standard orientation:                         
 ---------------------------------------------------------------------
 Center     Atomic      Atomic             Coordinates (Angstroms)
 Number     Number       Type             X           Y           Z
 ---------------------------------------------------------------------
      1          6           0       -0.000000    1.206512   -0.928773
      2          6           0       -0.000000    1.206512    0.464387
      3          6           0        0.000000    0.000000    1.160967
      4          6           0       -0.000000   -1.206512    0.464387
      5          6           0       -0.000000   -1.206512   -0.928773
      6          1           0       -0.000000   -0.000000   -2.714874
      7          1           0       -0.000000    2.150065   -1.473533
      8          1           0       -0.000000    2.150065    1.009147
      9          1           0        0.000000    0.000000    2.250488
     10          1           0       -0.000000   -2.150065    1.009147
     11          1           0       -0.000000   -2.150065   -1.473533
 ---------------------------------------------------------------------
 Rotational constants (GHZ):           8.2868568           5.7099792           3.3806054
 Leave Link  202 at Thu Mar  5 12:42:12 2020, MaxMem=  6710886400 cpu:               0.2 elap:               0.0
 (Enter /opt/ohpc/pub/libs/gaussian/g16-A.03/sandybridge/g16/l301.exe)
 Standard basis: 6-31G (6D, 7F)
 Ernie: Thresh=  0.10000D-02 Tol=  0.10000D-05 Strict=F.
 There are    27 symmetry adapted cartesian basis functions of A1  symmetry.
 There are     4 symmetry adapted cartesian basis functions of A2  symmetry.
 There are     6 symmetry adapted cartesian basis functions of B1  symmetry.
 There are    20 symmetry adapted cartesian basis functions of B2  symmetry.
 There are    27 symmetry adapted basis functions of A1  symmetry.
 There are     4 symmetry adapted basis functions of A2  symmetry.
 There are     6 symmetry adapted basis functions of B1  symmetry.
 There are    20 symmetry adapted basis functions of B2  symmetry.
    57 basis functions,   134 primitive gaussians,    57 cartesian basis functions
    18 alpha electrons       18 beta electrons
       nuclear repulsion energy       145.0218997931 Hartrees.
 IExCor=33909 DFT=T Ex+Corr=LC-wHPBE ExCW=0 ScaHFX=  1.000000
 ScaDFX=  1.000000  1.000000  1.000000  1.000000 ScalE2=  1.000000  1.000000
 IRadAn=      5 IRanWt=     -1 IRanGd=            0 ICorTp=0 IEmpDi=  4
 HFx  wShort=  0.000000 wLong=  0.400000 cFull=  0.000000 cShort=  0.000000 cLong=  0.671900
 DFx  wShort=  0.000000 wLong=  0.400000 cFull=  0.000000 cShort=  1.000000 cLong=  0.671900
 NAtoms=   11 NActive=   11 NUniq=    7 SFac= 2.47D+00 NAtFMM=   60 NAOKFM=F Big=F
 Integral buffers will be    131072 words long.
 Raffenetti 2 integral format.
 Two-electron integral symmetry is turned on.
 Leave Link  301 at Thu Mar  5 12:42:12 2020, MaxMem=  6710886400 cpu:               0.9 elap:               0.1
 (Enter /opt/ohpc/pub/libs/gaussian/g16-A.03/sandybridge/g16/l302.exe)
 NPDir=0 NMtPBC=     1 NCelOv=     1 NCel=       1 NClECP=     1 NCelD=      1
         NCelK=      1 NCelE2=     1 NClLst=     1 CellRange=     0.0.
 One-electron integrals computed using PRISM.
 One-electron integral symmetry used in STVInt
 NBasis=    57 RedAO= T EigKep=  2.88D-03  NBF=    27     4     6    20
 NBsUse=    57 1.00D-06 EigRej= -1.00D+00 NBFU=    27     4     6    20
 Precomputing XC quadrature grid using
 IXCGrd= 4 IRadAn=           5 IRanWt=          -1 IRanGd=           0 AccXCQ= 0.00D+00.
 Generated NRdTot=       0 NPtTot=           0 NUsed=           0 NTot=          32
 NSgBfM=    57    57    57    57    57 MxSgAt=    11 MxSgA2=    11.
 Leave Link  302 at Thu Mar  5 12:42:13 2020, MaxMem=  6710886400 cpu:               2.3 elap:               0.2
 (Enter /opt/ohpc/pub/libs/gaussian/g16-A.03/sandybridge/g16/l303.exe)
 DipDrv:  MaxL=1.
 Leave Link  303 at Thu Mar  5 12:42:13 2020, MaxMem=  6710886400 cpu:               0.8 elap:               0.1
 (Enter /opt/ohpc/pub/libs/gaussian/g16-A.03/sandybridge/g16/l401.exe)
 ExpMin= 1.61D-01 ExpMax= 3.05D+03 ExpMxC= 4.57D+02 IAcc=3 IRadAn=         5 AccDes= 0.00D+00
 Harris functional with IExCor=33909 and IRadAn=       5 diagonalized for initial guess.
 HarFok:  IExCor=33909 AccDes= 0.00D+00 IRadAn=         5 IDoV= 1 UseB2=F ITyADJ=14
 ICtDFT=  3500011 ScaDFX=  1.000000  1.000000  1.000000  1.000000
 FoFCou: FMM=F IPFlag=           0 FMFlag=      100000 FMFlg1=           0
         NFxFlg=           0 DoJE=T BraDBF=F KetDBF=T FulRan=T
         wScrn=  0.000000 ICntrl=       500 IOpCl=  0 I1Cent=   200000004 NGrid=           0
         NMat0=    1 NMatS0=      1 NMatT0=    0 NMatD0=    1 NMtDS0=    0 NMtDT0=    0
 Petite list used in FoFCou.
 Harris En= -191.335481328807    
 JPrj=0 DoOrth=F DoCkMO=F.
 Initial guess orbital symmetries:
 Alpha Orbitals:
       Occupied  (A1) (B2) (A1) (B2) (A1) (A1) (B2) (A1) (B2) (A1)
                 (A1) (B2) (B2) (A1) (B1) (A1) (A2) (B1)
       Virtual   (B2) (A1) (A2) (B1) (A1) (B2) (A1) (B2) (A1) (A1)
                 (B2) (A1) (B2) (B1) (B2) (A1) (B1) (A2) (A1) (B2)
                 (A1) (A2) (B1) (B2) (A1) (A1) (B2) (A1) (B2) (A1)
                 (A1) (B2) (A1) (A1) (B2) (B2) (A1) (A1) (B2)
 Beta  Orbitals:
       Occupied  (A1) (B2) (A1) (B2) (A1) (A1) (B2) (A1) (B2) (A1)
                 (A1) (B2) (B2) (A1) (B1) (A1) (A2) (B1)
       Virtual   (B2) (A1) (A2) (B1) (A1) (B2) (A1) (B2) (A1) (A1)
                 (B2) (A1) (B2) (B1) (B2) (A1) (B1) (A2) (A1) (B2)
                 (A1) (A2) (B1) (B2) (A1) (A1) (B2) (A1) (B2) (A1)
                 (A1) (B2) (A1) (A1) (B2) (B2) (A1) (A1) (B2)
 The electronic state of the initial guess is 1-A1.
 Initial guess <Sx>= 0.0000 <Sy>= 0.0000 <Sz>= 0.0000 <S**2>=-0.0000 S=-0.0000
 Leave Link  401 at Thu Mar  5 12:42:13 2020, MaxMem=  6710886400 cpu:               3.4 elap:               0.2
 (Enter /opt/ohpc/pub/libs/gaussian/g16-A.03/sandybridge/g16/l502.exe)
 Keep R1 and R2 ints in memory in symmetry-blocked form, NReq=16815659.
 FoFCou: FMM=F IPFlag=           0 FMFlag=           0 FMFlg1=           0
         NFxFlg=           0 DoJE=F BraDBF=F KetDBF=F FulRan=T
         wScrn=  0.000000 ICntrl=       600 IOpCl=  0 I1Cent=           0 NGrid=           0
         NMat0=    1 NMatS0=   1653 NMatT0=    0 NMatD0=    1 NMtDS0=    0 NMtDT0=    0
 Petite list used in FoFCou.
 UHF open shell SCF:
 Using DIIS extrapolation, IDIIS=    10.
 NGot=  6710886400 LenX=  6710059583 LenY=  6710055893
 Requested convergence on RMS density matrix=1.00D-06 within  32 cycles.
 Requested convergence on MAX density matrix=1.00D-04.
 Requested convergence on             energy=1.00D-04.
 Virtual orbitals will be shifted by   0.500 hartree.
 No special actions if energy rises.
 Dynamic level shift is on during FON iterations.

 Cycle   1  Pass 1  IDiag  1:
 E= -195.743918704590    
 DIIS: error= 4.74D-02 at cycle   1 NSaved=   1.
 NSaved= 1 IEnMin= 1 EnMin= -195.743918704590     IErMin= 1 ErrMin= 4.74D-02
 ErrMax= 4.74D-02  0.00D+00 EMaxC= 1.00D+00 BMatC= 4.76D-01 BMatP= 4.76D-01
 IDIUse=1 WtCom= 1.00D+00 WtEn= 0.00D+00
 Coeff-Com:  0.100D+01
 Coeff:      0.100D+01
 Gap=     0.083 Goal=   None    Shift=    0.500
 T= 1770. Gap= 0.526 NK=0 IS=   19 IE=   57 IFin=   18
          NO(<0.9)=   0  NV(>0.1)=   0     18.00e < EF      0.00e >EF  Err=0.0D+00
 Gap=     0.083 Goal=   None    Shift=    0.500
 T= 1770. Gap= 0.526 NK=0 IS=   19 IE=   57 IFin=   18
          NO(<0.9)=   0  NV(>0.1)=   0     18.00e < EF      0.00e >EF  Err=0.0D+00
 GapD=    0.083 DampG=0.500 DampE=0.500 DampFc=0.2500 IDamp=-1.
 Damping current iteration by 2.50D-01
 RMSDP=2.23D-02 MaxDP=4.75D-01              OVMax= 1.42D-01

 Cycle   2  Pass 1  IDiag  1:
 E= -195.815185770730     Delta-E=       -0.071267066140 Rises=F Damp=T
 DIIS: error= 2.36D-02 at cycle   2 NSaved=   2.
 NSaved= 2 IEnMin= 2 EnMin= -195.815185770730     IErMin= 2 ErrMin= 2.36D-02
 ErrMax= 2.36D-02  0.00D+00 EMaxC= 1.00D+00 BMatC= 1.27D-01 BMatP= 4.76D-01
 IDIUse=1 WtCom= 1.00D+00 WtEn= 0.00D+00
 Coeff-Com: -0.929D+00 0.193D+01
 Coeff:     -0.929D+00 0.193D+01
 Gap=     0.000 Goal=   None    Shift=    0.500
 T= 1660. Gap= 0.448 NK=0 IS=   19 IE=   57 IFin=   18
          NO(<0.9)=   0  NV(>0.1)=   0     18.00e < EF      0.00e >EF  Err=0.0D+00
 Gap=     0.000 Goal=   None    Shift=    0.500
 T= 1660. Gap= 0.448 NK=0 IS=   19 IE=   57 IFin=   18
          NO(<0.9)=   0  NV(>0.1)=   0     18.00e < EF      0.00e >EF  Err=0.0D+00
 GapD=    0.000 DampG=0.250 DampE=0.500 DampFc=0.1250 IDamp=-1.
 Damping current iteration by 1.25D-01
 RMSDP=1.66D-02 MaxDP=4.10D-01 DE=-7.13D-02 OVMax= 3.19D-02

 Cycle   3  Pass 1  IDiag  1:
 E= -195.824941360111     Delta-E=       -0.009755589381 Rises=F Damp=T
 DIIS: error= 1.75D-02 at cycle   3 NSaved=   3.
 NSaved= 3 IEnMin= 3 EnMin= -195.824941360111     IErMin= 3 ErrMin= 1.75D-02
 ErrMax= 1.75D-02  0.00D+00 EMaxC= 1.00D+00 BMatC= 6.99D-02 BMatP= 1.27D-01
 IDIUse=1 WtCom= 1.00D+00 WtEn= 0.00D+00
 Coeff-Com:  0.686D+00-0.545D+01 0.576D+01
 Coeff:      0.686D+00-0.545D+01 0.576D+01
 Gap=     0.086 Goal=   None    Shift=    0.500
 T= 1485. Gap= 0.582 NK=0 IS=   19 IE=   57 IFin=   18
          NO(<0.9)=   0  NV(>0.1)=   0     18.00e < EF      0.00e >EF  Err=0.0D+00
 Gap=     0.086 Goal=   None    Shift=    0.500
 T= 1485. Gap= 0.582 NK=0 IS=   19 IE=   57 IFin=   18
          NO(<0.9)=   0  NV(>0.1)=   0     18.00e < EF      0.00e >EF  Err=0.0D+00
 GapD=    0.086 DampG=0.500 DampE=0.500 DampFc=0.2500 IDamp=-1.
 Damping current iteration by 2.50D-01
 RMSDP=7.82D-03 MaxDP=1.66D-01 DE=-9.76D-03 OVMax= 4.63D-02

 Cycle   4  Pass 1  IDiag  1:
 E= -195.834737004497     Delta-E=       -0.009795644385 Rises=F Damp=T
 DIIS: error= 1.76D-02 at cycle   4 NSaved=   4.
 NSaved= 4 IEnMin= 4 EnMin= -195.834737004497     IErMin= 3 ErrMin= 1.75D-02
 ErrMax= 1.76D-02  0.00D+00 EMaxC= 1.00D+00 BMatC= 6.44D-02 BMatP= 6.99D-02
 IDIUse=1 WtCom= 1.00D+00 WtEn= 0.00D+00
 Coeff-Com: -0.187D-01-0.246D+01 0.204D+01 0.144D+01
 Coeff:     -0.187D-01-0.246D+01 0.204D+01 0.144D+01
 Gap=     0.053 Goal=   None    Shift=    0.500
 T= 1239. Gap= 0.551 NK=0 IS=   19 IE=   57 IFin=   18
          NO(<0.9)=   0  NV(>0.1)=   0     18.00e < EF      0.00e >EF  Err=0.0D+00
 Gap=     0.053 Goal=   None    Shift=    0.500
 T= 1239. Gap= 0.551 NK=0 IS=   19 IE=   57 IFin=   18
          NO(<0.9)=   0  NV(>0.1)=   0     18.00e < EF      0.00e >EF  Err=0.0D+00
 GapD=    0.053 DampG=0.500 DampE=0.500 DampFc=0.2500 IDamp=-1.
 Damping current iteration by 2.50D-01
 RMSDP=5.88D-03 MaxDP=1.23D-01 DE=-9.80D-03 OVMax= 1.41D-02

 Cycle   5  Pass 1  IDiag  1:
 E= -195.841544276248     Delta-E=       -0.006807271751 Rises=F Damp=T
 DIIS: error= 2.25D-02 at cycle   5 NSaved=   5.
 NSaved= 5 IEnMin= 5 EnMin= -195.841544276248     IErMin= 3 ErrMin= 1.75D-02
 ErrMax= 2.25D-02  0.00D+00 EMaxC= 1.00D+00 BMatC= 6.69D-02 BMatP= 6.44D-02
 IDIUse=1 WtCom= 1.00D+00 WtEn= 0.00D+00
 Coeff-Com: -0.979D-01-0.214D+01 0.309D+01-0.207D+01 0.222D+01
 Coeff:     -0.979D-01-0.214D+01 0.309D+01-0.207D+01 0.222D+01
 Gap=     0.052 Goal=   None    Shift=    0.500
 T= 1228. Gap= 0.552 NK=0 IS=   19 IE=   57 IFin=   18
          NO(<0.9)=   0  NV(>0.1)=   0     18.00e < EF      0.00e >EF  Err=0.0D+00
 Gap=     0.052 Goal=   None    Shift=    0.500
 T= 1228. Gap= 0.552 NK=0 IS=   19 IE=   57 IFin=   18
          NO(<0.9)=   0  NV(>0.1)=   0     18.00e < EF      0.00e >EF  Err=0.0D+00
 GapD=    0.052 DampG=0.500 DampE=0.500 DampFc=0.2500 IDamp=-1.
 Damping current iteration by 2.50D-01
 RMSDP=4.50D-03 MaxDP=8.83D-02 DE=-6.81D-03 OVMax= 1.60D-02

 Cycle   6  Pass 1  IDiag  1:
 E= -195.847778991561     Delta-E=       -0.006234715313 Rises=F Damp=T
 DIIS: error= 2.61D-02 at cycle   6 NSaved=   6.
 NSaved= 6 IEnMin= 6 EnMin= -195.847778991561     IErMin= 3 ErrMin= 1.75D-02
 ErrMax= 2.61D-02  0.00D+00 EMaxC= 1.00D+00 BMatC= 6.99D-02 BMatP= 6.44D-02
 IDIUse=1 WtCom= 1.00D+00 WtEn= 0.00D+00
 Large coefficients: NSaved=  6 BigCof=   20.77 CofMax=   10.00 Det=-6.53D-07
 Inversion failed.  Reducing to  5 matrices.
 Large coefficients: NSaved=  5 BigCof=   20.39 CofMax=   10.00 Det=-7.59D-07
 Inversion failed.  Reducing to  4 matrices.
 Large coefficients: NSaved=  4 BigCof=  121.96 CofMax=   10.00 Det=-2.83D-06
 Inversion failed.  Reducing to  3 matrices.
 Large coefficients: NSaved=  3 BigCof=   54.88 CofMax=   10.00 Det=-7.00D-06
 Inversion failed.  Reducing to  2 matrices.
 Coeff-Com:  0.195D+01-0.954D+00
 Coeff:      0.195D+01-0.954D+00
 Gap=     0.012 Goal=   None    Shift=    0.500
 T= 1228. Gap= 0.500 NK=0 IS=   19 IE=   57 IFin=   18
          NO(<0.9)=   0  NV(>0.1)=   0     18.00e < EF      0.00e >EF  Err=0.0D+00
 Gap=     0.012 Goal=   None    Shift=    0.500
 T= 1228. Gap= 0.500 NK=0 IS=   19 IE=   57 IFin=   18
          NO(<0.9)=   0  NV(>0.1)=   0     18.00e < EF      0.00e >EF  Err=0.0D+00
 GapD=    0.012 DampG=0.250 DampE=0.500 DampFc=0.1250 IDamp=-1.
 Damping current iteration by 1.25D-01
 RMSDP=1.84D-02 MaxDP=4.40D-01 DE=-6.23D-03 OVMax= 4.17D-02

 Cycle   7  Pass 1  IDiag  1:
 E= -195.854037388843     Delta-E=       -0.006258397283 Rises=F Damp=T
 DIIS: error= 1.58D-02 at cycle   7 NSaved=   3.
 NSaved= 3 IEnMin= 3 EnMin= -195.854037388843     IErMin= 3 ErrMin= 1.58D-02
 ErrMax= 1.58D-02  0.00D+00 EMaxC= 1.00D+00 BMatC= 2.64D-02 BMatP= 6.69D-02
 IDIUse=1 WtCom= 1.00D+00 WtEn= 0.00D+00
 Coeff-Com: -0.775D+00-0.840D+00 0.261D+01
 Coeff:     -0.775D+00-0.840D+00 0.261D+01
 Gap=     0.041 Goal=   None    Shift=    0.500
 T= 1200. Gap= 0.544 NK=0 IS=   19 IE=   57 IFin=   18
          NO(<0.9)=   0  NV(>0.1)=   0     18.00e < EF      0.00e >EF  Err=0.0D+00
 Gap=     0.041 Goal=   None    Shift=    0.500
 T= 1200. Gap= 0.544 NK=0 IS=   19 IE=   57 IFin=   18
          NO(<0.9)=   0  NV(>0.1)=   0     18.00e < EF      0.00e >EF  Err=0.0D+00
 GapD=    0.041 DampG=0.250 DampE=0.500 DampFc=0.1250 IDamp=-1.
 Damping current iteration by 1.25D-01
 RMSDP=6.75D-03 MaxDP=6.13D-02 DE=-6.26D-03 OVMax= 5.15D-02

 Cycle   8  Pass 1  IDiag  1:
 E= -195.860064518543     Delta-E=       -0.006027129700 Rises=F Damp=T
 DIIS: error= 1.54D-02 at cycle   8 NSaved=   4.
 NSaved= 4 IEnMin= 4 EnMin= -195.860064518543     IErMin= 4 ErrMin= 1.54D-02
 ErrMax= 1.54D-02  0.00D+00 EMaxC= 1.00D+00 BMatC= 2.38D-02 BMatP= 2.64D-02
 IDIUse=1 WtCom= 1.00D+00 WtEn= 0.00D+00
 Coeff-Com: -0.659D-01-0.134D+01 0.381D+00 0.203D+01
 Coeff:     -0.659D-01-0.134D+01 0.381D+00 0.203D+01
 Gap=     0.058 Goal=   None    Shift=    0.500
 T=  900. Gap= 0.559 NK=0 IS=   19 IE=   57 IFin=   18
          NO(<0.9)=   0  NV(>0.1)=   0     18.00e < EF      0.00e >EF  Err=0.0D+00
 Gap=     0.058 Goal=   None    Shift=    0.500
 T=  900. Gap= 0.559 NK=0 IS=   19 IE=   57 IFin=   18
          NO(<0.9)=   0  NV(>0.1)=   0     18.00e < EF      0.00e >EF  Err=0.0D+00
 GapD=    0.058 DampG=0.500 DampE=0.500 DampFc=0.2500 IDamp=-1.
 Damping current iteration by 2.50D-01
 RMSDP=5.62D-03 MaxDP=6.45D-02 DE=-6.03D-03 OVMax= 2.62D-02

 Cycle   9  Pass 1  IDiag  1:
 E= -195.871580800205     Delta-E=       -0.011516281662 Rises=F Damp=T
 DIIS: error= 1.59D-02 at cycle   9 NSaved=   5.
 NSaved= 5 IEnMin= 5 EnMin= -195.871580800205     IErMin= 4 ErrMin= 1.54D-02
 ErrMax= 1.59D-02  0.00D+00 EMaxC= 1.00D+00 BMatC= 2.34D-02 BMatP= 2.38D-02
 IDIUse=1 WtCom= 1.00D+00 WtEn= 0.00D+00
 Large coefficients: NSaved=  5 BigCof=   18.42 CofMax=   10.00 Det=-6.91D-07
 Inversion failed.  Reducing to  4 matrices.
 Large coefficients: NSaved=  4 BigCof=   13.98 CofMax=   10.00 Det=-8.54D-07
 Inversion failed.  Reducing to  3 matrices.
 Large coefficients: NSaved=  3 BigCof=   35.91 CofMax=   10.00 Det=-1.52D-05
 Inversion failed.  Reducing to  2 matrices.
 Coeff-Com: -0.162D+00 0.116D+01
 Coeff:     -0.162D+00 0.116D+01
 Gap=     0.035 Goal=   None    Shift=    0.500
 T=  600. Gap= 0.533 NK=0 IS=   19 IE=   57 IFin=   18
          NO(<0.9)=   0  NV(>0.1)=   0     18.00e < EF      0.00e >EF  Err=0.0D+00
 Gap=     0.035 Goal=   None    Shift=    0.500
 T=  600. Gap= 0.533 NK=0 IS=   19 IE=   57 IFin=   18
          NO(<0.9)=   0  NV(>0.1)=   0     18.00e < EF      0.00e >EF  Err=0.0D+00
 GapD=    0.035 DampG=0.250 DampE=0.500 DampFc=0.1250 IDamp=-1.
 Damping current iteration by 1.25D-01
 RMSDP=5.04D-03 MaxDP=4.48D-02 DE=-1.15D-02 OVMax= 2.72D-02

 Cycle  10  Pass 1  IDiag  1:
 E= -195.877392543394     Delta-E=       -0.005811743189 Rises=F Damp=T
 DIIS: error= 1.54D-02 at cycle  10 NSaved=   3.
 NSaved= 3 IEnMin= 3 EnMin= -195.877392543394     IErMin= 3 ErrMin= 1.54D-02
 ErrMax= 1.54D-02  0.00D+00 EMaxC= 1.00D+00 BMatC= 1.92D-02 BMatP= 2.34D-02
 IDIUse=1 WtCom= 1.00D+00 WtEn= 0.00D+00
 Large coefficients: NSaved=  3 BigCof=   10.84 CofMax=   10.00 Det=-9.23D-05
 Inversion failed.  Reducing to  2 matrices.
 Coeff-Com: -0.672D+01 0.772D+01
 Coeff:     -0.672D+01 0.772D+01
 Gap=     0.091 Goal=   None    Shift=    0.500
 T=  300. Gap= 0.592 NK=0 IS=   19 IE=   57 IFin=   18
          NO(<0.9)=   0  NV(>0.1)=   0     18.00e < EF      0.00e >EF  Err=0.0D+00
 Gap=     0.091 Goal=   None    Shift=    0.500
 T=  300. Gap= 0.592 NK=0 IS=   19 IE=   57 IFin=   18
          NO(<0.9)=   0  NV(>0.1)=   0     18.00e < EF      0.00e >EF  Err=0.0D+00
 GapD=    0.091 DampG=0.500 DampE=0.500 DampFc=0.2500 IDamp=-1.
 Damping current iteration by 2.50D-01
 RMSDP=5.09D-03 MaxDP=3.12D-02 DE=-5.81D-03 OVMax= 2.99D-02

 Cycle  11  Pass 1  IDiag  1:
 E= -195.889066630951     Delta-E=       -0.011674087557 Rises=F Damp=T
 DIIS: error= 1.30D-02 at cycle  11 NSaved=   3.
 NSaved= 3 IEnMin= 3 EnMin= -195.889066630951     IErMin= 3 ErrMin= 1.30D-02
 ErrMax= 1.30D-02  0.00D+00 EMaxC= 1.00D+00 BMatC= 1.17D-02 BMatP= 1.92D-02
 IDIUse=1 WtCom= 1.00D+00 WtEn= 0.00D+00
 Coeff-Com:  0.326D+01-0.797D+01 0.571D+01
 Coeff:      0.326D+01-0.797D+01 0.571D+01
 Gap=     0.117 Goal=   None    Shift=    0.500
 Gap=     0.117 Goal=   None    Shift=    0.500
 GapD=    0.117 DampG=1.000 DampE=0.500 DampFc=0.5000 IDamp=-1.
 Damping current iteration by 5.00D-01
 RMSDP=3.91D-03 MaxDP=2.35D-02 DE=-1.17D-02 OVMax= 1.28D-02

 Cycle  12  Pass 1  IDiag  1:
 E= -195.909562794372     Delta-E=       -0.020496163420 Rises=F Damp=T
 DIIS: error= 8.30D-03 at cycle  12 NSaved=   4.
 NSaved= 4 IEnMin= 4 EnMin= -195.909562794372     IErMin= 4 ErrMin= 8.30D-03
 ErrMax= 8.30D-03  0.00D+00 EMaxC= 1.00D+00 BMatC= 3.74D-03 BMatP= 1.17D-02
 IDIUse=1 WtCom= 1.00D+00 WtEn= 0.00D+00
 Coeff-Com:  0.181D+01-0.190D+01-0.158D+01 0.267D+01
 Coeff:      0.181D+01-0.190D+01-0.158D+01 0.267D+01
 Gap=     0.124 Goal=   None    Shift=    0.500
 Gap=     0.124 Goal=   None    Shift=    0.500
 GapD=    0.124 DampG=1.000 DampE=1.000 DampFc=1.0000 IDamp=-1.
 RMSDP=2.00D-03 MaxDP=1.29D-02 DE=-2.05D-02 OVMax= 8.36D-03

 Cycle  13  Pass 1  IDiag  1:
 E= -195.933992930755     Delta-E=       -0.024430136384 Rises=F Damp=F
 DIIS: error= 1.96D-03 at cycle  13 NSaved=   5.
 NSaved= 5 IEnMin= 5 EnMin= -195.933992930755     IErMin= 5 ErrMin= 1.96D-03
 ErrMax= 1.96D-03  0.00D+00 EMaxC= 1.00D+00 BMatC= 1.38D-04 BMatP= 3.74D-03
 IDIUse=1 WtCom= 1.00D+00 WtEn= 0.00D+00
 Coeff-Com: -0.605D+00 0.216D+01-0.197D+01-0.739D-01 0.149D+01
 Coeff:     -0.605D+00 0.216D+01-0.197D+01-0.739D-01 0.149D+01
 Gap=     0.125 Goal=   None    Shift=    0.500
 Gap=     0.125 Goal=   None    Shift=    0.500
 GapD=    0.125 DampG=1.000 DampE=1.000 DampFc=1.0000 IDamp=-1.
 RMSDP=1.93D-04 MaxDP=3.60D-03 DE=-2.44D-02 OVMax= 6.06D-03

 Cycle  14  Pass 1  IDiag  1:
 E= -195.934120851375     Delta-E=       -0.000127920620 Rises=F Damp=F
 DIIS: error= 1.07D-03 at cycle  14 NSaved=   6.
 NSaved= 6 IEnMin= 6 EnMin= -195.934120851375     IErMin= 6 ErrMin= 1.07D-03
 ErrMax= 1.07D-03  0.00D+00 EMaxC= 1.00D+00 BMatC= 3.80D-05 BMatP= 1.38D-04
 IDIUse=1 WtCom= 1.00D+00 WtEn= 0.00D+00
 Coeff-Com: -0.232D+00 0.601D+00-0.449D+00-0.511D-02-0.642D+00 0.173D+01
 Coeff:     -0.232D+00 0.601D+00-0.449D+00-0.511D-02-0.642D+00 0.173D+01
 Gap=     0.125 Goal=   None    Shift=    0.500
 Gap=     0.125 Goal=   None    Shift=    0.500
 GapD=    0.125 DampG=1.000 DampE=1.000 DampFc=1.0000 IDamp=-1.
 RMSDP=1.10D-04 MaxDP=1.93D-03 DE=-1.28D-04 OVMax= 3.00D-03

 Cycle  15  Pass 1  IDiag  1:
 E= -195.934154117116     Delta-E=       -0.000033265741 Rises=F Damp=F
 DIIS: error= 6.52D-04 at cycle  15 NSaved=   7.
 NSaved= 7 IEnMin= 7 EnMin= -195.934154117116     IErMin= 7 ErrMin= 6.52D-04
 ErrMax= 6.52D-04  0.00D+00 EMaxC= 1.00D+00 BMatC= 1.34D-05 BMatP= 3.80D-05
 IDIUse=1 WtCom= 1.00D+00 WtEn= 0.00D+00
 Coeff-Com:  0.266D-01-0.911D-01 0.530D-01 0.389D-01-0.357D+00-0.194D+00
 Coeff-Com:  0.152D+01
 Coeff:      0.266D-01-0.911D-01 0.530D-01 0.389D-01-0.357D+00-0.194D+00
 Coeff:      0.152D+01
 Gap=     0.125 Goal=   None    Shift=    0.500
 Gap=     0.125 Goal=   None    Shift=    0.500
 RMSDP=5.67D-05 MaxDP=9.77D-04 DE=-3.33D-05 OVMax= 1.69D-03

 Cycle  16  Pass 1  IDiag  1:
 E= -195.934165336374     Delta-E=       -0.000011219258 Rises=F Damp=F
 DIIS: error= 4.21D-04 at cycle  16 NSaved=   8.
 NSaved= 8 IEnMin= 8 EnMin= -195.934165336374     IErMin= 8 ErrMin= 4.21D-04
 ErrMax= 4.21D-04  0.00D+00 EMaxC= 1.00D+00 BMatC= 4.94D-06 BMatP= 1.34D-05
 IDIUse=1 WtCom= 1.00D+00 WtEn= 0.00D+00
 Coeff-Com:  0.886D-01-0.164D+00 0.637D-01 0.113D-01 0.471D+00-0.140D+01
 Coeff-Com: -0.268D-01 0.195D+01
 Coeff:      0.886D-01-0.164D+00 0.637D-01 0.113D-01 0.471D+00-0.140D+01
 Coeff:     -0.268D-01 0.195D+01
 Gap=     0.125 Goal=   None    Shift=    0.500
 Gap=     0.125 Goal=   None    Shift=    0.500
 RMSDP=3.17D-05 MaxDP=5.64D-04 DE=-1.12D-05 OVMax= 1.15D-03

 Cycle  17  Pass 1  IDiag  1:
 E= -195.934169606556     Delta-E=       -0.000004270182 Rises=F Damp=F
 DIIS: error= 2.33D-04 at cycle  17 NSaved=   9.
 NSaved= 9 IEnMin= 9 EnMin= -195.934169606556     IErMin= 9 ErrMin= 2.33D-04
 ErrMax= 2.33D-04  0.00D+00 EMaxC= 1.00D+00 BMatC= 1.57D-06 BMatP= 4.94D-06
 IDIUse=1 WtCom= 1.00D+00 WtEn= 0.00D+00
 Coeff-Com: -0.395D-02 0.126D-01-0.207D-01 0.159D-01 0.156D+00-0.389D+00
 Coeff-Com:  0.188D+00-0.122D+01 0.226D+01
 Coeff:     -0.395D-02 0.126D-01-0.207D-01 0.159D-01 0.156D+00-0.389D+00
 Coeff:      0.188D+00-0.122D+01 0.226D+01
 Gap=     0.125 Goal=   None    Shift=    0.500
 Gap=     0.125 Goal=   None    Shift=    0.500
 RMSDP=1.66D-05 MaxDP=2.82D-04 DE=-4.27D-06 OVMax= 5.66D-04

 Cycle  18  Pass 1  IDiag  1:
 E= -195.934170821483     Delta-E=       -0.000001214927 Rises=F Damp=F
 DIIS: error= 1.43D-04 at cycle  18 NSaved=  10.
 NSaved=10 IEnMin=10 EnMin= -195.934170821483     IErMin=10 ErrMin= 1.43D-04
 ErrMax= 1.43D-04  0.00D+00 EMaxC= 1.00D+00 BMatC= 5.56D-07 BMatP= 1.57D-06
 IDIUse=1 WtCom= 1.00D+00 WtEn= 0.00D+00
 Coeff-Com: -0.387D-02 0.910D-02-0.133D-02-0.109D-01-0.665D-01 0.248D+00
 Coeff-Com: -0.630D-01-0.943D-02-0.202D+01 0.292D+01
 Coeff:     -0.387D-02 0.910D-02-0.133D-02-0.109D-01-0.665D-01 0.248D+00
 Coeff:     -0.630D-01-0.943D-02-0.202D+01 0.292D+01
 Gap=     0.125 Goal=   None    Shift=    0.500
 Gap=     0.125 Goal=   None    Shift=    0.500
 RMSDP=8.55D-06 MaxDP=1.54D-04 DE=-1.21D-06 OVMax= 3.32D-04

 Cycle  19  Pass 1  IDiag  1:
 E= -195.934171243830     Delta-E=       -0.000000422346 Rises=F Damp=F
 DIIS: error= 8.77D-05 at cycle  19 NSaved=  11.
 NSaved=11 IEnMin=11 EnMin= -195.934171243830     IErMin=11 ErrMin= 8.77D-05
 ErrMax= 8.77D-05  0.00D+00 EMaxC= 1.00D+00 BMatC= 2.06D-07 BMatP= 5.56D-07
 IDIUse=1 WtCom= 1.00D+00 WtEn= 0.00D+00
 Coeff-Com:  0.427D-02-0.959D-02 0.967D-02-0.808D-02 0.481D-02 0.110D-01
 Coeff-Com: -0.484D-01 0.135D+00 0.235D+00-0.250D+01 0.316D+01
 Coeff:      0.427D-02-0.959D-02 0.967D-02-0.808D-02 0.481D-02 0.110D-01
 Coeff:     -0.484D-01 0.135D+00 0.235D+00-0.250D+01 0.316D+01
 Gap=     0.125 Goal=   None    Shift=    0.500
 Gap=     0.125 Goal=   None    Shift=    0.500
 RMSDP=4.90D-06 MaxDP=9.02D-05 DE=-4.22D-07 OVMax= 2.06D-04

 Cycle  20  Pass 1  IDiag  1:
 E= -195.934171400441     Delta-E=       -0.000000156611 Rises=F Damp=F
 DIIS: error= 5.34D-05 at cycle  20 NSaved=  12.
 NSaved=12 IEnMin=12 EnMin= -195.934171400441     IErMin=12 ErrMin= 5.34D-05
 ErrMax= 5.34D-05  0.00D+00 EMaxC= 1.00D+00 BMatC= 7.69D-08 BMatP= 2.06D-07
 IDIUse=1 WtCom= 1.00D+00 WtEn= 0.00D+00
 Coeff-Com:  0.199D-02-0.133D-02 0.429D-03-0.451D-02 0.255D-01-0.635D-01
 Coeff-Com:  0.579D-01 0.349D-01-0.679D-01 0.252D+00-0.217D+01 0.293D+01
 Coeff:      0.199D-02-0.133D-02 0.429D-03-0.451D-02 0.255D-01-0.635D-01
 Coeff:      0.579D-01 0.349D-01-0.679D-01 0.252D+00-0.217D+01 0.293D+01
 Gap=     0.125 Goal=   None    Shift=    0.500
 Gap=     0.125 Goal=   None    Shift=    0.500
 RMSDP=2.91D-06 MaxDP=5.45D-05 DE=-1.57D-07 OVMax= 1.28D-04

 Cycle  21  Pass 1  IDiag  1:
 E= -195.934171458294     Delta-E=       -0.000000057853 Rises=F Damp=F
 DIIS: error= 3.15D-05 at cycle  21 NSaved=  13.
 NSaved=13 IEnMin=13 EnMin= -195.934171458294     IErMin=13 ErrMin= 3.15D-05
 ErrMax= 3.15D-05  0.00D+00 EMaxC= 1.00D+00 BMatC= 2.71D-08 BMatP= 7.69D-08
 IDIUse=1 WtCom= 1.00D+00 WtEn= 0.00D+00
 Coeff-Com:  0.342D-03-0.128D-03-0.134D-02 0.239D-02-0.121D-02-0.650D-02
 Coeff-Com:  0.704D-02 0.510D-02 0.501D-01-0.189D+00 0.922D+00-0.344D+01
 Coeff-Com:  0.365D+01
 Coeff:      0.342D-03-0.128D-03-0.134D-02 0.239D-02-0.121D-02-0.650D-02
 Coeff:      0.704D-02 0.510D-02 0.501D-01-0.189D+00 0.922D+00-0.344D+01
 Coeff:      0.365D+01
 Gap=     0.125 Goal=   None    Shift=    0.500
 Gap=     0.125 Goal=   None    Shift=    0.500
 RMSDP=1.65D-06 MaxDP=3.00D-05 DE=-5.79D-08 OVMax= 6.72D-05

 Cycle  22  Pass 1  IDiag  1:
 E= -195.934171476743     Delta-E=       -0.000000018449 Rises=F Damp=F
 DIIS: error= 2.05D-05 at cycle  22 NSaved=  14.
 NSaved=14 IEnMin=14 EnMin= -195.934171476743     IErMin=14 ErrMin= 2.05D-05
 ErrMax= 2.05D-05  0.00D+00 EMaxC= 1.00D+00 BMatC= 1.17D-08 BMatP= 2.71D-08
 IDIUse=1 WtCom= 1.00D+00 WtEn= 0.00D+00
 Coeff-Com:  0.416D-03-0.630D-03 0.168D-03-0.158D-03-0.208D-02 0.107D-01
 Coeff-Com: -0.131D-01-0.212D-01 0.160D+00-0.507D+00 0.119D+01-0.157D+01
 Coeff-Com: -0.839D+00 0.259D+01
 Coeff:      0.416D-03-0.630D-03 0.168D-03-0.158D-03-0.208D-02 0.107D-01
 Coeff:     -0.131D-01-0.212D-01 0.160D+00-0.507D+00 0.119D+01-0.157D+01
 Coeff:     -0.839D+00 0.259D+01
 Gap=     0.125 Goal=   None    Shift=    0.500
 Gap=     0.125 Goal=   None    Shift=    0.500
 RMSDP=1.04D-06 MaxDP=1.91D-05 DE=-1.84D-08 OVMax= 4.69D-05

 Cycle  23  Pass 1  IDiag  1:
 E= -195.934171484718     Delta-E=       -0.000000007975 Rises=F Damp=F
 DIIS: error= 1.24D-05 at cycle  23 NSaved=  15.
 NSaved=15 IEnMin=15 EnMin= -195.934171484718     IErMin=15 ErrMin= 1.24D-05
 ErrMax= 1.24D-05  0.00D+00 EMaxC= 1.00D+00 BMatC= 4.30D-09 BMatP= 1.17D-08
 IDIUse=1 WtCom= 1.00D+00 WtEn= 0.00D+00
 Coeff-Com:  0.123D-03-0.852D-04-0.125D-03 0.118D-03 0.122D-02-0.672D-02
 Coeff-Com:  0.416D-02 0.343D-01-0.941D-01 0.138D+00-0.202D+00 0.316D+00
 Coeff-Com:  0.393D+00-0.329D+01 0.370D+01
 Coeff:      0.123D-03-0.852D-04-0.125D-03 0.118D-03 0.122D-02-0.672D-02
 Coeff:      0.416D-02 0.343D-01-0.941D-01 0.138D+00-0.202D+00 0.316D+00
 Coeff:      0.393D+00-0.329D+01 0.370D+01
 Gap=     0.125 Goal=   None    Shift=    0.500
 Gap=     0.125 Goal=   None    Shift=    0.500
 RMSDP=6.02D-07 MaxDP=1.13D-05 DE=-7.97D-09 OVMax= 2.71D-05

 SCF Done:  E(ULC-wHPBE) =  -195.934171485     A.U. after   23 cycles
            NFock= 23  Conv=0.60D-06     -V/T= 2.0197
 <Sx>= 0.0000 <Sy>= 0.0000 <Sz>= 0.0000 <S**2>=-0.0000 S=-0.0000
 <L.S>= 0.000000000000E+00
 KE= 1.921440628370D+02 PE=-7.390000534190D+02 EE= 2.058999193042D+02
 Annihilation of the first spin contaminant:
 S**2 before annihilation    -0.0000,   after     0.0000
 Leave Link  502 at Thu Mar  5 12:42:15 2020, MaxMem=  6710886400 cpu:              37.3 elap:               2.4
 (Enter /opt/ohpc/pub/libs/gaussian/g16-A.03/sandybridge/g16/l508.exe)
 QCSCF skips out because SCF is already converged.
 Leave Link  508 at Thu Mar  5 12:42:15 2020, MaxMem=  6710886400 cpu:               0.3 elap:               0.0
 (Enter /opt/ohpc/pub/libs/gaussian/g16-A.03/sandybridge/g16/l601.exe)
 Copying SCF densities to generalized density rwf, IOpCl= 1 IROHF=0.

 **********************************************************************

            Population analysis using the SCF density.

 **********************************************************************

 Orbital symmetries:
 Alpha Orbitals:
       Occupied  (B2) (A1) (B2) (A1) (A1) (A1) (B2) (A1) (B2) (A1)
                 (A1) (B2) (B2) (A1) (B1) (A1) (A2) (B1)
       Virtual   (A1) (B2) (A2) (A1) (B1) (B2) (A1) (B2) (A1) (A1)
                 (B2) (A1) (B2) (B2) (B1) (A2) (B1) (A1) (A1) (B2)
                 (A1) (A2) (A1) (B1) (B2) (A1) (B2) (A1) (B2) (A1)
                 (A1) (A1) (B2) (A1) (B2) (B2) (A1) (A1) (B2)
 Beta  Orbitals:
       Occupied  (B2) (A1) (B2) (A1) (A1) (A1) (B2) (A1) (B2) (A1)
                 (A1) (B2) (B2) (A1) (B1) (A1) (A2) (B1)
       Virtual   (A1) (B2) (A2) (A1) (B1) (B2) (A1) (B2) (A1) (A1)
                 (B2) (A1) (B2) (B2) (B1) (A2) (B1) (A1) (A1) (B2)
                 (A1) (A2) (A1) (B1) (B2) (A1) (B2) (A1) (B2) (A1)
                 (A1) (A1) (B2) (A1) (B2) (B2) (A1) (A1) (B2)
 The electronic state is 1-A1.
 Alpha  occ. eigenvalues --  -10.16265 -10.16265 -10.11957 -10.11956 -10.06342
 Alpha  occ. eigenvalues --   -0.94998  -0.87097  -0.79066  -0.69944  -0.63964
 Alpha  occ. eigenvalues --   -0.62371  -0.55507  -0.50930  -0.48067  -0.46210
 Alpha  occ. eigenvalues --   -0.45031  -0.37102  -0.27078
 Alpha virt. eigenvalues --   -0.14588  -0.10210   0.00205   0.11351   0.11394
 Alpha virt. eigenvalues --    0.15159   0.19058   0.20006   0.21575   0.32068
 Alpha virt. eigenvalues --    0.33419   0.41484   0.42491   0.53745   0.53857
 Alpha virt. eigenvalues --    0.62574   0.62876   0.63793   0.64376   0.66235
 Alpha virt. eigenvalues --    0.66748   0.68542   0.71829   0.72157   0.72906
 Alpha virt. eigenvalues --    0.79947   0.85633   0.87639   0.90231   0.92262
 Alpha virt. eigenvalues --    0.96737   0.99282   1.01560   1.07505   1.13836
 Alpha virt. eigenvalues --    1.19255   1.23254   1.47041   1.47764
  Beta  occ. eigenvalues --  -10.16265 -10.16265 -10.11957 -10.11956 -10.06342
  Beta  occ. eigenvalues --   -0.94998  -0.87097  -0.79066  -0.69944  -0.63964
  Beta  occ. eigenvalues --   -0.62371  -0.55507  -0.50930  -0.48067  -0.46210
  Beta  occ. eigenvalues --   -0.45031  -0.37102  -0.27078
  Beta virt. eigenvalues --   -0.14588  -0.10210   0.00205   0.11351   0.11394
  Beta virt. eigenvalues --    0.15159   0.19058   0.20006   0.21575   0.32068
  Beta virt. eigenvalues --    0.33419   0.41484   0.42491   0.53745   0.53857
  Beta virt. eigenvalues --    0.62574   0.62876   0.63793   0.64376   0.66235
  Beta virt. eigenvalues --    0.66748   0.68542   0.71829   0.72157   0.72906
  Beta virt. eigenvalues --    0.79947   0.85633   0.87639   0.90231   0.92262
  Beta virt. eigenvalues --    0.96737   0.99282   1.01560   1.07505   1.13836
  Beta virt. eigenvalues --    1.19255   1.23254   1.47041   1.47764
          Condensed to atoms (all electrons):
               1          2          3          4          5          6
     1  C    5.301057   0.511322  -0.078993  -0.039528   0.145215   0.115510
     2  C    0.511322   4.910644   0.541453  -0.052666  -0.039528  -0.002757
     3  C   -0.078993   0.541453   4.910737   0.541453  -0.078993  -0.000350
     4  C   -0.039528  -0.052666   0.541453   4.910644   0.511322  -0.002757
     5  C    0.145215  -0.039528  -0.078993   0.511322   5.301057   0.115510
     6  H    0.115510  -0.002757  -0.000350  -0.002757   0.115510   0.664951
     7  H    0.353115  -0.036965   0.002804   0.000834  -0.003675  -0.008775
     8  H   -0.033862   0.357449  -0.014178   0.004145   0.000490   0.000192
     9  H    0.005199  -0.038837   0.372704  -0.038837   0.005199  -0.000003
    10  H    0.000490   0.004145  -0.014178   0.357449  -0.033862   0.000192
    11  H   -0.003675   0.000834   0.002804  -0.036965   0.353115  -0.008775
               7          8          9         10         11
     1  C    0.353115  -0.033862   0.005199   0.000490  -0.003675
     2  C   -0.036965   0.357449  -0.038837   0.004145   0.000834
     3  C    0.002804  -0.014178   0.372704  -0.014178   0.002804
     4  C    0.000834   0.004145  -0.038837   0.357449  -0.036965
     5  C   -0.003675   0.000490   0.005199  -0.033862   0.353115
     6  H   -0.008775   0.000192  -0.000003   0.000192  -0.008775
     7  H    0.502317   0.000990  -0.000146  -0.000011   0.000045
     8  H    0.000990   0.483419  -0.003679  -0.000094  -0.000011
     9  H   -0.000146  -0.003679   0.571342  -0.003679  -0.000146
    10  H   -0.000011  -0.000094  -0.003679   0.483419   0.000990
    11  H    0.000045  -0.000011  -0.000146   0.000990   0.502317
          Atomic-Atomic Spin Densities.
               1          2          3          4          5          6
     1  C   -0.000000   0.000000   0.000000  -0.000000   0.000000  -0.000000
     2  C    0.000000  -0.000000   0.000000   0.000000  -0.000000  -0.000000
     3  C    0.000000   0.000000   0.000000   0.000000   0.000000   0.000000
     4  C   -0.000000   0.000000   0.000000  -0.000000   0.000000  -0.000000
     5  C    0.000000  -0.000000   0.000000   0.000000  -0.000000  -0.000000
     6  H   -0.000000  -0.000000   0.000000  -0.000000  -0.000000   0.000000
     7  H   -0.000000   0.000000  -0.000000   0.000000   0.000000  -0.000000
     8  H    0.000000  -0.000000   0.000000  -0.000000   0.000000  -0.000000
     9  H   -0.000000   0.000000  -0.000000   0.000000  -0.000000   0.000000
    10  H    0.000000  -0.000000   0.000000  -0.000000   0.000000  -0.000000
    11  H    0.000000   0.000000  -0.000000   0.000000  -0.000000  -0.000000
               7          8          9         10         11
     1  C   -0.000000   0.000000  -0.000000   0.000000   0.000000
     2  C    0.000000  -0.000000   0.000000  -0.000000   0.000000
     3  C   -0.000000   0.000000  -0.000000   0.000000  -0.000000
     4  C    0.000000  -0.000000   0.000000  -0.000000   0.000000
     5  C    0.000000   0.000000  -0.000000   0.000000  -0.000000
     6  H   -0.000000  -0.000000   0.000000  -0.000000  -0.000000
     7  H   -0.000000   0.000000  -0.000000   0.000000  -0.000000
     8  H    0.000000  -0.000000   0.000000  -0.000000   0.000000
     9  H   -0.000000   0.000000  -0.000000   0.000000  -0.000000
    10  H    0.000000  -0.000000   0.000000  -0.000000   0.000000
    11  H   -0.000000   0.000000  -0.000000   0.000000  -0.000000
 Mulliken charges and spin densities:
               1          2
     1  C   -0.275850  -0.000000
     2  C   -0.155095  -0.000000
     3  C   -0.185262   0.000000
     4  C   -0.155095  -0.000000
     5  C   -0.275850  -0.000000
     6  H    0.127061   0.000000
     7  H    0.189466  -0.000000
     8  H    0.205138   0.000000
     9  H    0.130882  -0.000000
    10  H    0.205138   0.000000
    11  H    0.189466  -0.000000
 Sum of Mulliken charges =  -0.00000   0.00000
 Mulliken charges and spin densities with hydrogens summed into heavy atoms:
               1          2
     1  C    0.040676  -0.000000
     2  C    0.050044  -0.000000
     3  C   -0.054380   0.000000
     4  C    0.050044  -0.000000
     5  C   -0.086384  -0.000000
 Electronic spatial extent (au):  <R**2>=            394.7153
 Charge=             -0.0000 electrons
 Dipole moment (field-independent basis, Debye):
    X=             -0.0000    Y=              0.0000    Z=             -1.1688  Tot=              1.1688
 Quadrupole moment (field-independent basis, Debye-Ang):
   XX=            -36.2229   YY=            -22.8650   ZZ=            -23.8315
   XY=              0.0000   XZ=             -0.0000   YZ=             -0.0000
 Traceless Quadrupole moment (field-independent basis, Debye-Ang):
   XX=             -8.5831   YY=              4.7748   ZZ=              3.8083
   XY=              0.0000   XZ=             -0.0000   YZ=             -0.0000
 Octapole moment (field-independent basis, Debye-Ang**2):
  XXX=              0.0000  YYY=              0.0000  ZZZ=            -11.1139  XYY=              0.0000
  XXY=              0.0000  XXZ=              2.6264  XZZ=              0.0000  YZZ=              0.0000
  YYZ=              1.5267  XYZ=             -0.0000
 Hexadecapole moment (field-independent basis, Debye-Ang**3):
 XXXX=            -39.0990 YYYY=           -229.4315 ZZZZ=           -175.2084 XXXY=             -0.0000
 XXXZ=             -0.0000 YYYX=             -0.0000 YYYZ=             -0.0000 ZZZX=             -0.0000
 ZZZY=              0.0000 XXYY=            -61.0801 XXZZ=            -51.9465 YYZZ=            -69.9769
 XXYZ=             -0.0000 YYXZ=             -0.0000 ZZXY=             -0.0000
 N-N= 1.450218997931D+02 E-N=-7.389998861029D+02  KE= 1.921440628370D+02
 Symmetry A1   KE= 1.103405639652D+02
 Symmetry A2   KE= 2.343613067974D+00
 Symmetry B1   KE= 4.373855075073D+00
 Symmetry B2   KE= 7.508603072879D+01
 Symmetry A1   SP= 2.503261628860D-15
 Symmetry A2   SP= 1.850312143881D-15
 Symmetry B1   SP=-3.611531758921D-15
 Symmetry B2   SP= 2.756884975349D-14
                          Isotropic Fermi Contact Couplings
        Atom                 a.u.       MegaHertz       Gauss      10(-4) cm-1
     1  C(13)              0.00000       0.00000       0.00000       0.00000
     2  C(13)              0.00000       0.00000       0.00000       0.00000
     3  C(13)              0.00000       0.00000       0.00000       0.00000
     4  C(13)              0.00000       0.00000       0.00000       0.00000
     5  C(13)              0.00000       0.00000       0.00000       0.00000
     6  H(1)               0.00000       0.00000       0.00000       0.00000
     7  H(1)               0.00000       0.00000       0.00000       0.00000
     8  H(1)               0.00000       0.00000       0.00000       0.00000
     9  H(1)              -0.00000      -0.00000      -0.00000      -0.00000
    10  H(1)               0.00000       0.00000       0.00000       0.00000
    11  H(1)               0.00000       0.00000       0.00000       0.00000
 --------------------------------------------------------
       Center         ----  Spin Dipole Couplings  ----
                      3XX-RR        3YY-RR        3ZZ-RR
 --------------------------------------------------------
     1   Atom        0.000000      0.000000      0.000000
     2   Atom        0.000000      0.000000      0.000000
     3   Atom        0.000000      0.000000      0.000000
     4   Atom        0.000000      0.000000      0.000000
     5   Atom        0.000000      0.000000      0.000000
     6   Atom        0.000000      0.000000      0.000000
     7   Atom        0.000000      0.000000      0.000000
     8   Atom        0.000000      0.000000      0.000000
     9   Atom        0.000000      0.000000      0.000000
    10   Atom        0.000000      0.000000      0.000000
    11   Atom        0.000000      0.000000      0.000000
 --------------------------------------------------------
                        XY            XZ            YZ
 --------------------------------------------------------
     1   Atom        0.000000      0.000000      0.000000
     2   Atom        0.000000      0.000000      0.000000
     3   Atom        0.000000      0.000000      0.000000
     4   Atom        0.000000      0.000000      0.000000
     5   Atom        0.000000      0.000000      0.000000
     6   Atom        0.000000      0.000000      0.000000
     7   Atom        0.000000      0.000000      0.000000
     8   Atom        0.000000      0.000000      0.000000
     9   Atom        0.000000      0.000000      0.000000
    10   Atom        0.000000      0.000000      0.000000
    11   Atom        0.000000      0.000000      0.000000
 --------------------------------------------------------


 ---------------------------------------------------------------------------------
              Anisotropic Spin Dipole Couplings in Principal Axis System
 ---------------------------------------------------------------------------------

       Atom             a.u.   MegaHertz   Gauss  10(-4) cm-1        Axes

              Baa     0.0000     0.000     0.000     0.000  1.0000  0.0000  0.0000
     1 C(13)  Bbb     0.0000     0.000     0.000     0.000 -0.0000  1.0000  0.0000
              Bcc     0.0000     0.000     0.000     0.000  0.0000  0.0000  1.0000
 
              Baa     0.0000     0.000     0.000     0.000  1.0000  0.0000  0.0000
     2 C(13)  Bbb     0.0000     0.000     0.000     0.000 -0.0000  1.0000  0.0000
              Bcc     0.0000     0.000     0.000     0.000  0.0000  0.0000  1.0000
 
              Baa     0.0000     0.000     0.000     0.000  1.0000  0.0000  0.0000
     3 C(13)  Bbb     0.0000     0.000     0.000     0.000 -0.0000  1.0000  0.0000
              Bcc     0.0000     0.000     0.000     0.000  0.0000  0.0000  1.0000
 
              Baa     0.0000     0.000     0.000     0.000  1.0000  0.0000  0.0000
     4 C(13)  Bbb     0.0000     0.000     0.000     0.000 -0.0000  1.0000  0.0000
              Bcc     0.0000     0.000     0.000     0.000  0.0000  0.0000  1.0000
 
              Baa     0.0000     0.000     0.000     0.000  1.0000  0.0000  0.0000
     5 C(13)  Bbb     0.0000     0.000     0.000     0.000 -0.0000  1.0000  0.0000
              Bcc     0.0000     0.000     0.000     0.000  0.0000  0.0000  1.0000
 
              Baa     0.0000     0.000     0.000     0.000  1.0000  0.0000  0.0000
     6 H(1)   Bbb     0.0000     0.000     0.000     0.000 -0.0000  1.0000  0.0000
              Bcc     0.0000     0.000     0.000     0.000  0.0000  0.0000  1.0000
 
              Baa     0.0000     0.000     0.000     0.000  1.0000  0.0000  0.0000
     7 H(1)   Bbb     0.0000     0.000     0.000     0.000 -0.0000  1.0000  0.0000
              Bcc     0.0000     0.000     0.000     0.000  0.0000  0.0000  1.0000
 
              Baa     0.0000     0.000     0.000     0.000  1.0000  0.0000  0.0000
     8 H(1)   Bbb     0.0000     0.000     0.000     0.000 -0.0000  1.0000  0.0000
              Bcc     0.0000     0.000     0.000     0.000  0.0000  0.0000  1.0000
 
              Baa     0.0000     0.000     0.000     0.000  1.0000  0.0000  0.0000
     9 H(1)   Bbb     0.0000     0.000     0.000     0.000 -0.0000  1.0000  0.0000
              Bcc     0.0000     0.000     0.000     0.000  0.0000  0.0000  1.0000
 
              Baa     0.0000     0.000     0.000     0.000  1.0000  0.0000  0.0000
    10 H(1)   Bbb     0.0000     0.000     0.000     0.000 -0.0000  1.0000  0.0000
              Bcc     0.0000     0.000     0.000     0.000  0.0000  0.0000  1.0000
 
              Baa     0.0000     0.000     0.000     0.000  1.0000  0.0000  0.0000
    11 H(1)   Bbb     0.0000     0.000     0.000     0.000 -0.0000  1.0000  0.0000
              Bcc     0.0000     0.000     0.000     0.000  0.0000  0.0000  1.0000
 

 ---------------------------------------------------------------------------------

 No NMR shielding tensors so no spin-rotation constants.
 Leave Link  601 at Thu Mar  5 12:42:16 2020, MaxMem=  6710886400 cpu:               1.9 elap:               0.1
 (Enter /opt/ohpc/pub/libs/gaussian/g16-A.03/sandybridge/g16/l9999.exe)

 Test job not archived.
 1\1\GINC-CNODE212\SP\ULC-wHPBE\6-31G\C5H6\SMGO234\05-Mar-2020\0\\#P uL
 C-wHPBE/6-31G iop(3/130=0328100000, 3/131=0328100000, 3/119=0671900000
 , 3/120=0671900000) scf=(conver=6,fermi,ndamp=35,noincfock,novaracc,vs
 hift=500,xqc)\\H6 C5\\0,1\C,0,-1.206512,0.69658,0.\C,0,-1.206512,-0.69
 658,0.\C,0,0.,-1.39316,0.\C,0,1.206512,-0.69658,0.\C,0,1.206512,0.6965
 8,0.\H,0,0.,2.482681,0.\H,0,-2.150065,1.24134,0.\H,0,-2.150065,-1.2413
 4,0.\H,0,0.,-2.482681,0.\H,0,2.150065,-1.24134,0.\H,0,2.150065,1.24134
 ,0.\\Version=EM64L-G16RevA.03\State=1-A1\HF=-195.9341715\S2=0.\S2-1=0.
 \S2A=0.\RMSD=6.024e-07\Dipole=0.,0.4598525,0.\Quadrupole=3.5499487,2.8
 313945,-6.3813432,0.,0.,0.\PG=C02V [C2(H1C1H1),SGV(C4H4)]\\@


 BE NOT THE FIRST BY WHOM THE NEW ARE TRIED,
 NOR YET THE THE LAST TO LAY THE OLD ASIDE.

                          -- ALEXANDER POPE
 Job cpu time:       0 days  0 hours  1 minutes  7.8 seconds.
 Elapsed time:       0 days  0 hours  0 minutes  4.8 seconds.
 File lengths (MBytes):  RWF=    272 Int=      0 D2E=      0 Chk=     32 Scr=     32
 Normal termination of Gaussian 16 at Thu Mar  5 12:42:16 2020.
