 Entering Gaussian System, Link 0=g16
 Input=a1b_tune_c2.gjf
 Output=a1b_tune_c2.log
 Initial command:
 /opt/ohpc/pub/libs/gaussian/g16-A.03/sandybridge/g16/l1.exe "/scratch/smgo234/Ocelot/test/a1b/tuning_a1b_acycle0/Gau-71209.inp" -scrdir="/scratch/smgo234/Ocelot/test/a1b/tuning_a1b_acycle0/"
 Entering Link 1 = /opt/ohpc/pub/libs/gaussian/g16-A.03/sandybridge/g16/l1.exe PID=     71210.
  
 Copyright (c) 1988,1990,1992,1993,1995,1998,2003,2009,2016,
            Gaussian, Inc.  All Rights Reserved.
  
 This is part of the Gaussian(R) 16 program.  It is based on
 the Gaussian(R) 09 system (copyright 2009, Gaussian, Inc.),
 the Gaussian(R) 03 system (copyright 2003, Gaussian, Inc.),
 the Gaussian(R) 98 system (copyright 1998, Gaussian, Inc.),
 the Gaussian(R) 94 system (copyright 1995, Gaussian, Inc.),
 the Gaussian 92(TM) system (copyright 1992, Gaussian, Inc.),
 the Gaussian 90(TM) system (copyright 1990, Gaussian, Inc.),
 the Gaussian 88(TM) system (copyright 1988, Gaussian, Inc.),
 the Gaussian 86(TM) system (copyright 1986, Carnegie Mellon
 University), and the Gaussian 82(TM) system (copyright 1983,
 Carnegie Mellon University). Gaussian is a federally registered
 trademark of Gaussian, Inc.
  
 This software contains proprietary and confidential information,
 including trade secrets, belonging to Gaussian, Inc.
  
 This software is provided under written license and may be
 used, copied, transmitted, or stored only in accord with that
 written license.
  
 The following legend is applicable only to US Government
 contracts under FAR:
  
                    RESTRICTED RIGHTS LEGEND
  
 Use, reproduction and disclosure by the US Government is
 subject to restrictions as set forth in subparagraphs (a)
 and (c) of the Commercial Computer Software - Restricted
 Rights clause in FAR 52.227-19.
  
 Gaussian, Inc.
 340 Quinnipiac St., Bldg. 40, Wallingford CT 06492
  
  
 ---------------------------------------------------------------
 Warning -- This program may not be used in any manner that
 competes with the business of Gaussian, Inc. or will provide
 assistance to any competitor of Gaussian, Inc.  The licensee
 of this program is prohibited from giving any competitor of
 Gaussian, Inc. access to this program.  By using this program,
 the user acknowledges that Gaussian, Inc. is engaged in the
 business of creating and licensing software in the field of
 computational chemistry and represents and warrants to the
 licensee that it is not a competitor of Gaussian, Inc. and that
 it will not use this program in any manner prohibited above.
 ---------------------------------------------------------------
  

 Cite this work as:
 Gaussian 16, Revision A.03,
 M. J. Frisch, G. W. Trucks, H. B. Schlegel, G. E. Scuseria, 
 M. A. Robb, J. R. Cheeseman, G. Scalmani, V. Barone, 
 G. A. Petersson, H. Nakatsuji, X. Li, M. Caricato, A. V. Marenich, 
 J. Bloino, B. G. Janesko, R. Gomperts, B. Mennucci, H. P. Hratchian, 
 J. V. Ortiz, A. F. Izmaylov, J. L. Sonnenberg, D. Williams-Young, 
 F. Ding, F. Lipparini, F. Egidi, J. Goings, B. Peng, A. Petrone, 
 T. Henderson, D. Ranasinghe, V. G. Zakrzewski, J. Gao, N. Rega, 
 G. Zheng, W. Liang, M. Hada, M. Ehara, K. Toyota, R. Fukuda, 
 J. Hasegawa, M. Ishida, T. Nakajima, Y. Honda, O. Kitao, H. Nakai, 
 T. Vreven, K. Throssell, J. A. Montgomery, Jr., J. E. Peralta, 
 F. Ogliaro, M. J. Bearpark, J. J. Heyd, E. N. Brothers, K. N. Kudin, 
 V. N. Staroverov, T. A. Keith, R. Kobayashi, J. Normand, 
 K. Raghavachari, A. P. Rendell, J. C. Burant, S. S. Iyengar, 
 J. Tomasi, M. Cossi, J. M. Millam, M. Klene, C. Adamo, R. Cammi, 
 J. W. Ochterski, R. L. Martin, K. Morokuma, O. Farkas, 
 J. B. Foresman, and D. J. Fox, Gaussian, Inc., Wallingford CT, 2016.
 
 ******************************************
 Gaussian 16:  EM64L-G16RevA.03 25-Dec-2016
                 5-Mar-2020 
 ******************************************
 %mem=50GB
 %nproc=16
 Will use up to   16 processors via shared memory.
 ----------------------------------------------------------------------
 #P uLC-wHPBE/6-31G iop(3/130=0393800000, 3/131=0393800000, 3/119=06062
 00000, 3/120=0606200000) scf=(conver=6,fermi,ndamp=35,noincfock,novara
 cc,vshift=500,xqc)
 ----------------------------------------------------------------------
 1/38=1,172=1/1;
 2/12=2,17=6,18=5,40=1/2;
 3/5=1,6=6,11=2,25=1,30=1,74=-71,116=2,119=606200000,120=606200000,130=393800000,131=393800000/1,2,3;
 4//1;
 5/5=100002,6=6,8=3,10=500,13=1,18=-1,22=13,38=1,93=35/2,8;
 6/7=2,8=2,9=2,10=2,28=1/1;
 99/5=1,9=1/99;
 Leave Link    1 at Thu Mar  5 12:42:31 2020, MaxMem=  6710886400 cpu:              12.3 elap:               0.8
 (Enter /opt/ohpc/pub/libs/gaussian/g16-A.03/sandybridge/g16/l101.exe)
 -----
 H6 C5
 -----
 Symbolic Z-matrix:
 Charge =  1 Multiplicity = 2
 C                    -1.20651   0.69658   0. 
 C                    -1.20651  -0.69658   0. 
 C                     0.       -1.39316   0. 
 C                     1.20651  -0.69658   0. 
 C                     1.20651   0.69658   0. 
 H                     0.        2.48268   0. 
 H                    -2.15007   1.24134   0. 
 H                    -2.15007  -1.24134   0. 
 H                     0.       -2.48268   0. 
 H                     2.15007  -1.24134   0. 
 H                     2.15007   1.24134   0. 
 
 ITRead=  0  0  0  0  0  0  0  0  0  0  0
 MicOpt= -1 -1 -1 -1 -1 -1 -1 -1 -1 -1 -1
 NAtoms=     11 NQM=       11 NQMF=       0 NMMI=      0 NMMIF=      0
                NMic=       0 NMicF=      0.
                    Isotopes and Nuclear Properties:
 (Nuclear quadrupole moments (NQMom) in fm**2, nuclear magnetic moments (NMagM)
  in nuclear magnetons)

  Atom         1           2           3           4           5           6           7           8           9          10
 IAtWgt=          12          12          12          12          12           1           1           1           1           1
 AtmWgt=  12.0000000  12.0000000  12.0000000  12.0000000  12.0000000   1.0078250   1.0078250   1.0078250   1.0078250   1.0078250
 NucSpn=           0           0           0           0           0           1           1           1           1           1
 AtZEff=  -0.0000000  -0.0000000  -0.0000000  -0.0000000  -0.0000000  -0.0000000  -0.0000000  -0.0000000  -0.0000000  -0.0000000
 NQMom=    0.0000000   0.0000000   0.0000000   0.0000000   0.0000000   0.0000000   0.0000000   0.0000000   0.0000000   0.0000000
 NMagM=    0.0000000   0.0000000   0.0000000   0.0000000   0.0000000   2.7928460   2.7928460   2.7928460   2.7928460   2.7928460
 AtZNuc=   6.0000000   6.0000000   6.0000000   6.0000000   6.0000000   1.0000000   1.0000000   1.0000000   1.0000000   1.0000000

  Atom        11
 IAtWgt=           1
 AtmWgt=   1.0078250
 NucSpn=           1
 AtZEff=  -0.0000000
 NQMom=    0.0000000
 NMagM=    2.7928460
 AtZNuc=   1.0000000
 Leave Link  101 at Thu Mar  5 12:42:31 2020, MaxMem=  6710886400 cpu:               2.8 elap:               0.2
 (Enter /opt/ohpc/pub/libs/gaussian/g16-A.03/sandybridge/g16/l202.exe)
                          Input orientation:                          
 ---------------------------------------------------------------------
 Center     Atomic      Atomic             Coordinates (Angstroms)
 Number     Number       Type             X           Y           Z
 ---------------------------------------------------------------------
      1          6           0       -1.206512    0.696580    0.000000
      2          6           0       -1.206512   -0.696580    0.000000
      3          6           0        0.000000   -1.393160    0.000000
      4          6           0        1.206512   -0.696580    0.000000
      5          6           0        1.206512    0.696580    0.000000
      6          1           0        0.000000    2.482681    0.000000
      7          1           0       -2.150065    1.241340    0.000000
      8          1           0       -2.150065   -1.241340    0.000000
      9          1           0        0.000000   -2.482681    0.000000
     10          1           0        2.150065   -1.241340    0.000000
     11          1           0        2.150065    1.241340    0.000000
 ---------------------------------------------------------------------
                    Distance matrix (angstroms):
                    1          2          3          4          5
     1  C    0.000000
     2  C    1.393160   0.000000
     3  C    2.413024   1.393160   0.000000
     4  C    2.786320   2.413024   1.393160   0.000000
     5  C    2.413024   2.786320   2.413024   1.393160   0.000000
     6  H    2.155418   3.400496   3.875841   3.400496   2.155418
     7  H    1.089521   2.155418   3.400496   3.875841   3.400496
     8  H    2.155418   1.089521   2.155418   3.400496   3.875841
     9  H    3.400496   2.155418   1.089521   2.155418   3.400496
    10  H    3.875841   3.400496   2.155418   1.089521   2.155418
    11  H    3.400496   3.875841   3.400496   2.155418   1.089521
                    6          7          8          9         10
     6  H    0.000000
     7  H    2.482681   0.000000
     8  H    4.300129   2.482680   0.000000
     9  H    4.965362   4.300129   2.482681   0.000000
    10  H    4.300129   4.965362   4.300130   2.482681   0.000000
    11  H    2.482681   4.300130   4.965362   4.300129   2.482680
                   11
    11  H    0.000000
 Stoichiometry    C5H6(1+,2)
 Framework group  C2V[C2(HCH),SGV(C4H4)]
 Deg. of freedom    10
 Full point group                 C2V     NOp   4
 Largest Abelian subgroup         C2V     NOp   4
 Largest concise Abelian subgroup C2      NOp   2
                         Standard orientation:                         
 ---------------------------------------------------------------------
 Center     Atomic      Atomic             Coordinates (Angstroms)
 Number     Number       Type             X           Y           Z
 ---------------------------------------------------------------------
      1          6           0       -0.000000    1.206512   -0.928773
      2          6           0       -0.000000    1.206512    0.464387
      3          6           0        0.000000    0.000000    1.160967
      4          6           0       -0.000000   -1.206512    0.464387
      5          6           0       -0.000000   -1.206512   -0.928773
      6          1           0       -0.000000   -0.000000   -2.714874
      7          1           0       -0.000000    2.150065   -1.473533
      8          1           0       -0.000000    2.150065    1.009147
      9          1           0        0.000000    0.000000    2.250488
     10          1           0       -0.000000   -2.150065    1.009147
     11          1           0       -0.000000   -2.150065   -1.473533
 ---------------------------------------------------------------------
 Rotational constants (GHZ):           8.2868568           5.7099792           3.3806054
 Leave Link  202 at Thu Mar  5 12:42:31 2020, MaxMem=  6710886400 cpu:               0.2 elap:               0.0
 (Enter /opt/ohpc/pub/libs/gaussian/g16-A.03/sandybridge/g16/l301.exe)
 Standard basis: 6-31G (6D, 7F)
 Ernie: Thresh=  0.10000D-02 Tol=  0.10000D-05 Strict=F.
 There are    27 symmetry adapted cartesian basis functions of A1  symmetry.
 There are     4 symmetry adapted cartesian basis functions of A2  symmetry.
 There are     6 symmetry adapted cartesian basis functions of B1  symmetry.
 There are    20 symmetry adapted cartesian basis functions of B2  symmetry.
 There are    27 symmetry adapted basis functions of A1  symmetry.
 There are     4 symmetry adapted basis functions of A2  symmetry.
 There are     6 symmetry adapted basis functions of B1  symmetry.
 There are    20 symmetry adapted basis functions of B2  symmetry.
    57 basis functions,   134 primitive gaussians,    57 cartesian basis functions
    18 alpha electrons       17 beta electrons
       nuclear repulsion energy       145.0218997931 Hartrees.
 IExCor=33909 DFT=T Ex+Corr=LC-wHPBE ExCW=0 ScaHFX=  1.000000
 ScaDFX=  1.000000  1.000000  1.000000  1.000000 ScalE2=  1.000000  1.000000
 IRadAn=      5 IRanWt=     -1 IRanGd=            0 ICorTp=0 IEmpDi=  4
 HFx  wShort=  0.000000 wLong=  0.400000 cFull=  0.000000 cShort=  0.000000 cLong=  0.606200
 DFx  wShort=  0.000000 wLong=  0.400000 cFull=  0.000000 cShort=  1.000000 cLong=  0.606200
 NAtoms=   11 NActive=   11 NUniq=    7 SFac= 2.47D+00 NAtFMM=   60 NAOKFM=F Big=F
 Integral buffers will be    131072 words long.
 Raffenetti 2 integral format.
 Two-electron integral symmetry is turned on.
 Leave Link  301 at Thu Mar  5 12:42:32 2020, MaxMem=  6710886400 cpu:               0.9 elap:               0.1
 (Enter /opt/ohpc/pub/libs/gaussian/g16-A.03/sandybridge/g16/l302.exe)
 NPDir=0 NMtPBC=     1 NCelOv=     1 NCel=       1 NClECP=     1 NCelD=      1
         NCelK=      1 NCelE2=     1 NClLst=     1 CellRange=     0.0.
 One-electron integrals computed using PRISM.
 One-electron integral symmetry used in STVInt
 NBasis=    57 RedAO= T EigKep=  2.88D-03  NBF=    27     4     6    20
 NBsUse=    57 1.00D-06 EigRej= -1.00D+00 NBFU=    27     4     6    20
 Precomputing XC quadrature grid using
 IXCGrd= 4 IRadAn=           5 IRanWt=          -1 IRanGd=           0 AccXCQ= 0.00D+00.
 Generated NRdTot=       0 NPtTot=           0 NUsed=           0 NTot=          32
 NSgBfM=    57    57    57    57    57 MxSgAt=    11 MxSgA2=    11.
 Leave Link  302 at Thu Mar  5 12:42:32 2020, MaxMem=  6710886400 cpu:               2.1 elap:               0.1
 (Enter /opt/ohpc/pub/libs/gaussian/g16-A.03/sandybridge/g16/l303.exe)
 DipDrv:  MaxL=1.
 Leave Link  303 at Thu Mar  5 12:42:32 2020, MaxMem=  6710886400 cpu:               0.3 elap:               0.0
 (Enter /opt/ohpc/pub/libs/gaussian/g16-A.03/sandybridge/g16/l401.exe)
 ExpMin= 1.61D-01 ExpMax= 3.05D+03 ExpMxC= 4.57D+02 IAcc=3 IRadAn=         5 AccDes= 0.00D+00
 Harris functional with IExCor=33909 and IRadAn=       5 diagonalized for initial guess.
 HarFok:  IExCor=33909 AccDes= 0.00D+00 IRadAn=         5 IDoV= 1 UseB2=F ITyADJ=14
 ICtDFT=  3500011 ScaDFX=  1.000000  1.000000  1.000000  1.000000
 FoFCou: FMM=F IPFlag=           0 FMFlag=      100000 FMFlg1=           0
         NFxFlg=           0 DoJE=T BraDBF=F KetDBF=T FulRan=T
         wScrn=  0.000000 ICntrl=       500 IOpCl=  0 I1Cent=   200000004 NGrid=           0
         NMat0=    1 NMatS0=      1 NMatT0=    0 NMatD0=    1 NMtDS0=    0 NMtDT0=    0
 Petite list used in FoFCou.
 Harris En= -190.702574265475    
 JPrj=0 DoOrth=F DoCkMO=F.
 Initial guess orbital symmetries:
 Alpha Orbitals:
       Occupied  (A1) (B2) (A1) (B2) (A1) (A1) (B2) (A1) (B2) (A1)
                 (A1) (B2) (B2) (A1) (B1) (A1) (A2) (B1)
       Virtual   (B2) (A1) (A2) (B1) (A1) (B2) (A1) (B2) (A1) (A1)
                 (B2) (A1) (B2) (B1) (B2) (A1) (B1) (A2) (A1) (B2)
                 (A1) (A2) (B1) (B2) (A1) (A1) (B2) (A1) (B2) (A1)
                 (A1) (B2) (A1) (A1) (B2) (B2) (A1) (A1) (B2)
 Beta  Orbitals:
       Occupied  (A1) (B2) (A1) (B2) (A1) (A1) (B2) (A1) (B2) (A1)
                 (A1) (B2) (B2) (A1) (B1) (A1) (A2)
       Virtual   (B1) (B2) (A1) (A2) (B1) (A1) (B2) (A1) (B2) (A1)
                 (A1) (B2) (A1) (B2) (B1) (B2) (A1) (B1) (A2) (A1)
                 (B2) (A1) (A2) (B1) (B2) (A1) (A1) (B2) (A1) (B2)
                 (A1) (A1) (B2) (A1) (A1) (B2) (B2) (A1) (A1) (B2)
 The electronic state of the initial guess is 2-B1.
 Initial guess <Sx>= 0.0000 <Sy>= 0.0000 <Sz>= 0.5000 <S**2>= 0.7500 S= 0.5000
 Leave Link  401 at Thu Mar  5 12:42:32 2020, MaxMem=  6710886400 cpu:               3.0 elap:               0.2
 (Enter /opt/ohpc/pub/libs/gaussian/g16-A.03/sandybridge/g16/l502.exe)
 Keep R1 and R2 ints in memory in symmetry-blocked form, NReq=16815659.
 FoFCou: FMM=F IPFlag=           0 FMFlag=           0 FMFlg1=           0
         NFxFlg=           0 DoJE=F BraDBF=F KetDBF=F FulRan=T
         wScrn=  0.000000 ICntrl=       600 IOpCl=  0 I1Cent=           0 NGrid=           0
         NMat0=    1 NMatS0=   1653 NMatT0=    0 NMatD0=    1 NMtDS0=    0 NMtDT0=    0
 Petite list used in FoFCou.
 UHF open shell SCF:
 Using DIIS extrapolation, IDIIS=    10.
 NGot=  6710886400 LenX=  6710059583 LenY=  6710055893
 Requested convergence on RMS density matrix=1.00D-06 within  32 cycles.
 Requested convergence on MAX density matrix=1.00D-04.
 Requested convergence on             energy=1.00D-04.
 Virtual orbitals will be shifted by   0.500 hartree.
 No special actions if energy rises.
 Dynamic level shift is on during FON iterations.

 Cycle   1  Pass 1  IDiag  1:
 E= -194.621420230726    
 DIIS: error= 5.85D-02 at cycle   1 NSaved=   1.
 NSaved= 1 IEnMin= 1 EnMin= -194.621420230726     IErMin= 1 ErrMin= 5.85D-02
 ErrMax= 5.85D-02  0.00D+00 EMaxC= 1.00D+00 BMatC= 2.93D-01 BMatP= 2.93D-01
 IDIUse=1 WtCom= 1.00D+00 WtEn= 0.00D+00
 Coeff-Com:  0.100D+01
 Coeff:      0.100D+01
 Gap=     0.006 Goal=   None    Shift=    0.500
 T= 1896. Gap= 0.463 NK=0 IS=   19 IE=   57 IFin=   18
          NO(<0.9)=   0  NV(>0.1)=   0     18.00e < EF      0.00e >EF  Err=0.0D+00
 Gap=     0.028 Goal=   None    Shift=    0.500
 T= 1896. Gap= 0.535 NK=0 IS=   18 IE=   57 IFin=   17
          NO(<0.9)=   0  NV(>0.1)=   0     17.00e < EF      0.00e >EF  Err=0.0D+00
 GapD=    0.006 DampG=0.250 DampE=0.500 DampFc=0.1250 IDamp=-1.
 Damping current iteration by 1.25D-01
 RMSDP=8.07D-03 MaxDP=6.30D-02              OVMax= 1.34D-01

 Cycle   2  Pass 1  IDiag  1:
 E= -194.642143605547     Delta-E=       -0.020723374821 Rises=F Damp=T
 DIIS: error= 5.04D-02 at cycle   2 NSaved=   2.
 NSaved= 2 IEnMin= 2 EnMin= -194.642143605547     IErMin= 2 ErrMin= 5.04D-02
 ErrMax= 5.04D-02  0.00D+00 EMaxC= 1.00D+00 BMatC= 2.07D-01 BMatP= 2.93D-01
 IDIUse=1 WtCom= 1.00D+00 WtEn= 0.00D+00
 Coeff-Com: -0.478D+01 0.578D+01
 Coeff:     -0.478D+01 0.578D+01
 Gap=     0.107 Goal=   None    Shift=    0.500
 T= 1868. Gap= 0.586 NK=4 IS=   19 IE=   24 IFin=   18
          NO(<0.9)=   0  NV(>0.1)=   0     18.00e < EF      0.00e >EF  Err=0.0D+00
 Gap=     0.136 Goal=   None    Shift=    0.500
 T= 1868. Gap= 0.638 NK=4 IS=   18 IE=   21 IFin=   17
          NO(<0.9)=   0  NV(>0.1)=   0     17.00e < EF      0.00e >EF  Err=0.0D+00
 GapD=    0.107 DampG=1.000 DampE=0.500 DampFc=0.5000 IDamp=-1.
 Damping current iteration by 5.00D-01
 RMSDP=7.41D-03 MaxDP=6.05D-02 DE=-2.07D-02 OVMax= 5.46D-02

 Cycle   3  Pass 1  IDiag  1:
 E= -194.700135647819     Delta-E=       -0.057992042272 Rises=F Damp=T
 DIIS: error= 2.60D-02 at cycle   3 NSaved=   3.
 NSaved= 3 IEnMin= 3 EnMin= -194.700135647819     IErMin= 3 ErrMin= 2.60D-02
 ErrMax= 2.60D-02  0.00D+00 EMaxC= 1.00D+00 BMatC= 4.14D-02 BMatP= 2.07D-01
 IDIUse=1 WtCom= 1.00D+00 WtEn= 0.00D+00
 Coeff-Com:  0.204D+01-0.346D+01 0.242D+01
 Coeff:      0.204D+01-0.346D+01 0.242D+01
 Gap=     0.137 Goal=   None    Shift=    0.500
 T= 1739. Gap= 0.637 NK=4 IS=   19 IE=   24 IFin=   18
          NO(<0.9)=   0  NV(>0.1)=   0     18.00e < EF      0.00e >EF  Err=0.0D+00
 Gap=     0.189 Goal=   None    Shift=    0.500
 T= 1739. Gap= 0.689 NK=4 IS=   18 IE=   21 IFin=   17
          NO(<0.9)=   0  NV(>0.1)=   0     17.00e < EF      0.00e >EF  Err=0.0D+00
 GapD=    0.137 DampG=1.000 DampE=0.500 DampFc=0.5000 IDamp=-1.
 Damping current iteration by 5.00D-01
 RMSDP=3.57D-03 MaxDP=3.06D-02 DE=-5.80D-02 OVMax= 1.99D-02

 Cycle   4  Pass 1  IDiag  1:
 E= -194.721563382832     Delta-E=       -0.021427735013 Rises=F Damp=T
 DIIS: error= 1.45D-02 at cycle   4 NSaved=   4.
 NSaved= 4 IEnMin= 4 EnMin= -194.721563382832     IErMin= 4 ErrMin= 1.45D-02
 ErrMax= 1.45D-02  0.00D+00 EMaxC= 1.00D+00 BMatC= 9.92D-03 BMatP= 4.14D-02
 IDIUse=1 WtCom= 1.00D+00 WtEn= 0.00D+00
 Coeff-Com:  0.797D+00-0.670D+00-0.185D+01 0.272D+01
 Coeff:      0.797D+00-0.670D+00-0.185D+01 0.272D+01
 Gap=     0.150 Goal=   None    Shift=    0.500
 T= 1502. Gap= 0.650 NK=4 IS=   19 IE=   24 IFin=   18
          NO(<0.9)=   0  NV(>0.1)=   0     18.00e < EF      0.00e >EF  Err=0.0D+00
 Gap=     0.201 Goal=   None    Shift=    0.500
 T= 1502. Gap= 0.701 NK=4 IS=   18 IE=   21 IFin=   17
          NO(<0.9)=   0  NV(>0.1)=   0     17.00e < EF      0.00e >EF  Err=0.0D+00
 GapD=    0.150 DampG=1.000 DampE=0.500 DampFc=0.5000 IDamp=-1.
 Damping current iteration by 5.00D-01
 RMSDP=1.92D-03 MaxDP=2.02D-02 DE=-2.14D-02 OVMax= 1.41D-02

 Cycle   5  Pass 1  IDiag  1:
 E= -194.731207426764     Delta-E=       -0.009644043932 Rises=F Damp=T
 DIIS: error= 9.30D-03 at cycle   5 NSaved=   5.
 NSaved= 5 IEnMin= 5 EnMin= -194.731207426764     IErMin= 5 ErrMin= 9.30D-03
 ErrMax= 9.30D-03  0.00D+00 EMaxC= 1.00D+00 BMatC= 3.18D-03 BMatP= 9.92D-03
 IDIUse=1 WtCom= 1.00D+00 WtEn= 0.00D+00
 Coeff-Com: -0.727D+00 0.110D+01 0.252D+00-0.380D+01 0.418D+01
 Coeff:     -0.727D+00 0.110D+01 0.252D+00-0.380D+01 0.418D+01
 Gap=     0.156 Goal=   None    Shift=    0.500
 T= 1140. Gap= 0.656 NK=4 IS=   19 IE=   24 IFin=   18
          NO(<0.9)=   0  NV(>0.1)=   0     18.00e < EF      0.00e >EF  Err=0.0D+00
 Gap=     0.204 Goal=   None    Shift=    0.500
 T= 1140. Gap= 0.704 NK=4 IS=   18 IE=   21 IFin=   17
          NO(<0.9)=   0  NV(>0.1)=   0     17.00e < EF      0.00e >EF  Err=0.0D+00
 GapD=    0.156 DampG=1.000 DampE=1.000 DampFc=1.0000 IDamp=-1.
 RMSDP=1.32D-03 MaxDP=1.67D-02 DE=-9.64D-03 OVMax= 1.61D-02

 Cycle   6  Pass 1  IDiag  1:
 E= -194.741408289998     Delta-E=       -0.010200863234 Rises=F Damp=F
 DIIS: error= 3.51D-03 at cycle   6 NSaved=   6.
 NSaved= 6 IEnMin= 6 EnMin= -194.741408289998     IErMin= 6 ErrMin= 3.51D-03
 ErrMax= 3.51D-03  0.00D+00 EMaxC= 1.00D+00 BMatC= 3.77D-04 BMatP= 3.18D-03
 IDIUse=1 WtCom= 1.00D+00 WtEn= 0.00D+00
 Coeff-Com:  0.262D+00-0.484D+00 0.444D+00 0.134D+01-0.308D+01 0.251D+01
 Coeff:      0.262D+00-0.484D+00 0.444D+00 0.134D+01-0.308D+01 0.251D+01
 Gap=     0.158 Goal=   None    Shift=    0.500
 T=  780. Gap= 0.658 NK=4 IS=   19 IE=   24 IFin=   18
          NO(<0.9)=   0  NV(>0.1)=   0     18.00e < EF      0.00e >EF  Err=0.0D+00
 Gap=     0.204 Goal=   None    Shift=    0.500
 T=  780. Gap= 0.704 NK=4 IS=   18 IE=   21 IFin=   17
          NO(<0.9)=   0  NV(>0.1)=   0     17.00e < EF      0.00e >EF  Err=0.0D+00
 GapD=    0.158 DampG=1.000 DampE=1.000 DampFc=1.0000 IDamp=-1.
 RMSDP=3.94D-04 MaxDP=5.76D-03 DE=-1.02D-02 OVMax= 1.51D-02

 Cycle   7  Pass 1  IDiag  1:
 E= -194.742030077342     Delta-E=       -0.000621787344 Rises=F Damp=F
 DIIS: error= 2.79D-03 at cycle   7 NSaved=   7.
 NSaved= 7 IEnMin= 7 EnMin= -194.742030077342     IErMin= 7 ErrMin= 2.79D-03
 ErrMax= 2.79D-03  0.00D+00 EMaxC= 1.00D+00 BMatC= 1.97D-04 BMatP= 3.77D-04
 IDIUse=1 WtCom= 1.00D+00 WtEn= 0.00D+00
 Coeff-Com:  0.168D+00-0.221D+00-0.241D+00 0.105D+01-0.900D+00-0.146D+01
 Coeff-Com:  0.261D+01
 Coeff:      0.168D+00-0.221D+00-0.241D+00 0.105D+01-0.900D+00-0.146D+01
 Coeff:      0.261D+01
 Gap=     0.160 Goal=   None    Shift=    0.500
 T=  444. Gap= 0.660 NK=4 IS=   19 IE=   24 IFin=   18
          NO(<0.9)=   0  NV(>0.1)=   0     18.00e < EF      0.00e >EF  Err=0.0D+00
 Gap=     0.203 Goal=   None    Shift=    0.500
 T=  444. Gap= 0.704 NK=4 IS=   18 IE=   21 IFin=   17
          NO(<0.9)=   0  NV(>0.1)=   0     17.00e < EF      0.00e >EF  Err=0.0D+00
 GapD=    0.160 DampG=1.000 DampE=1.000 DampFc=1.0000 IDamp=-1.
 RMSDP=3.19D-04 MaxDP=4.90D-03 DE=-6.22D-04 OVMax= 1.31D-02

 Cycle   8  Pass 1  IDiag  1:
 E= -194.742413436700     Delta-E=       -0.000383359358 Rises=F Damp=F
 DIIS: error= 2.05D-03 at cycle   8 NSaved=   8.
 NSaved= 8 IEnMin= 8 EnMin= -194.742413436700     IErMin= 8 ErrMin= 2.05D-03
 ErrMax= 2.05D-03  0.00D+00 EMaxC= 1.00D+00 BMatC= 1.15D-04 BMatP= 1.97D-04
 IDIUse=1 WtCom= 1.00D+00 WtEn= 0.00D+00
 Coeff-Com: -0.300D-01 0.806D-01-0.176D+00-0.259D+00 0.845D+00-0.151D+01
 Coeff-Com:  0.523D+00 0.153D+01
 Coeff:     -0.300D-01 0.806D-01-0.176D+00-0.259D+00 0.845D+00-0.151D+01
 Coeff:      0.523D+00 0.153D+01
 Gap=     0.162 Goal=   None    Shift=    0.500
 T=   69. Gap= 0.662 NK=4 IS=   19 IE=   24 IFin=   18
          NO(<0.9)=   0  NV(>0.1)=   0     18.00e < EF      0.00e >EF  Err=0.0D+00
 Gap=     0.203 Goal=   None    Shift=    0.500
 T=   69. Gap= 0.703 NK=4 IS=   18 IE=   21 IFin=   17
          NO(<0.9)=   0  NV(>0.1)=   0     17.00e < EF      0.00e >EF  Err=0.0D+00
 GapD=    0.162 DampG=1.000 DampE=1.000 DampFc=1.0000 IDamp=-1.
 RMSDP=2.26D-04 MaxDP=2.98D-03 DE=-3.83D-04 OVMax= 9.41D-03

 Cycle   9  Pass 1  IDiag  1:
 E= -194.742629121646     Delta-E=       -0.000215684945 Rises=F Damp=F
 DIIS: error= 1.57D-03 at cycle   9 NSaved=   9.
 NSaved= 9 IEnMin= 9 EnMin= -194.742629121646     IErMin= 9 ErrMin= 1.57D-03
 ErrMax= 1.57D-03  0.00D+00 EMaxC= 1.00D+00 BMatC= 7.42D-05 BMatP= 1.15D-04
 IDIUse=1 WtCom= 1.00D+00 WtEn= 0.00D+00
 Coeff-Com: -0.702D-01 0.562D-01 0.416D+00-0.111D+01 0.753D+00 0.153D+01
 Coeff-Com: -0.255D+01-0.178D+01 0.376D+01
 Coeff:     -0.702D-01 0.562D-01 0.416D+00-0.111D+01 0.753D+00 0.153D+01
 Coeff:     -0.255D+01-0.178D+01 0.376D+01
 Gap=     0.165 Goal=   None    Shift=    0.500
 Gap=     0.201 Goal=   None    Shift=    0.500
 GapD=    0.165 DampG=1.000 DampE=1.000 DampFc=1.0000 IDamp=-1.
 RMSDP=2.43D-04 MaxDP=3.61D-03 DE=-2.16D-04 OVMax= 1.04D-02

 Cycle  10  Pass 1  IDiag  1:
 E= -194.742827717969     Delta-E=       -0.000198596324 Rises=F Damp=F
 DIIS: error= 1.45D-03 at cycle  10 NSaved=  10.
 NSaved=10 IEnMin=10 EnMin= -194.742827717969     IErMin=10 ErrMin= 1.45D-03
 ErrMax= 1.45D-03  0.00D+00 EMaxC= 1.00D+00 BMatC= 5.16D-05 BMatP= 7.42D-05
 IDIUse=1 WtCom= 1.00D+00 WtEn= 0.00D+00
 Coeff-Com: -0.221D-01 0.210D-01 0.136D+00-0.344D+00 0.177D+00 0.678D+00
 Coeff-Com: -0.778D+00-0.889D+00 0.869D-01 0.193D+01
 Coeff:     -0.221D-01 0.210D-01 0.136D+00-0.344D+00 0.177D+00 0.678D+00
 Coeff:     -0.778D+00-0.889D+00 0.869D-01 0.193D+01
 Gap=     0.166 Goal=   None    Shift=    0.500
 Gap=     0.201 Goal=   None    Shift=    0.500
 GapD=    0.166 DampG=1.000 DampE=1.000 DampFc=1.0000 IDamp=-1.
 RMSDP=1.85D-04 MaxDP=3.25D-03 DE=-1.99D-04 OVMax= 9.02D-03

 Cycle  11  Pass 1  IDiag  1:
 E= -194.742964671079     Delta-E=       -0.000136953110 Rises=F Damp=F
 DIIS: error= 1.36D-03 at cycle  11 NSaved=  11.
 NSaved=11 IEnMin=11 EnMin= -194.742964671079     IErMin=11 ErrMin= 1.36D-03
 ErrMax= 1.36D-03  0.00D+00 EMaxC= 1.00D+00 BMatC= 4.18D-05 BMatP= 5.16D-05
 IDIUse=1 WtCom= 1.00D+00 WtEn= 0.00D+00
 Coeff-Com: -0.300D-02-0.436D-02-0.675D-02 0.482D-01-0.409D-02-0.223D+00
 Coeff-Com:  0.396D-01 0.343D+00 0.273D+01-0.872D+01 0.680D+01
 Coeff:     -0.300D-02-0.436D-02-0.675D-02 0.482D-01-0.409D-02-0.223D+00
 Coeff:      0.396D-01 0.343D+00 0.273D+01-0.872D+01 0.680D+01
 Gap=     0.169 Goal=   None    Shift=    0.500
 Gap=     0.199 Goal=   None    Shift=    0.500
 GapD=    0.169 DampG=1.000 DampE=1.000 DampFc=1.0000 IDamp=-1.
 RMSDP=2.23D-04 MaxDP=4.18D-03 DE=-1.37D-04 OVMax= 1.19D-02

 Cycle  12  Pass 1  IDiag  1:
 E= -194.743121988792     Delta-E=       -0.000157317713 Rises=F Damp=F
 DIIS: error= 1.33D-03 at cycle  12 NSaved=  12.
 NSaved=12 IEnMin=12 EnMin= -194.743121988792     IErMin=12 ErrMin= 1.33D-03
 ErrMax= 1.33D-03  0.00D+00 EMaxC= 1.00D+00 BMatC= 3.79D-05 BMatP= 4.18D-05
 IDIUse=1 WtCom= 1.00D+00 WtEn= 0.00D+00
 Coeff-Com: -0.233D-02-0.887D-02 0.451D-01-0.133D+00 0.180D+00-0.180D+00
 Coeff-Com: -0.205D+00 0.295D+00 0.306D+01-0.786D+01 0.455D+01 0.126D+01
 Coeff:     -0.233D-02-0.887D-02 0.451D-01-0.133D+00 0.180D+00-0.180D+00
 Coeff:     -0.205D+00 0.295D+00 0.306D+01-0.786D+01 0.455D+01 0.126D+01
 Gap=     0.171 Goal=   None    Shift=    0.500
 Gap=     0.199 Goal=   None    Shift=    0.500
 GapD=    0.171 DampG=1.000 DampE=1.000 DampFc=1.0000 IDamp=-1.
 RMSDP=1.80D-04 MaxDP=3.68D-03 DE=-1.57D-04 OVMax= 1.00D-02

 Cycle  13  Pass 1  IDiag  1:
 E= -194.743246006981     Delta-E=       -0.000124018189 Rises=F Damp=F
 DIIS: error= 1.27D-03 at cycle  13 NSaved=  13.
 NSaved=13 IEnMin=13 EnMin= -194.743246006981     IErMin=13 ErrMin= 1.27D-03
 ErrMax= 1.27D-03  0.00D+00 EMaxC= 1.00D+00 BMatC= 3.49D-05 BMatP= 3.79D-05
 IDIUse=1 WtCom= 1.00D+00 WtEn= 0.00D+00
 Large coefficients: NSaved= 13 BigCof=   20.53 CofMax=   10.00 Det=-1.59D-08
 Inversion failed.  Reducing to 12 matrices.
 Large coefficients: NSaved= 12 BigCof=   20.29 CofMax=   10.00 Det=-1.61D-08
 Inversion failed.  Reducing to 11 matrices.
 Large coefficients: NSaved= 11 BigCof=   19.88 CofMax=   10.00 Det=-9.38D-09
 Inversion failed.  Reducing to 10 matrices.
 Large coefficients: NSaved= 10 BigCof=   19.87 CofMax=   10.00 Det=-1.02D-08
 Inversion failed.  Reducing to  9 matrices.
 Large coefficients: NSaved=  9 BigCof=   13.46 CofMax=   10.00 Det=-1.90D-08
 Inversion failed.  Reducing to  8 matrices.
 Large coefficients: NSaved=  8 BigCof=   12.45 CofMax=   10.00 Det=-2.12D-08
 Inversion failed.  Reducing to  7 matrices.
 Large coefficients: NSaved=  7 BigCof=   12.22 CofMax=   10.00 Det=-2.37D-08
 Inversion failed.  Reducing to  6 matrices.
 Large coefficients: NSaved=  6 BigCof=   11.67 CofMax=   10.00 Det=-3.25D-08
 Inversion failed.  Reducing to  5 matrices.
 Large coefficients: NSaved=  5 BigCof=   11.55 CofMax=   10.00 Det=-3.35D-08
 Inversion failed.  Reducing to  4 matrices.
 Coeff-Com:  0.129D+01 0.142D+00-0.873D+01 0.830D+01
 Coeff:      0.129D+01 0.142D+00-0.873D+01 0.830D+01
 Gap=     0.171 Goal=   None    Shift=    0.500
 Gap=     0.196 Goal=   None    Shift=    0.500
 GapD=    0.171 DampG=1.000 DampE=1.000 DampFc=1.0000 IDamp=-1.
 RMSDP=3.57D-04 MaxDP=6.63D-03 DE=-1.24D-04 OVMax= 2.01D-02

 Cycle  14  Pass 1  IDiag  1:
 E= -194.743473871468     Delta-E=       -0.000227864487 Rises=F Damp=F
 DIIS: error= 1.25D-03 at cycle  14 NSaved=   5.
 NSaved= 5 IEnMin= 5 EnMin= -194.743473871468     IErMin= 5 ErrMin= 1.25D-03
 ErrMax= 1.25D-03  0.00D+00 EMaxC= 1.00D+00 BMatC= 3.62D-05 BMatP= 3.49D-05
 IDIUse=1 WtCom= 1.00D+00 WtEn= 0.00D+00
 Large coefficients: NSaved=  5 BigCof=   15.67 CofMax=   10.00 Det=-3.24D-08
 Inversion failed.  Reducing to  4 matrices.
 Large coefficients: NSaved=  4 BigCof=   15.76 CofMax=   10.00 Det=-3.25D-08
 Inversion failed.  Reducing to  3 matrices.
 Coeff-Com: -0.283D+01 0.375D+01 0.777D-01
 Coeff:     -0.283D+01 0.375D+01 0.777D-01
 Gap=     0.173 Goal=   None    Shift=    0.500
 Gap=     0.197 Goal=   None    Shift=    0.500
 GapD=    0.173 DampG=1.000 DampE=1.000 DampFc=1.0000 IDamp=-1.
 RMSDP=1.28D-04 MaxDP=3.16D-03 DE=-2.28D-04 OVMax= 7.13D-03

 Cycle  15  Pass 1  IDiag  1:
 E= -194.743553505872     Delta-E=       -0.000079634404 Rises=F Damp=F
 DIIS: error= 1.15D-03 at cycle  15 NSaved=   4.
 NSaved= 4 IEnMin= 4 EnMin= -194.743553505872     IErMin= 4 ErrMin= 1.15D-03
 ErrMax= 1.15D-03  0.00D+00 EMaxC= 1.00D+00 BMatC= 2.92D-05 BMatP= 3.49D-05
 IDIUse=1 WtCom= 1.00D+00 WtEn= 0.00D+00
 Coeff-Com:  0.401D+01-0.783D+01-0.106D+01 0.588D+01
 Coeff:      0.401D+01-0.783D+01-0.106D+01 0.588D+01
 Gap=     0.168 Goal=   None    Shift=    0.500
 Gap=     0.192 Goal=   None    Shift=    0.500
 GapD=    0.168 DampG=1.000 DampE=1.000 DampFc=1.0000 IDamp=-1.
 RMSDP=5.19D-04 MaxDP=9.11D-03 DE=-7.96D-05 OVMax= 2.89D-02

 Cycle  16  Pass 1  IDiag  1:
 E= -194.743826413043     Delta-E=       -0.000272907171 Rises=F Damp=F
 DIIS: error= 1.05D-03 at cycle  16 NSaved=   5.
 NSaved= 5 IEnMin= 5 EnMin= -194.743826413043     IErMin= 5 ErrMin= 1.05D-03
 ErrMax= 1.05D-03  0.00D+00 EMaxC= 1.00D+00 BMatC= 4.16D-05 BMatP= 2.92D-05
 IDIUse=1 WtCom= 1.00D+00 WtEn= 0.00D+00
 Coeff-Com:  0.538D+01-0.871D+01-0.393D+01 0.705D+01 0.122D+01
 Coeff:      0.538D+01-0.871D+01-0.393D+01 0.705D+01 0.122D+01
 Gap=     0.166 Goal=   None    Shift=    0.500
 Gap=     0.192 Goal=   None    Shift=    0.500
 GapD=    0.166 DampG=1.000 DampE=1.000 DampFc=1.0000 IDamp=-1.
 RMSDP=4.87D-04 MaxDP=9.69D-03 DE=-2.73D-04 OVMax= 2.77D-02

 Cycle  17  Pass 1  IDiag  1:
 E= -194.744028996730     Delta-E=       -0.000202583686 Rises=F Damp=F
 DIIS: error= 8.24D-04 at cycle  17 NSaved=   6.
 NSaved= 6 IEnMin= 6 EnMin= -194.744028996730     IErMin= 6 ErrMin= 8.24D-04
 ErrMax= 8.24D-04  0.00D+00 EMaxC= 1.00D+00 BMatC= 4.08D-05 BMatP= 2.92D-05
 IDIUse=1 WtCom= 1.00D+00 WtEn= 0.00D+00
 Coeff-Com: -0.375D+01 0.847D+01-0.319D+01-0.922D+00-0.284D+01 0.324D+01
 Coeff:     -0.375D+01 0.847D+01-0.319D+01-0.922D+00-0.284D+01 0.324D+01
 Gap=     0.171 Goal=   None    Shift=    0.500
 Gap=     0.196 Goal=   None    Shift=    0.500
 RMSDP=1.98D-04 MaxDP=4.06D-03 DE=-2.03D-04 OVMax= 7.16D-03

 Cycle  18  Pass 1  IDiag  1:
 E= -194.744002014330     Delta-E=        0.000026982400 Rises=F Damp=F
 DIIS: error= 1.08D-03 at cycle  18 NSaved=   7.
 NSaved= 7 IEnMin= 6 EnMin= -194.744028996730     IErMin= 6 ErrMin= 8.24D-04
 ErrMax= 1.08D-03  0.00D+00 EMaxC= 1.00D+00 BMatC= 1.88D-05 BMatP= 2.92D-05
 IDIUse=1 WtCom= 1.00D+00 WtEn= 0.00D+00
 Coeff-Com: -0.468D+01 0.926D+01-0.149D+01-0.256D+01-0.334D+01 0.317D+01
 Coeff-Com:  0.639D+00
 Coeff:     -0.468D+01 0.926D+01-0.149D+01-0.256D+01-0.334D+01 0.317D+01
 Coeff:      0.639D+00
 Gap=     0.170 Goal=   None    Shift=    0.000
 Gap=     0.195 Goal=   None    Shift=    0.000
 GapD=    0.170 DampG=1.000 DampE=1.000 DampFc=1.0000 IDamp=-1.
 RMSDP=8.21D-05 MaxDP=1.45D-03 DE= 2.70D-05 OVMax= 5.31D-03

 Cycle  19  Pass 1  IDiag  1:
 E= -194.744019647467     Delta-E=       -0.000017633137 Rises=F Damp=F
 DIIS: error= 1.25D-03 at cycle  19 NSaved=   8.
 NSaved= 8 IEnMin= 6 EnMin= -194.744028996730     IErMin= 6 ErrMin= 8.24D-04
 ErrMax= 1.25D-03  0.00D+00 EMaxC= 1.00D+00 BMatC= 2.36D-05 BMatP= 1.88D-05
 IDIUse=1 WtCom= 1.00D+00 WtEn= 0.00D+00
 Coeff-Com: -0.473D+01 0.968D+01-0.234D+01-0.213D+01-0.319D+01 0.343D+01
 Coeff-Com: -0.510D+00 0.782D+00
 Coeff:     -0.473D+01 0.968D+01-0.234D+01-0.213D+01-0.319D+01 0.343D+01
 Coeff:     -0.510D+00 0.782D+00
 Gap=     0.170 Goal=   None    Shift=    0.000
 Gap=     0.195 Goal=   None    Shift=    0.000
 RMSDP=1.54D-05 MaxDP=3.71D-04 DE=-1.76D-05 OVMax= 6.98D-04

 Cycle  20  Pass 1  IDiag  1:
 E= -194.744013852338     Delta-E=        0.000005795129 Rises=F Damp=F
 DIIS: error= 1.29D-03 at cycle  20 NSaved=   9.
 NSaved= 9 IEnMin= 6 EnMin= -194.744028996730     IErMin= 6 ErrMin= 8.24D-04
 ErrMax= 1.29D-03  0.00D+00 EMaxC= 1.00D+00 BMatC= 2.61D-05 BMatP= 1.88D-05
 IDIUse=1 WtCom= 1.00D+00 WtEn= 0.00D+00
 Large coefficients: NSaved=  9 BigCof=   11.17 CofMax=   10.00 Det=-8.65D-09
 Inversion failed.  Reducing to  8 matrices.
 Coeff-Com:  0.127D+01-0.274D+01 0.146D+01-0.132D+01 0.198D+01-0.438D+00
 Coeff-Com:  0.215D+01-0.136D+01
 Coeff:      0.127D+01-0.274D+01 0.146D+01-0.132D+01 0.198D+01-0.438D+00
 Coeff:      0.215D+01-0.136D+01
 Gap=     0.168 Goal=   None    Shift=    0.000
 Gap=     0.194 Goal=   None    Shift=    0.000
 GapD=    0.168 DampG=1.000 DampE=1.000 DampFc=1.0000 IDamp=-1.
 RMSDP=5.19D-04 MaxDP=1.17D-02 DE= 5.80D-06 OVMax= 3.09D-02

 Cycle  21  Pass 1  IDiag  1:
 E= -194.744166559372     Delta-E=       -0.000152707034 Rises=F Damp=F
 DIIS: error= 3.26D-04 at cycle  21 NSaved=   9.
 NSaved= 9 IEnMin= 9 EnMin= -194.744166559372     IErMin= 9 ErrMin= 3.26D-04
 ErrMax= 3.26D-04  0.00D+00 EMaxC= 1.00D+00 BMatC= 4.44D-06 BMatP= 1.88D-05
 IDIUse=1 WtCom= 1.00D+00 WtEn= 0.00D+00
 Coeff-Com: -0.673D+00 0.284D+01-0.192D+01-0.566D+00-0.321D+00 0.178D+00
 Coeff-Com:  0.229D+01-0.246D+01 0.162D+01
 Coeff:     -0.673D+00 0.284D+01-0.192D+01-0.566D+00-0.321D+00 0.178D+00
 Coeff:      0.229D+01-0.246D+01 0.162D+01
 Gap=     0.166 Goal=   None    Shift=    0.500
 Gap=     0.194 Goal=   None    Shift=    0.500
 RMSDP=1.25D-04 MaxDP=2.01D-03 DE=-1.53D-04 OVMax= 6.63D-03

 Cycle  22  Pass 1  IDiag  1:
 E= -194.744183065523     Delta-E=       -0.000016506151 Rises=F Damp=F
 DIIS: error= 2.55D-04 at cycle  22 NSaved=  10.
 NSaved=10 IEnMin=10 EnMin= -194.744183065523     IErMin=10 ErrMin= 2.55D-04
 ErrMax= 2.55D-04  0.00D+00 EMaxC= 1.00D+00 BMatC= 2.20D-06 BMatP= 4.44D-06
 IDIUse=1 WtCom= 1.00D+00 WtEn= 0.00D+00
 Coeff-Com:  0.202D+00 0.691D+00-0.760D+00-0.199D+00-0.285D+00 0.966D-01
 Coeff-Com:  0.226D+00-0.459D+00 0.162D+00 0.133D+01
 Coeff:      0.202D+00 0.691D+00-0.760D+00-0.199D+00-0.285D+00 0.966D-01
 Coeff:      0.226D+00-0.459D+00 0.162D+00 0.133D+01
 Gap=     0.167 Goal=   None    Shift=    0.500
 Gap=     0.194 Goal=   None    Shift=    0.500
 RMSDP=3.46D-05 MaxDP=6.86D-04 DE=-1.65D-05 OVMax= 1.77D-03

 Cycle  23  Pass 1  IDiag  1:
 E= -194.744186489057     Delta-E=       -0.000003423534 Rises=F Damp=F
 DIIS: error= 2.76D-04 at cycle  23 NSaved=  11.
 NSaved=11 IEnMin=11 EnMin= -194.744186489057     IErMin=10 ErrMin= 2.55D-04
 ErrMax= 2.76D-04  0.00D+00 EMaxC= 1.00D+00 BMatC= 1.30D-06 BMatP= 2.20D-06
 IDIUse=1 WtCom= 1.00D+00 WtEn= 0.00D+00
 Coeff-Com:  0.561D+00-0.696D+00 0.850D-01 0.233D-01 0.151D+00-0.263D+00
 Coeff-Com: -0.174D+00 0.446D-01 0.117D-01-0.594D+00 0.185D+01
 Coeff:      0.561D+00-0.696D+00 0.850D-01 0.233D-01 0.151D+00-0.263D+00
 Coeff:     -0.174D+00 0.446D-01 0.117D-01-0.594D+00 0.185D+01
 Gap=     0.167 Goal=   None    Shift=    0.500
 Gap=     0.194 Goal=   None    Shift=    0.500
 RMSDP=3.21D-05 MaxDP=5.90D-04 DE=-3.42D-06 OVMax= 1.87D-03

 Cycle  24  Pass 1  IDiag  1:
 E= -194.744189048337     Delta-E=       -0.000002559280 Rises=F Damp=F
 DIIS: error= 2.63D-04 at cycle  24 NSaved=  12.
 NSaved=12 IEnMin=12 EnMin= -194.744189048337     IErMin=10 ErrMin= 2.55D-04
 ErrMax= 2.63D-04  0.00D+00 EMaxC= 1.00D+00 BMatC= 1.09D-06 BMatP= 1.30D-06
 IDIUse=1 WtCom= 1.00D+00 WtEn= 0.00D+00
 Coeff-Com:  0.110D+00-0.495D-01-0.112D-01-0.701D-01 0.853D-02-0.845D-01
 Coeff-Com:  0.248D+00-0.418D+00 0.359D+00 0.249D+00-0.190D+01 0.256D+01
 Coeff:      0.110D+00-0.495D-01-0.112D-01-0.701D-01 0.853D-02-0.845D-01
 Coeff:      0.248D+00-0.418D+00 0.359D+00 0.249D+00-0.190D+01 0.256D+01
 Gap=     0.166 Goal=   None    Shift=    0.500
 Gap=     0.194 Goal=   None    Shift=    0.500
 RMSDP=4.45D-05 MaxDP=8.48D-04 DE=-2.56D-06 OVMax= 2.44D-03

 Cycle  25  Pass 1  IDiag  1:
 E= -194.744191731765     Delta-E=       -0.000002683428 Rises=F Damp=F
 DIIS: error= 1.97D-04 at cycle  25 NSaved=  13.
 NSaved=13 IEnMin=13 EnMin= -194.744191731765     IErMin=13 ErrMin= 1.97D-04
 ErrMax= 1.97D-04  0.00D+00 EMaxC= 1.00D+00 BMatC= 6.95D-07 BMatP= 1.09D-06
 IDIUse=1 WtCom= 1.00D+00 WtEn= 0.00D+00
 Coeff-Com:  0.662D-01 0.166D-01-0.366D-01-0.780D-02-0.143D+00 0.410D-01
 Coeff-Com:  0.148D+00-0.269D+00 0.200D+00 0.239D+00-0.329D+00-0.919D+00
 Coeff-Com:  0.199D+01
 Coeff:      0.662D-01 0.166D-01-0.366D-01-0.780D-02-0.143D+00 0.410D-01
 Coeff:      0.148D+00-0.269D+00 0.200D+00 0.239D+00-0.329D+00-0.919D+00
 Coeff:      0.199D+01
 Gap=     0.166 Goal=   None    Shift=    0.500
 Gap=     0.194 Goal=   None    Shift=    0.500
 RMSDP=2.12D-05 MaxDP=5.27D-04 DE=-2.68D-06 OVMax= 1.22D-03

 Cycle  26  Pass 1  IDiag  1:
 E= -194.744192729867     Delta-E=       -0.000000998102 Rises=F Damp=F
 DIIS: error= 1.57D-04 at cycle  26 NSaved=  14.
 NSaved=14 IEnMin=14 EnMin= -194.744192729867     IErMin=14 ErrMin= 1.57D-04
 ErrMax= 1.57D-04  0.00D+00 EMaxC= 1.00D+00 BMatC= 4.01D-07 BMatP= 6.95D-07
 IDIUse=1 WtCom= 1.00D+00 WtEn= 0.00D+00
 Coeff-Com:  0.112D+00-0.185D+00 0.646D-01 0.562D-02 0.117D+00-0.202D+00
 Coeff-Com: -0.120D-01-0.107D-01 0.467D-01-0.161D-01-0.120D+00 0.163D+01
 Coeff-Com: -0.416D+01 0.373D+01
 Coeff:      0.112D+00-0.185D+00 0.646D-01 0.562D-02 0.117D+00-0.202D+00
 Coeff:     -0.120D-01-0.107D-01 0.467D-01-0.161D-01-0.120D+00 0.163D+01
 Coeff:     -0.416D+01 0.373D+01
 Gap=     0.166 Goal=   None    Shift=    0.500
 Gap=     0.194 Goal=   None    Shift=    0.500
 RMSDP=2.24D-05 MaxDP=5.04D-04 DE=-9.98D-07 OVMax= 1.31D-03

 Cycle  27  Pass 1  IDiag  1:
 E= -194.744193433019     Delta-E=       -0.000000703152 Rises=F Damp=F
 DIIS: error= 1.11D-04 at cycle  27 NSaved=  15.
 NSaved=15 IEnMin=15 EnMin= -194.744193433019     IErMin=15 ErrMin= 1.11D-04
 ErrMax= 1.11D-04  0.00D+00 EMaxC= 1.00D+00 BMatC= 2.26D-07 BMatP= 4.01D-07
 IDIUse=1 WtCom= 1.00D+00 WtEn= 0.00D+00
 Coeff-Com:  0.131D-01-0.681D-01 0.566D-01 0.496D-01-0.684D-01 0.303D-01
 Coeff-Com:  0.203D-01-0.661D-01 0.650D-01 0.442D-01-0.670D+00 0.168D+01
 Coeff-Com:  0.116D+00-0.551D+01 0.531D+01
 Coeff:      0.131D-01-0.681D-01 0.566D-01 0.496D-01-0.684D-01 0.303D-01
 Coeff:      0.203D-01-0.661D-01 0.650D-01 0.442D-01-0.670D+00 0.168D+01
 Coeff:      0.116D+00-0.551D+01 0.531D+01
 Gap=     0.166 Goal=   None    Shift=    0.500
 Gap=     0.194 Goal=   None    Shift=    0.500
 RMSDP=1.10D-05 MaxDP=3.09D-04 DE=-7.03D-07 OVMax= 6.83D-04

 Cycle  28  Pass 1  IDiag  1:
 E= -194.744193702067     Delta-E=       -0.000000269048 Rises=F Damp=F
 DIIS: error= 8.13D-05 at cycle  28 NSaved=  16.
 NSaved=16 IEnMin=16 EnMin= -194.744193702067     IErMin=16 ErrMin= 8.13D-05
 ErrMax= 8.13D-05  0.00D+00 EMaxC= 1.00D+00 BMatC= 1.11D-07 BMatP= 2.26D-07
 IDIUse=1 WtCom= 1.00D+00 WtEn= 0.00D+00
 Coeff-Com:  0.224D-01-0.264D-01 0.154D-01-0.150D-02 0.644D-02-0.495D-01
 Coeff-Com:  0.223D-01-0.351D-01 0.393D-01 0.148D-01-0.827D-01 0.129D+00
 Coeff-Com:  0.469D+00-0.387D+00-0.240D+01 0.326D+01
 Coeff:      0.224D-01-0.264D-01 0.154D-01-0.150D-02 0.644D-02-0.495D-01
 Coeff:      0.223D-01-0.351D-01 0.393D-01 0.148D-01-0.827D-01 0.129D+00
 Coeff:      0.469D+00-0.387D+00-0.240D+01 0.326D+01
 Gap=     0.166 Goal=   None    Shift=    0.500
 Gap=     0.194 Goal=   None    Shift=    0.500
 RMSDP=8.16D-06 MaxDP=2.16D-04 DE=-2.69D-07 OVMax= 5.10D-04

 Cycle  29  Pass 1  IDiag  1:
 E= -194.744193837522     Delta-E=       -0.000000135455 Rises=F Damp=F
 DIIS: error= 5.84D-05 at cycle  29 NSaved=  17.
 NSaved=17 IEnMin=17 EnMin= -194.744193837522     IErMin=17 ErrMin= 5.84D-05
 ErrMax= 5.84D-05  0.00D+00 EMaxC= 1.00D+00 BMatC= 5.74D-08 BMatP= 1.11D-07
 IDIUse=1 WtCom= 1.00D+00 WtEn= 0.00D+00
 Coeff-Com:  0.791D-02-0.543D-01 0.443D-01 0.151D-01 0.319D-02-0.468D-02
 Coeff-Com: -0.229D-01 0.141D-01-0.154D-01-0.122D-01-0.317D-01 0.476D+00
 Coeff-Com: -0.770D+00-0.284D+00 0.264D+01-0.617D+01 0.516D+01
 Coeff:      0.791D-02-0.543D-01 0.443D-01 0.151D-01 0.319D-02-0.468D-02
 Coeff:     -0.229D-01 0.141D-01-0.154D-01-0.122D-01-0.317D-01 0.476D+00
 Coeff:     -0.770D+00-0.284D+00 0.264D+01-0.617D+01 0.516D+01
 Gap=     0.166 Goal=   None    Shift=    0.500
 Gap=     0.194 Goal=   None    Shift=    0.500
 RMSDP=6.24D-06 MaxDP=1.63D-04 DE=-1.35D-07 OVMax= 3.97D-04

 Cycle  30  Pass 1  IDiag  1:
 E= -194.744193907859     Delta-E=       -0.000000070337 Rises=F Damp=F
 DIIS: error= 3.96D-05 at cycle  30 NSaved=  18.
 NSaved=18 IEnMin=18 EnMin= -194.744193907859     IErMin=18 ErrMin= 3.96D-05
 ErrMax= 3.96D-05  0.00D+00 EMaxC= 1.00D+00 BMatC= 2.76D-08 BMatP= 5.74D-08
 IDIUse=1 WtCom= 1.00D+00 WtEn= 0.00D+00
 Coeff-Com:  0.215D-02-0.274D-01 0.191D-01 0.225D-01-0.992D-02-0.100D-02
 Coeff-Com:  0.442D-03-0.583D-02 0.381D-02-0.940D-02-0.150D+00 0.691D+00
 Coeff-Com: -0.650D+00-0.976D+00 0.223D+01-0.162D+01-0.156D+01 0.305D+01
 Coeff:      0.215D-02-0.274D-01 0.191D-01 0.225D-01-0.992D-02-0.100D-02
 Coeff:      0.442D-03-0.583D-02 0.381D-02-0.940D-02-0.150D+00 0.691D+00
 Coeff:     -0.650D+00-0.976D+00 0.223D+01-0.162D+01-0.156D+01 0.305D+01
 Gap=     0.166 Goal=   None    Shift=    0.500
 Gap=     0.194 Goal=   None    Shift=    0.500
 RMSDP=3.93D-06 MaxDP=1.09D-04 DE=-7.03D-08 OVMax= 2.55D-04

 Cycle  31  Pass 1  IDiag  1:
 E= -194.744193938326     Delta-E=       -0.000000030467 Rises=F Damp=F
 DIIS: error= 2.65D-05 at cycle  31 NSaved=  19.
 NSaved=19 IEnMin=19 EnMin= -194.744193938326     IErMin=19 ErrMin= 2.65D-05
 ErrMax= 2.65D-05  0.00D+00 EMaxC= 1.00D+00 BMatC= 1.25D-08 BMatP= 2.76D-08
 IDIUse=1 WtCom= 1.00D+00 WtEn= 0.00D+00
 Coeff-Com: -0.279D-02 0.424D-02 0.113D-02-0.459D-03 0.139D-02-0.606D-02
 Coeff-Com:  0.231D-02-0.190D-02 0.320D-02 0.140D-02-0.357D-01 0.103D+00
 Coeff-Com:  0.135D-01-0.208D+00 0.478D-01-0.473D-01 0.119D+01-0.420D+01
 Coeff-Com:  0.413D+01
 Coeff:     -0.279D-02 0.424D-02 0.113D-02-0.459D-03 0.139D-02-0.606D-02
 Coeff:      0.231D-02-0.190D-02 0.320D-02 0.140D-02-0.357D-01 0.103D+00
 Coeff:      0.135D-01-0.208D+00 0.478D-01-0.473D-01 0.119D+01-0.420D+01
 Coeff:      0.413D+01
 Gap=     0.166 Goal=   None    Shift=    0.500
 Gap=     0.194 Goal=   None    Shift=    0.500
 RMSDP=2.46D-06 MaxDP=7.04D-05 DE=-3.05D-08 OVMax= 1.62D-04

 Cycle  32  Pass 1  IDiag  1:
 E= -194.744193951154     Delta-E=       -0.000000012827 Rises=F Damp=F
 DIIS: error= 1.77D-05 at cycle  32 NSaved=  20.
 NSaved=20 IEnMin=20 EnMin= -194.744193951154     IErMin=20 ErrMin= 1.77D-05
 ErrMax= 1.77D-05  0.00D+00 EMaxC= 1.00D+00 BMatC= 5.60D-09 BMatP= 1.25D-08
 IDIUse=1 WtCom= 1.00D+00 WtEn= 0.00D+00
 Coeff-Com: -0.188D-02-0.586D-03 0.359D-02 0.732D-05 0.160D-02-0.984D-03
 Coeff-Com: -0.406D-02 0.315D-02-0.197D-02-0.414D-02 0.108D-01 0.313D-01
 Coeff-Com: -0.772D-01 0.149D-01 0.301D+00-0.938D+00 0.939D+00 0.340D+00
 Coeff-Com: -0.330D+01 0.368D+01
 Coeff:     -0.188D-02-0.586D-03 0.359D-02 0.732D-05 0.160D-02-0.984D-03
 Coeff:     -0.406D-02 0.315D-02-0.197D-02-0.414D-02 0.108D-01 0.313D-01
 Coeff:     -0.772D-01 0.149D-01 0.301D+00-0.938D+00 0.939D+00 0.340D+00
 Coeff:     -0.330D+01 0.368D+01
 Gap=     0.166 Goal=   None    Shift=    0.500
 Gap=     0.194 Goal=   None    Shift=    0.500
 RMSDP=1.63D-06 MaxDP=4.65D-05 DE=-1.28D-08 OVMax= 1.08D-04

 >>>>>>>>>> Convergence criterion not met.
 SCF Done:  E(ULC-wHPBE) =  -194.744193951     A.U. after   33 cycles
            NFock= 32  Conv=0.16D-05     -V/T= 2.0147
 <Sx>= 0.0000 <Sy>= 0.0000 <Sz>= 0.5000 <S**2>= 1.0162 S= 0.6252
 <L.S>= 0.000000000000E+00
 KE= 1.919170394082D+02 PE=-7.303338993792D+02 EE= 1.986507662268D+02
 Annihilation of the first spin contaminant:
 S**2 before annihilation     1.0162,   after     0.7989
 Leave Link  502 at Thu Mar  5 12:42:36 2020, MaxMem=  6710886400 cpu:              60.3 elap:               3.9
 (Enter /opt/ohpc/pub/libs/gaussian/g16-A.03/sandybridge/g16/l508.exe)
 Keep R1 and R2 ints in memory in symmetry-blocked form, NReq=16816059.
 FoFCou: FMM=F IPFlag=           0 FMFlag=           0 FMFlg1=           0
         NFxFlg=           0 DoJE=F BraDBF=F KetDBF=F FulRan=T
         wScrn=  0.000000 ICntrl=       600 IOpCl=  0 I1Cent=           0 NGrid=           0
         NMat0=    1 NMatS0=   1653 NMatT0=    0 NMatD0=    1 NMtDS0=    0 NMtDT0=    0
 Petite list used in FoFCou.
 Tight linear equation convergence will be used.
 ULC-wHPBE wavefunction.
 Quadratic Convergence SCF Method.
 Line search only if initial step raises energy.
 Iteration   1 EE= -194.744193956704                                    Grad=3.499D-05 Max rot=    0.0015 deg.
 Rotation gradient small -- convergence achieved.
 Orbital symmetries in SymMO:
    1=4    2=1    3=4    4=1    5=1    6=1    7=4    8=1    9=4   10=1
   11=1   12=4   13=4   14=1   15=3   16=1   17=2   18=3   19=4   20=1
   21=2   22=3   23=1   24=4   25=1   26=4   27=1   28=1   29=4   30=1
   31=4   32=3   33=4   34=3   35=2   36=1   37=1   38=4   39=1   40=2
   41=1   42=3   43=4   44=1   45=4   46=1   47=4   48=1   49=1   50=1
   51=4   52=1   53=4   54=4   55=1   56=1   57=4
 Orbital symmetries in SymMO:
    1=4    2=1    3=4    4=1    5=1    6=1    7=4    8=1    9=4   10=1
   11=1   12=4   13=4   14=1   15=1   16=3   17=2   18=1   19=3   20=4
   21=2   22=3   23=1   24=4   25=1   26=4   27=1   28=1   29=4   30=1
   31=4   32=3   33=4   34=1   35=2   36=3   37=1   38=4   39=1   40=2
   41=1   42=4   43=3   44=1   45=4   46=1   47=4   48=1   49=1   50=1
   51=4   52=1   53=4   54=4   55=1   56=1   57=4
 SCF Done:  E(ULC-wHPBE) =  -194.744193957     a.u. after    1 cycles
            Convg  =    0.3499D-04                     1 Fock formations.
              S**2 =  1.0162                  -V/T =  2.0147
 <Sx>= 0.0000 <Sy>= 0.0000 <Sz>= 0.5000 <S**2>= 1.0162 S= 0.6252
 <L.S>= 0.000000000000E+00
 Annihilation of the first spin contaminant:
 S**2 before annihilation     1.0162,   after     0.7989
 Leave Link  508 at Thu Mar  5 12:42:36 2020, MaxMem=  6710886400 cpu:               4.7 elap:               0.3
 (Enter /opt/ohpc/pub/libs/gaussian/g16-A.03/sandybridge/g16/l601.exe)
 Copying SCF densities to generalized density rwf, IOpCl= 1 IROHF=0.

 **********************************************************************

            Population analysis using the SCF density.

 **********************************************************************

 Orbital symmetries:
 Alpha Orbitals:
       Occupied  (B2) (A1) (B2) (A1) (A1) (A1) (B2) (A1) (B2) (A1)
                 (A1) (B2) (B2) (A1) (B1) (A1) (A2) (B1)
       Virtual   (B2) (A1) (A2) (B1) (A1) (B2) (A1) (B2) (A1) (A1)
                 (B2) (A1) (B2) (B1) (B2) (B1) (A2) (A1) (A1) (B2)
                 (A1) (A2) (A1) (B1) (B2) (A1) (B2) (A1) (B2) (A1)
                 (A1) (A1) (B2) (A1) (B2) (B2) (A1) (A1) (B2)
 Beta  Orbitals:
       Occupied  (B2) (A1) (B2) (A1) (A1) (A1) (B2) (A1) (B2) (A1)
                 (A1) (B2) (B2) (A1) (A1) (B1) (A2)
       Virtual   (A1) (B1) (B2) (A2) (B1) (A1) (B2) (A1) (B2) (A1)
                 (A1) (B2) (A1) (B2) (B1) (B2) (A1) (A2) (B1) (A1)
                 (B2) (A1) (A2) (A1) (B2) (B1) (A1) (B2) (A1) (B2)
                 (A1) (A1) (A1) (B2) (A1) (B2) (B2) (A1) (A1) (B2)
 The electronic state is 2-B1.
 Alpha  occ. eigenvalues --  -10.37690 -10.37689 -10.30033 -10.30033 -10.29268
 Alpha  occ. eigenvalues --   -1.15654  -1.06810  -1.00318  -0.89588  -0.82503
 Alpha  occ. eigenvalues --   -0.81965  -0.74971  -0.70332  -0.68138  -0.67167
 Alpha  occ. eigenvalues --   -0.64162  -0.58205  -0.51336
 Alpha virt. eigenvalues --   -0.34697  -0.31252  -0.21189  -0.10473  -0.06340
 Alpha virt. eigenvalues --   -0.02430   0.01003   0.02466   0.03817   0.11617
 Alpha virt. eigenvalues --    0.13007   0.21037   0.22441   0.30998   0.33625
 Alpha virt. eigenvalues --    0.41023   0.41189   0.41201   0.43506   0.44739
 Alpha virt. eigenvalues --    0.46648   0.48483   0.49390   0.51244   0.51437
 Alpha virt. eigenvalues --    0.63245   0.66230   0.68320   0.71681   0.71724
 Alpha virt. eigenvalues --    0.77147   0.78940   0.80670   0.86736   0.93763
 Alpha virt. eigenvalues --    0.98393   1.03158   1.25843   1.26413
  Beta  occ. eigenvalues --  -10.36633 -10.36630 -10.30435 -10.30434 -10.28430
  Beta  occ. eigenvalues --   -1.14651  -1.06067  -0.97520  -0.88524  -0.82008
  Beta  occ. eigenvalues --   -0.81090  -0.74439  -0.70010  -0.67504  -0.65145
  Beta  occ. eigenvalues --   -0.64033  -0.55530
  Beta virt. eigenvalues --   -0.36170  -0.29904  -0.29825  -0.18223  -0.07973
  Beta virt. eigenvalues --   -0.06051  -0.02078   0.01553   0.02559   0.04274
  Beta virt. eigenvalues --    0.12256   0.13528   0.21637   0.22676   0.34073
  Beta virt. eigenvalues --    0.34250   0.41694   0.42774   0.43256   0.44150
  Beta virt. eigenvalues --    0.45300   0.46928   0.49163   0.51505   0.52351
  Beta virt. eigenvalues --    0.52596   0.58472   0.66696   0.67359   0.71789
  Beta virt. eigenvalues --    0.72679   0.77644   0.79031   0.81127   0.88011
  Beta virt. eigenvalues --    0.93955   0.99096   1.03714   1.26618   1.27811
          Condensed to atoms (all electrons):
               1          2          3          4          5          6
     1  C    5.193067   0.506112  -0.061908  -0.040905   0.138288   0.093699
     2  C    0.506112   4.966286   0.489835  -0.059280  -0.040905  -0.002853
     3  C   -0.061908   0.489835   4.863501   0.489835  -0.061908   0.000303
     4  C   -0.040905  -0.059280   0.489835   4.966286   0.506112  -0.002853
     5  C    0.138288  -0.040905  -0.061908   0.506112   5.193067   0.093699
     6  H    0.093699  -0.002853   0.000303  -0.002853   0.093699   0.553469
     7  H    0.346274  -0.028098   0.002500   0.000690  -0.002600  -0.005196
     8  H   -0.023894   0.352819  -0.010758   0.003176   0.000438   0.000101
     9  H    0.004068  -0.028215   0.367390  -0.028215   0.004068  -0.000001
    10  H    0.000438   0.003176  -0.010758   0.352819  -0.023894   0.000101
    11  H   -0.002600   0.000690   0.002500  -0.028098   0.346274  -0.005196
               7          8          9         10         11
     1  C    0.346274  -0.023894   0.004068   0.000438  -0.002600
     2  C   -0.028098   0.352819  -0.028215   0.003176   0.000690
     3  C    0.002500  -0.010758   0.367390  -0.010758   0.002500
     4  C    0.000690   0.003176  -0.028215   0.352819  -0.028098
     5  C   -0.002600   0.000438   0.004068  -0.023894   0.346274
     6  H   -0.005196   0.000101  -0.000001   0.000101  -0.005196
     7  H    0.399412   0.000631  -0.000086  -0.000007   0.000023
     8  H    0.000631   0.381292  -0.002463  -0.000055  -0.000007
     9  H   -0.000086  -0.002463   0.436150  -0.002463  -0.000086
    10  H   -0.000007  -0.000055  -0.002463   0.381292   0.000631
    11  H    0.000023  -0.000007  -0.000086   0.000631   0.399412
          Atomic-Atomic Spin Densities.
               1          2          3          4          5          6
     1  C    0.810865  -0.040199  -0.019303  -0.013707   0.062194  -0.016069
     2  C   -0.040199  -0.342784   0.012956   0.007794  -0.013707  -0.000653
     3  C   -0.019303   0.012956   0.669329   0.012956  -0.019303   0.000042
     4  C   -0.013707   0.007794   0.012956  -0.342784  -0.040199  -0.000653
     5  C    0.062194  -0.013707  -0.019303  -0.040199   0.810865  -0.016069
     6  H   -0.016069  -0.000653   0.000042  -0.000653  -0.016069  -0.362260
     7  H   -0.009054   0.002593  -0.000094   0.000062  -0.000302   0.002929
     8  H   -0.002437   0.005087  -0.001258  -0.000209   0.000234  -0.000019
     9  H    0.000054   0.000006  -0.001625   0.000006   0.000054   0.000000
    10  H    0.000234  -0.000209  -0.001258   0.005087  -0.002437  -0.000019
    11  H   -0.000302   0.000062  -0.000094   0.002593  -0.009054   0.002929
               7          8          9         10         11
     1  C   -0.009054  -0.002437   0.000054   0.000234  -0.000302
     2  C    0.002593   0.005087   0.000006  -0.000209   0.000062
     3  C   -0.000094  -0.001258  -0.001625  -0.001258  -0.000094
     4  C    0.000062  -0.000209   0.000006   0.005087   0.002593
     5  C   -0.000302   0.000234   0.000054  -0.002437  -0.009054
     6  H    0.002929  -0.000019   0.000000  -0.000019   0.002929
     7  H   -0.035357   0.000042   0.000006  -0.000000  -0.000008
     8  H    0.000042   0.018367   0.000018   0.000008  -0.000000
     9  H    0.000006   0.000018  -0.028791   0.000018   0.000006
    10  H   -0.000000   0.000008   0.000018   0.018367   0.000042
    11  H   -0.000008  -0.000000   0.000006   0.000042  -0.035357
 Mulliken charges and spin densities:
               1          2
     1  C   -0.152639   0.772276
     2  C   -0.159566  -0.369053
     3  C   -0.070531   0.652349
     4  C   -0.159566  -0.369053
     5  C   -0.152639   0.772276
     6  H    0.274728  -0.389843
     7  H    0.286458  -0.039184
     8  H    0.298722   0.019832
     9  H    0.249853  -0.030248
    10  H    0.298722   0.019832
    11  H    0.286458  -0.039184
 Sum of Mulliken charges =   1.00000   1.00000
 Mulliken charges and spin densities with hydrogens summed into heavy atoms:
               1          2
     1  C    0.408547   0.343249
     2  C    0.139156  -0.349222
     3  C    0.179322   0.622101
     4  C    0.139156  -0.349222
     5  C    0.133819   0.733092
 Electronic spatial extent (au):  <R**2>=            374.4262
 Charge=              1.0000 electrons
 Dipole moment (field-independent basis, Debye):
    X=             -0.0000    Y=             -0.0000    Z=             -2.7109  Tot=              2.7109
 Quadrupole moment (field-independent basis, Debye-Ang):
   XX=            -32.2960   YY=            -12.8193   ZZ=            -10.5146
   XY=              0.0000   XZ=              0.0000   YZ=              0.0000
 Traceless Quadrupole moment (field-independent basis, Debye-Ang):
   XX=            -13.7527   YY=              5.7240   ZZ=              8.0287
   XY=              0.0000   XZ=              0.0000   YZ=              0.0000
 Octapole moment (field-independent basis, Debye-Ang**2):
  XXX=              0.0000  YYY=             -0.0000  ZZZ=            -21.3572  XYY=             -0.0000
  XXY=             -0.0000  XXZ=              1.5555  XZZ=              0.0000  YZZ=             -0.0000
  YYZ=             -3.3953  XYZ=             -0.0000
 Hexadecapole moment (field-independent basis, Debye-Ang**3):
 XXXX=            -32.7489 YYYY=           -176.8702 ZZZZ=            -98.3922 XXXY=             -0.0000
 XXXZ=             -0.0000 YYYX=             -0.0000 YYYZ=              0.0000 ZZZX=             -0.0000
 ZZZY=              0.0000 XXYY=            -54.7893 XXZZ=            -43.9597 YYZZ=            -49.8151
 XXYZ=              0.0000 YYXZ=              0.0000 ZZXY=             -0.0000
 N-N= 1.450218997931D+02 E-N=-7.303337227410D+02  KE= 1.919170394082D+02
 Symmetry A1   KE= 1.108431224872D+02
 Symmetry A2   KE= 2.427848290809D+00
 Symmetry B1   KE= 3.329934366907D+00
 Symmetry B2   KE= 7.531613426326D+01
 Symmetry A1   SP=-1.299416303724D-15
 Symmetry A2   SP=-9.207044848747D-16
 Symmetry B1   SP= 1.000000000000D+00
 Symmetry B2   SP=-4.462982717765D-16
                          Isotropic Fermi Contact Couplings
        Atom                 a.u.       MegaHertz       Gauss      10(-4) cm-1
     1  C(13)              0.15214     171.03585      61.02984      57.05142
     2  C(13)             -0.05955     -66.94401     -23.88729     -22.33012
     3  C(13)              0.10532     118.39488      42.24624      39.49228
     4  C(13)             -0.05955     -66.94401     -23.88729     -22.33012
     5  C(13)              0.15214     171.03585      61.02984      57.05142
     6  H(1)              -0.13409    -599.35300    -213.86405    -199.92264
     7  H(1)              -0.01510     -67.50715     -24.08823     -22.51796
     8  H(1)               0.00847      37.86932      13.51272      12.63185
     9  H(1)              -0.01129     -50.47740     -18.01159     -16.83745
    10  H(1)               0.00847      37.86932      13.51272      12.63185
    11  H(1)              -0.01510     -67.50715     -24.08823     -22.51796
 --------------------------------------------------------
       Center         ----  Spin Dipole Couplings  ----
                      3XX-RR        3YY-RR        3ZZ-RR
 --------------------------------------------------------
     1   Atom        0.523902     -0.211816     -0.312085
     2   Atom       -0.293528      0.112749      0.180779
     3   Atom        0.614535     -0.332530     -0.282006
     4   Atom       -0.293528      0.112749      0.180779
     5   Atom        0.523902     -0.211816     -0.312085
     6   Atom       -0.017357     -0.006225      0.023583
     7   Atom       -0.014364      0.037201     -0.022837
     8   Atom       -0.008261     -0.000451      0.008711
     9   Atom       -0.006403     -0.040785      0.047188
    10   Atom       -0.008261     -0.000451      0.008711
    11   Atom       -0.014364      0.037201     -0.022837
 --------------------------------------------------------
                        XY            XZ            YZ
 --------------------------------------------------------
     1   Atom        0.000000      0.000000      0.111970
     2   Atom       -0.000000      0.000000      0.001742
     3   Atom       -0.000000      0.000000      0.000000
     4   Atom       -0.000000     -0.000000     -0.001742
     5   Atom        0.000000      0.000000     -0.111970
     6   Atom        0.000000     -0.000000      0.000000
     7   Atom        0.000000      0.000000     -0.045004
     8   Atom        0.000000      0.000000     -0.009995
     9   Atom       -0.000000     -0.000000      0.000000
    10   Atom        0.000000     -0.000000      0.009995
    11   Atom        0.000000      0.000000      0.045004
 --------------------------------------------------------


 ---------------------------------------------------------------------------------
              Anisotropic Spin Dipole Couplings in Principal Axis System
 ---------------------------------------------------------------------------------

       Atom             a.u.   MegaHertz   Gauss  10(-4) cm-1        Axes

              Baa    -0.3846   -51.614   -18.417   -17.217 -0.0000 -0.5438  0.8392
     1 C(13)  Bbb    -0.1393   -18.689    -6.669    -6.234  0.0000  0.8392  0.5438
              Bcc     0.5239    70.303    25.086    23.450  1.0000 -0.0000  0.0000
 
              Baa    -0.2935   -39.389   -14.055   -13.139  1.0000 -0.0000  0.0000
     2 C(13)  Bbb     0.1127    15.124     5.397     5.045  0.0000  0.9997 -0.0256
              Bcc     0.1808    24.265     8.658     8.094  0.0000  0.0256  0.9997
 
              Baa    -0.3325   -44.622   -15.922   -14.884  0.0000  1.0000 -0.0000
     3 C(13)  Bbb    -0.2820   -37.842   -13.503   -12.623 -0.0000  0.0000  1.0000
              Bcc     0.6145    82.465    29.425    27.507  1.0000  0.0000  0.0000
 
              Baa    -0.2935   -39.389   -14.055   -13.139  1.0000  0.0000  0.0000
     4 C(13)  Bbb     0.1127    15.124     5.397     5.045 -0.0000  0.9997  0.0256
              Bcc     0.1808    24.265     8.658     8.094 -0.0000 -0.0256  0.9997
 
              Baa    -0.3846   -51.614   -18.417   -17.217 -0.0000  0.5438  0.8392
     5 C(13)  Bbb    -0.1393   -18.689    -6.669    -6.234 -0.0000  0.8392 -0.5438
              Bcc     0.5239    70.303    25.086    23.450  1.0000  0.0000  0.0000
 
              Baa    -0.0174    -9.261    -3.305    -3.089  1.0000 -0.0000  0.0000
     6 H(1)   Bbb    -0.0062    -3.321    -1.185    -1.108  0.0000  1.0000 -0.0000
              Bcc     0.0236    12.583     4.490     4.197 -0.0000  0.0000  1.0000
 
              Baa    -0.0469   -25.032    -8.932    -8.350 -0.0000  0.4717  0.8817
     7 H(1)   Bbb    -0.0144    -7.664    -2.735    -2.556  1.0000  0.0000  0.0000
              Bcc     0.0613    32.696    11.667    10.906 -0.0000  0.8817 -0.4717
 
              Baa    -0.0083    -4.408    -1.573    -1.470  1.0000  0.0000  0.0000
     8 H(1)   Bbb    -0.0069    -3.663    -1.307    -1.222 -0.0000  0.8416  0.5401
              Bcc     0.0151     8.070     2.880     2.692  0.0000 -0.5401  0.8416
 
              Baa    -0.0408   -21.761    -7.765    -7.259  0.0000  1.0000 -0.0000
     9 H(1)   Bbb    -0.0064    -3.416    -1.219    -1.140  1.0000 -0.0000  0.0000
              Bcc     0.0472    25.177     8.984     8.398  0.0000  0.0000  1.0000
 
              Baa    -0.0083    -4.408    -1.573    -1.470  1.0000 -0.0000  0.0000
    10 H(1)   Bbb    -0.0069    -3.663    -1.307    -1.222  0.0000  0.8416 -0.5401
              Bcc     0.0151     8.070     2.880     2.692  0.0000  0.5401  0.8416
 
              Baa    -0.0469   -25.032    -8.932    -8.350 -0.0000 -0.4717  0.8817
    11 H(1)   Bbb    -0.0144    -7.664    -2.735    -2.556  1.0000 -0.0000  0.0000
              Bcc     0.0613    32.696    11.667    10.906  0.0000  0.8817  0.4717
 

 ---------------------------------------------------------------------------------

 No NMR shielding tensors so no spin-rotation constants.
 Leave Link  601 at Thu Mar  5 12:42:37 2020, MaxMem=  6710886400 cpu:               3.0 elap:               0.2
 (Enter /opt/ohpc/pub/libs/gaussian/g16-A.03/sandybridge/g16/l9999.exe)

 Test job not archived.
 1\1\GINC-CNODE212\SP\ULC-wHPBE\6-31G\C5H6(1+,2)\SMGO234\05-Mar-2020\0\
 \#P uLC-wHPBE/6-31G iop(3/130=0393800000, 3/131=0393800000, 3/119=0606
 200000, 3/120=0606200000) scf=(conver=6,fermi,ndamp=35,noincfock,novar
 acc,vshift=500,xqc)\\H6 C5\\1,2\C,0,-1.206512,0.69658,0.\C,0,-1.206512
 ,-0.69658,0.\C,0,0.,-1.39316,0.\C,0,1.206512,-0.69658,0.\C,0,1.206512,
 0.69658,0.\H,0,0.,2.482681,0.\H,0,-2.150065,1.24134,0.\H,0,-2.150065,-
 1.24134,0.\H,0,0.,-2.482681,0.\H,0,2.150065,-1.24134,0.\H,0,2.150065,1
 .24134,0.\\Version=EM64L-G16RevA.03\State=2-B1\HF=-194.744194\S2=1.016
 176\S2-1=0.\S2A=0.798862\RMSD=9.412e-07\Dipole=0.,1.0665399,0.\Quadrup
 ole=4.2556514,5.9691335,-10.2247849,0.,0.,0.\PG=C02V [C2(H1C1H1),SGV(C
 4H4)]\\@


 MORNING PEOPLE ARE USUALLY ADMIRED AS EARLY BIRDS.
 RECALL BEN FRANKLIN'S APHORISM THAT THE EARLY BIRD GETS THE WORM.
 I IDENTIFY WITH THE WORM. --  CRAIG JAGGER, MINNEAPOLIS, KS.
 Job cpu time:       0 days  0 hours  1 minutes 30.2 seconds.
 Elapsed time:       0 days  0 hours  0 minutes  6.0 seconds.
 File lengths (MBytes):  RWF=    272 Int=      0 D2E=      0 Chk=     32 Scr=     32
 Normal termination of Gaussian 16 at Thu Mar  5 12:42:37 2020.
