 Entering Gaussian System, Link 0=g16
 Input=a1b_tune_c7.gjf
 Output=a1b_tune_c7.log
 Initial command:
 /opt/ohpc/pub/libs/gaussian/g16-A.03/sandybridge/g16/l1.exe "/scratch/smgo234/Ocelot/test/a1b/tuning_a1b_acycle0/Gau-72974.inp" -scrdir="/scratch/smgo234/Ocelot/test/a1b/tuning_a1b_acycle0/"
 Entering Link 1 = /opt/ohpc/pub/libs/gaussian/g16-A.03/sandybridge/g16/l1.exe PID=     72975.
  
 Copyright (c) 1988,1990,1992,1993,1995,1998,2003,2009,2016,
            Gaussian, Inc.  All Rights Reserved.
  
 This is part of the Gaussian(R) 16 program.  It is based on
 the Gaussian(R) 09 system (copyright 2009, Gaussian, Inc.),
 the Gaussian(R) 03 system (copyright 2003, Gaussian, Inc.),
 the Gaussian(R) 98 system (copyright 1998, Gaussian, Inc.),
 the Gaussian(R) 94 system (copyright 1995, Gaussian, Inc.),
 the Gaussian 92(TM) system (copyright 1992, Gaussian, Inc.),
 the Gaussian 90(TM) system (copyright 1990, Gaussian, Inc.),
 the Gaussian 88(TM) system (copyright 1988, Gaussian, Inc.),
 the Gaussian 86(TM) system (copyright 1986, Carnegie Mellon
 University), and the Gaussian 82(TM) system (copyright 1983,
 Carnegie Mellon University). Gaussian is a federally registered
 trademark of Gaussian, Inc.
  
 This software contains proprietary and confidential information,
 including trade secrets, belonging to Gaussian, Inc.
  
 This software is provided under written license and may be
 used, copied, transmitted, or stored only in accord with that
 written license.
  
 The following legend is applicable only to US Government
 contracts under FAR:
  
                    RESTRICTED RIGHTS LEGEND
  
 Use, reproduction and disclosure by the US Government is
 subject to restrictions as set forth in subparagraphs (a)
 and (c) of the Commercial Computer Software - Restricted
 Rights clause in FAR 52.227-19.
  
 Gaussian, Inc.
 340 Quinnipiac St., Bldg. 40, Wallingford CT 06492
  
  
 ---------------------------------------------------------------
 Warning -- This program may not be used in any manner that
 competes with the business of Gaussian, Inc. or will provide
 assistance to any competitor of Gaussian, Inc.  The licensee
 of this program is prohibited from giving any competitor of
 Gaussian, Inc. access to this program.  By using this program,
 the user acknowledges that Gaussian, Inc. is engaged in the
 business of creating and licensing software in the field of
 computational chemistry and represents and warrants to the
 licensee that it is not a competitor of Gaussian, Inc. and that
 it will not use this program in any manner prohibited above.
 ---------------------------------------------------------------
  

 Cite this work as:
 Gaussian 16, Revision A.03,
 M. J. Frisch, G. W. Trucks, H. B. Schlegel, G. E. Scuseria, 
 M. A. Robb, J. R. Cheeseman, G. Scalmani, V. Barone, 
 G. A. Petersson, H. Nakatsuji, X. Li, M. Caricato, A. V. Marenich, 
 J. Bloino, B. G. Janesko, R. Gomperts, B. Mennucci, H. P. Hratchian, 
 J. V. Ortiz, A. F. Izmaylov, J. L. Sonnenberg, D. Williams-Young, 
 F. Ding, F. Lipparini, F. Egidi, J. Goings, B. Peng, A. Petrone, 
 T. Henderson, D. Ranasinghe, V. G. Zakrzewski, J. Gao, N. Rega, 
 G. Zheng, W. Liang, M. Hada, M. Ehara, K. Toyota, R. Fukuda, 
 J. Hasegawa, M. Ishida, T. Nakajima, Y. Honda, O. Kitao, H. Nakai, 
 T. Vreven, K. Throssell, J. A. Montgomery, Jr., J. E. Peralta, 
 F. Ogliaro, M. J. Bearpark, J. J. Heyd, E. N. Brothers, K. N. Kudin, 
 V. N. Staroverov, T. A. Keith, R. Kobayashi, J. Normand, 
 K. Raghavachari, A. P. Rendell, J. C. Burant, S. S. Iyengar, 
 J. Tomasi, M. Cossi, J. M. Millam, M. Klene, C. Adamo, R. Cammi, 
 J. W. Ochterski, R. L. Martin, K. Morokuma, O. Farkas, 
 J. B. Foresman, and D. J. Fox, Gaussian, Inc., Wallingford CT, 2016.
 
 ******************************************
 Gaussian 16:  EM64L-G16RevA.03 25-Dec-2016
                 5-Mar-2020 
 ******************************************
 %mem=50GB
 %nproc=16
 Will use up to   16 processors via shared memory.
 ----------------------------------------------------------------------
 #P uLC-wHPBE/6-31G iop(3/130=0278000000, 3/131=0278000000, 3/119=07220
 00000, 3/120=0722000000) scf=(conver=6,fermi,ndamp=35,noincfock,novara
 cc,vshift=500,xqc)
 ----------------------------------------------------------------------
 1/38=1,172=1/1;
 2/12=2,17=6,18=5,40=1/2;
 3/5=1,6=6,11=2,25=1,30=1,74=-71,116=2,119=722000000,120=722000000,130=278000000,131=278000000/1,2,3;
 4//1;
 5/5=100002,6=6,8=3,10=500,13=1,18=-1,22=13,38=1,93=35/2,8;
 6/7=2,8=2,9=2,10=2,28=1/1;
 99/5=1,9=1/99;
 Leave Link    1 at Thu Mar  5 12:44:27 2020, MaxMem=  6710886400 cpu:              17.2 elap:               1.1
 (Enter /opt/ohpc/pub/libs/gaussian/g16-A.03/sandybridge/g16/l101.exe)
 -----
 H6 C5
 -----
 Symbolic Z-matrix:
 Charge =  1 Multiplicity = 2
 C                    -1.20651   0.69658   0. 
 C                    -1.20651  -0.69658   0. 
 C                     0.       -1.39316   0. 
 C                     1.20651  -0.69658   0. 
 C                     1.20651   0.69658   0. 
 H                     0.        2.48268   0. 
 H                    -2.15007   1.24134   0. 
 H                    -2.15007  -1.24134   0. 
 H                     0.       -2.48268   0. 
 H                     2.15007  -1.24134   0. 
 H                     2.15007   1.24134   0. 
 
 ITRead=  0  0  0  0  0  0  0  0  0  0  0
 MicOpt= -1 -1 -1 -1 -1 -1 -1 -1 -1 -1 -1
 NAtoms=     11 NQM=       11 NQMF=       0 NMMI=      0 NMMIF=      0
                NMic=       0 NMicF=      0.
                    Isotopes and Nuclear Properties:
 (Nuclear quadrupole moments (NQMom) in fm**2, nuclear magnetic moments (NMagM)
  in nuclear magnetons)

  Atom         1           2           3           4           5           6           7           8           9          10
 IAtWgt=          12          12          12          12          12           1           1           1           1           1
 AtmWgt=  12.0000000  12.0000000  12.0000000  12.0000000  12.0000000   1.0078250   1.0078250   1.0078250   1.0078250   1.0078250
 NucSpn=           0           0           0           0           0           1           1           1           1           1
 AtZEff=  -0.0000000  -0.0000000  -0.0000000  -0.0000000  -0.0000000  -0.0000000  -0.0000000  -0.0000000  -0.0000000  -0.0000000
 NQMom=    0.0000000   0.0000000   0.0000000   0.0000000   0.0000000   0.0000000   0.0000000   0.0000000   0.0000000   0.0000000
 NMagM=    0.0000000   0.0000000   0.0000000   0.0000000   0.0000000   2.7928460   2.7928460   2.7928460   2.7928460   2.7928460
 AtZNuc=   6.0000000   6.0000000   6.0000000   6.0000000   6.0000000   1.0000000   1.0000000   1.0000000   1.0000000   1.0000000

  Atom        11
 IAtWgt=           1
 AtmWgt=   1.0078250
 NucSpn=           1
 AtZEff=  -0.0000000
 NQMom=    0.0000000
 NMagM=    2.7928460
 AtZNuc=   1.0000000
 Leave Link  101 at Thu Mar  5 12:44:27 2020, MaxMem=  6710886400 cpu:               4.0 elap:               0.3
 (Enter /opt/ohpc/pub/libs/gaussian/g16-A.03/sandybridge/g16/l202.exe)
                          Input orientation:                          
 ---------------------------------------------------------------------
 Center     Atomic      Atomic             Coordinates (Angstroms)
 Number     Number       Type             X           Y           Z
 ---------------------------------------------------------------------
      1          6           0       -1.206512    0.696580    0.000000
      2          6           0       -1.206512   -0.696580    0.000000
      3          6           0        0.000000   -1.393160    0.000000
      4          6           0        1.206512   -0.696580    0.000000
      5          6           0        1.206512    0.696580    0.000000
      6          1           0        0.000000    2.482681    0.000000
      7          1           0       -2.150065    1.241340    0.000000
      8          1           0       -2.150065   -1.241340    0.000000
      9          1           0        0.000000   -2.482681    0.000000
     10          1           0        2.150065   -1.241340    0.000000
     11          1           0        2.150065    1.241340    0.000000
 ---------------------------------------------------------------------
                    Distance matrix (angstroms):
                    1          2          3          4          5
     1  C    0.000000
     2  C    1.393160   0.000000
     3  C    2.413024   1.393160   0.000000
     4  C    2.786320   2.413024   1.393160   0.000000
     5  C    2.413024   2.786320   2.413024   1.393160   0.000000
     6  H    2.155418   3.400496   3.875841   3.400496   2.155418
     7  H    1.089521   2.155418   3.400496   3.875841   3.400496
     8  H    2.155418   1.089521   2.155418   3.400496   3.875841
     9  H    3.400496   2.155418   1.089521   2.155418   3.400496
    10  H    3.875841   3.400496   2.155418   1.089521   2.155418
    11  H    3.400496   3.875841   3.400496   2.155418   1.089521
                    6          7          8          9         10
     6  H    0.000000
     7  H    2.482681   0.000000
     8  H    4.300129   2.482680   0.000000
     9  H    4.965362   4.300129   2.482681   0.000000
    10  H    4.300129   4.965362   4.300130   2.482681   0.000000
    11  H    2.482681   4.300130   4.965362   4.300129   2.482680
                   11
    11  H    0.000000
 Stoichiometry    C5H6(1+,2)
 Framework group  C2V[C2(HCH),SGV(C4H4)]
 Deg. of freedom    10
 Full point group                 C2V     NOp   4
 Largest Abelian subgroup         C2V     NOp   4
 Largest concise Abelian subgroup C2      NOp   2
                         Standard orientation:                         
 ---------------------------------------------------------------------
 Center     Atomic      Atomic             Coordinates (Angstroms)
 Number     Number       Type             X           Y           Z
 ---------------------------------------------------------------------
      1          6           0       -0.000000    1.206512   -0.928773
      2          6           0       -0.000000    1.206512    0.464387
      3          6           0        0.000000    0.000000    1.160967
      4          6           0       -0.000000   -1.206512    0.464387
      5          6           0       -0.000000   -1.206512   -0.928773
      6          1           0       -0.000000   -0.000000   -2.714874
      7          1           0       -0.000000    2.150065   -1.473533
      8          1           0       -0.000000    2.150065    1.009147
      9          1           0        0.000000    0.000000    2.250488
     10          1           0       -0.000000   -2.150065    1.009147
     11          1           0       -0.000000   -2.150065   -1.473533
 ---------------------------------------------------------------------
 Rotational constants (GHZ):           8.2868568           5.7099792           3.3806054
 Leave Link  202 at Thu Mar  5 12:44:27 2020, MaxMem=  6710886400 cpu:               0.9 elap:               0.4
 (Enter /opt/ohpc/pub/libs/gaussian/g16-A.03/sandybridge/g16/l301.exe)
 Standard basis: 6-31G (6D, 7F)
 Ernie: Thresh=  0.10000D-02 Tol=  0.10000D-05 Strict=F.
 There are    27 symmetry adapted cartesian basis functions of A1  symmetry.
 There are     4 symmetry adapted cartesian basis functions of A2  symmetry.
 There are     6 symmetry adapted cartesian basis functions of B1  symmetry.
 There are    20 symmetry adapted cartesian basis functions of B2  symmetry.
 There are    27 symmetry adapted basis functions of A1  symmetry.
 There are     4 symmetry adapted basis functions of A2  symmetry.
 There are     6 symmetry adapted basis functions of B1  symmetry.
 There are    20 symmetry adapted basis functions of B2  symmetry.
    57 basis functions,   134 primitive gaussians,    57 cartesian basis functions
    18 alpha electrons       17 beta electrons
       nuclear repulsion energy       145.0218997931 Hartrees.
 IExCor=33909 DFT=T Ex+Corr=LC-wHPBE ExCW=0 ScaHFX=  1.000000
 ScaDFX=  1.000000  1.000000  1.000000  1.000000 ScalE2=  1.000000  1.000000
 IRadAn=      5 IRanWt=     -1 IRanGd=            0 ICorTp=0 IEmpDi=  4
 HFx  wShort=  0.000000 wLong=  0.400000 cFull=  0.000000 cShort=  0.000000 cLong=  0.722000
 DFx  wShort=  0.000000 wLong=  0.400000 cFull=  0.000000 cShort=  1.000000 cLong=  0.722000
 NAtoms=   11 NActive=   11 NUniq=    7 SFac= 2.47D+00 NAtFMM=   60 NAOKFM=F Big=F
 Integral buffers will be    131072 words long.
 Raffenetti 2 integral format.
 Two-electron integral symmetry is turned on.
 Leave Link  301 at Thu Mar  5 12:44:27 2020, MaxMem=  6710886400 cpu:               0.9 elap:               0.1
 (Enter /opt/ohpc/pub/libs/gaussian/g16-A.03/sandybridge/g16/l302.exe)
 NPDir=0 NMtPBC=     1 NCelOv=     1 NCel=       1 NClECP=     1 NCelD=      1
         NCelK=      1 NCelE2=     1 NClLst=     1 CellRange=     0.0.
 One-electron integrals computed using PRISM.
 One-electron integral symmetry used in STVInt
 NBasis=    57 RedAO= T EigKep=  2.88D-03  NBF=    27     4     6    20
 NBsUse=    57 1.00D-06 EigRej= -1.00D+00 NBFU=    27     4     6    20
 Precomputing XC quadrature grid using
 IXCGrd= 4 IRadAn=           5 IRanWt=          -1 IRanGd=           0 AccXCQ= 0.00D+00.
 Generated NRdTot=       0 NPtTot=           0 NUsed=           0 NTot=          32
 NSgBfM=    57    57    57    57    57 MxSgAt=    11 MxSgA2=    11.
 Leave Link  302 at Thu Mar  5 12:44:28 2020, MaxMem=  6710886400 cpu:               2.1 elap:               0.2
 (Enter /opt/ohpc/pub/libs/gaussian/g16-A.03/sandybridge/g16/l303.exe)
 DipDrv:  MaxL=1.
 Leave Link  303 at Thu Mar  5 12:44:28 2020, MaxMem=  6710886400 cpu:               0.5 elap:               0.0
 (Enter /opt/ohpc/pub/libs/gaussian/g16-A.03/sandybridge/g16/l401.exe)
 ExpMin= 1.61D-01 ExpMax= 3.05D+03 ExpMxC= 4.57D+02 IAcc=3 IRadAn=         5 AccDes= 0.00D+00
 Harris functional with IExCor=33909 and IRadAn=       5 diagonalized for initial guess.
 HarFok:  IExCor=33909 AccDes= 0.00D+00 IRadAn=         5 IDoV= 1 UseB2=F ITyADJ=14
 ICtDFT=  3500011 ScaDFX=  1.000000  1.000000  1.000000  1.000000
 FoFCou: FMM=F IPFlag=           0 FMFlag=      100000 FMFlg1=           0
         NFxFlg=           0 DoJE=T BraDBF=F KetDBF=T FulRan=T
         wScrn=  0.000000 ICntrl=       500 IOpCl=  0 I1Cent=   200000004 NGrid=           0
         NMat0=    1 NMatS0=      1 NMatT0=    0 NMatD0=    1 NMtDS0=    0 NMtDT0=    0
 Petite list used in FoFCou.
 Harris En= -191.491092465577    
 JPrj=0 DoOrth=F DoCkMO=F.
 Initial guess orbital symmetries:
 Alpha Orbitals:
       Occupied  (A1) (B2) (A1) (B2) (A1) (A1) (B2) (A1) (B2) (A1)
                 (A1) (B2) (B2) (A1) (B1) (A1) (A2) (B1)
       Virtual   (B2) (A1) (A2) (B1) (A1) (B2) (A1) (B2) (A1) (A1)
                 (B2) (A1) (B2) (B1) (B2) (A1) (B1) (A2) (A1) (B2)
                 (A1) (A2) (B1) (B2) (A1) (A1) (B2) (A1) (B2) (A1)
                 (A1) (B2) (A1) (A1) (B2) (B2) (A1) (A1) (B2)
 Beta  Orbitals:
       Occupied  (A1) (B2) (A1) (B2) (A1) (A1) (B2) (A1) (B2) (A1)
                 (A1) (B2) (B2) (A1) (B1) (A1) (A2)
       Virtual   (B1) (B2) (A1) (A2) (B1) (A1) (B2) (A1) (B2) (A1)
                 (A1) (B2) (A1) (B2) (B1) (B2) (A1) (B1) (A2) (A1)
                 (B2) (A1) (A2) (B1) (B2) (A1) (A1) (B2) (A1) (B2)
                 (A1) (A1) (B2) (A1) (A1) (B2) (B2) (A1) (A1) (B2)
 The electronic state of the initial guess is 2-B1.
 Initial guess <Sx>= 0.0000 <Sy>= 0.0000 <Sz>= 0.5000 <S**2>= 0.7500 S= 0.5000
 Leave Link  401 at Thu Mar  5 12:44:28 2020, MaxMem=  6710886400 cpu:               3.1 elap:               0.2
 (Enter /opt/ohpc/pub/libs/gaussian/g16-A.03/sandybridge/g16/l502.exe)
 Keep R1 and R2 ints in memory in symmetry-blocked form, NReq=16815659.
 FoFCou: FMM=F IPFlag=           0 FMFlag=           0 FMFlg1=           0
         NFxFlg=           0 DoJE=F BraDBF=F KetDBF=F FulRan=T
         wScrn=  0.000000 ICntrl=       600 IOpCl=  0 I1Cent=           0 NGrid=           0
         NMat0=    1 NMatS0=   1653 NMatT0=    0 NMatD0=    1 NMtDS0=    0 NMtDT0=    0
 Petite list used in FoFCou.
 UHF open shell SCF:
 Using DIIS extrapolation, IDIIS=    10.
 NGot=  6710886400 LenX=  6710059583 LenY=  6710055893
 Requested convergence on RMS density matrix=1.00D-06 within  32 cycles.
 Requested convergence on MAX density matrix=1.00D-04.
 Requested convergence on             energy=1.00D-04.
 Virtual orbitals will be shifted by   0.500 hartree.
 No special actions if energy rises.
 Dynamic level shift is on during FON iterations.

 Cycle   1  Pass 1  IDiag  1:
 E= -196.203460602795    
 DIIS: error= 5.92D-02 at cycle   1 NSaved=   1.
 NSaved= 1 IEnMin= 1 EnMin= -196.203460602795     IErMin= 1 ErrMin= 5.92D-02
 ErrMax= 5.92D-02  0.00D+00 EMaxC= 1.00D+00 BMatC= 2.94D-01 BMatP= 2.94D-01
 IDIUse=1 WtCom= 1.00D+00 WtEn= 0.00D+00
 Coeff-Com:  0.100D+01
 Coeff:      0.100D+01
 Gap=     0.035 Goal=   None    Shift=    0.500
 T= 1904. Gap= 0.493 NK=0 IS=   19 IE=   57 IFin=   18
          NO(<0.9)=   0  NV(>0.1)=   0     18.00e < EF      0.00e >EF  Err=0.0D+00
 Gap=     0.057 Goal=   None    Shift=    0.500
 T= 1904. Gap= 0.563 NK=0 IS=   18 IE=   57 IFin=   17
          NO(<0.9)=   0  NV(>0.1)=   0     17.00e < EF      0.00e >EF  Err=0.0D+00
 GapD=    0.035 DampG=0.250 DampE=0.500 DampFc=0.1250 IDamp=-1.
 Damping current iteration by 1.25D-01
 RMSDP=8.00D-03 MaxDP=6.43D-02              OVMax= 1.32D-01

 Cycle   2  Pass 1  IDiag  1:
 E= -196.223384146216     Delta-E=       -0.019923543421 Rises=F Damp=T
 DIIS: error= 5.15D-02 at cycle   2 NSaved=   2.
 NSaved= 2 IEnMin= 2 EnMin= -196.223384146216     IErMin= 2 ErrMin= 5.15D-02
 ErrMax= 5.15D-02  0.00D+00 EMaxC= 1.00D+00 BMatC= 2.11D-01 BMatP= 2.94D-01
 IDIUse=1 WtCom= 1.00D+00 WtEn= 0.00D+00
 Coeff-Com: -0.497D+01 0.597D+01
 Coeff:     -0.497D+01 0.597D+01
 Gap=     0.134 Goal=   None    Shift=    0.500
 T= 1878. Gap= 0.614 NK=4 IS=   19 IE=   24 IFin=   18
          NO(<0.9)=   0  NV(>0.1)=   0     18.00e < EF      0.00e >EF  Err=0.0D+00
 Gap=     0.163 Goal=   None    Shift=    0.500
 T= 1878. Gap= 0.666 NK=4 IS=   18 IE=   21 IFin=   17
          NO(<0.9)=   0  NV(>0.1)=   0     17.00e < EF      0.00e >EF  Err=0.0D+00
 GapD=    0.134 DampG=1.000 DampE=0.500 DampFc=0.5000 IDamp=-1.
 Damping current iteration by 5.00D-01
 RMSDP=7.50D-03 MaxDP=6.29D-02 DE=-1.99D-02 OVMax= 5.51D-02

 Cycle   3  Pass 1  IDiag  1:
 E= -196.280878827048     Delta-E=       -0.057494680832 Rises=F Damp=T
 DIIS: error= 2.78D-02 at cycle   3 NSaved=   3.
 NSaved= 3 IEnMin= 3 EnMin= -196.280878827048     IErMin= 3 ErrMin= 2.78D-02
 ErrMax= 2.78D-02  0.00D+00 EMaxC= 1.00D+00 BMatC= 4.54D-02 BMatP= 2.11D-01
 IDIUse=1 WtCom= 1.00D+00 WtEn= 0.00D+00
 Coeff-Com:  0.227D+01-0.381D+01 0.254D+01
 Coeff:      0.227D+01-0.381D+01 0.254D+01
 Gap=     0.166 Goal=   None    Shift=    0.500
 T= 1755. Gap= 0.666 NK=4 IS=   19 IE=   24 IFin=   18
          NO(<0.9)=   0  NV(>0.1)=   0     18.00e < EF      0.00e >EF  Err=0.0D+00
 Gap=     0.216 Goal=   None    Shift=    0.500
 T= 1755. Gap= 0.717 NK=4 IS=   18 IE=   21 IFin=   17
          NO(<0.9)=   0  NV(>0.1)=   0     17.00e < EF      0.00e >EF  Err=0.0D+00
 GapD=    0.166 DampG=1.000 DampE=0.500 DampFc=0.5000 IDamp=-1.
 Damping current iteration by 5.00D-01
 RMSDP=3.78D-03 MaxDP=3.24D-02 DE=-5.75D-02 OVMax= 2.33D-02

 Cycle   4  Pass 1  IDiag  1:
 E= -196.303508584263     Delta-E=       -0.022629757216 Rises=F Damp=T
 DIIS: error= 1.62D-02 at cycle   4 NSaved=   4.
 NSaved= 4 IEnMin= 4 EnMin= -196.303508584263     IErMin= 4 ErrMin= 1.62D-02
 ErrMax= 1.62D-02  0.00D+00 EMaxC= 1.00D+00 BMatC= 1.18D-02 BMatP= 4.54D-02
 IDIUse=1 WtCom= 1.00D+00 WtEn= 0.00D+00
 Coeff-Com:  0.802D+00-0.595D+00-0.215D+01 0.295D+01
 Coeff:      0.802D+00-0.595D+00-0.215D+01 0.295D+01
 Gap=     0.181 Goal=   None    Shift=    0.500
 T= 1531. Gap= 0.681 NK=4 IS=   19 IE=   24 IFin=   18
          NO(<0.9)=   0  NV(>0.1)=   0     18.00e < EF      0.00e >EF  Err=0.0D+00
 Gap=     0.230 Goal=   None    Shift=    0.500
 T= 1531. Gap= 0.730 NK=4 IS=   18 IE=   21 IFin=   17
          NO(<0.9)=   0  NV(>0.1)=   0     17.00e < EF      0.00e >EF  Err=0.0D+00
 GapD=    0.181 DampG=1.000 DampE=0.500 DampFc=0.5000 IDamp=-1.
 Damping current iteration by 5.00D-01
 RMSDP=2.10D-03 MaxDP=2.27D-02 DE=-2.26D-02 OVMax= 1.66D-02

 Cycle   5  Pass 1  IDiag  1:
 E= -196.314174587472     Delta-E=       -0.010666003208 Rises=F Damp=T
 DIIS: error= 1.08D-02 at cycle   5 NSaved=   5.
 NSaved= 5 IEnMin= 5 EnMin= -196.314174587472     IErMin= 5 ErrMin= 1.08D-02
 ErrMax= 1.08D-02  0.00D+00 EMaxC= 1.00D+00 BMatC= 4.04D-03 BMatP= 1.18D-02
 IDIUse=1 WtCom= 1.00D+00 WtEn= 0.00D+00
 Coeff-Com: -0.840D+00 0.124D+01 0.305D+00-0.407D+01 0.437D+01
 Coeff:     -0.840D+00 0.124D+01 0.305D+00-0.407D+01 0.437D+01
 Gap=     0.188 Goal=   None    Shift=    0.500
 T= 1197. Gap= 0.688 NK=4 IS=   19 IE=   24 IFin=   18
          NO(<0.9)=   0  NV(>0.1)=   0     18.00e < EF      0.00e >EF  Err=0.0D+00
 Gap=     0.234 Goal=   None    Shift=    0.500
 T= 1197. Gap= 0.734 NK=4 IS=   18 IE=   21 IFin=   17
          NO(<0.9)=   0  NV(>0.1)=   0     17.00e < EF      0.00e >EF  Err=0.0D+00
 GapD=    0.188 DampG=1.000 DampE=0.500 DampFc=0.5000 IDamp=-1.
 Damping current iteration by 5.00D-01
 RMSDP=1.49D-03 MaxDP=1.96D-02 DE=-1.07D-02 OVMax= 2.02D-02

 Cycle   6  Pass 1  IDiag  1:
 E= -196.319840229489     Delta-E=       -0.005665642017 Rises=F Damp=T
 DIIS: error= 7.53D-03 at cycle   6 NSaved=   6.
 NSaved= 6 IEnMin= 6 EnMin= -196.319840229489     IErMin= 6 ErrMin= 7.53D-03
 ErrMax= 7.53D-03  0.00D+00 EMaxC= 1.00D+00 BMatC= 1.64D-03 BMatP= 4.04D-03
 IDIUse=1 WtCom= 1.00D+00 WtEn= 0.00D+00
 Coeff-Com:  0.303D+00-0.529D+00 0.438D+00 0.123D+01-0.528D+01 0.484D+01
 Coeff:      0.303D+00-0.529D+00 0.438D+00 0.123D+01-0.528D+01 0.484D+01
 Gap=     0.191 Goal=   None    Shift=    0.500
 T=  921. Gap= 0.691 NK=4 IS=   19 IE=   24 IFin=   18
          NO(<0.9)=   0  NV(>0.1)=   0     18.00e < EF      0.00e >EF  Err=0.0D+00
 Gap=     0.234 Goal=   None    Shift=    0.500
 T=  921. Gap= 0.734 NK=4 IS=   18 IE=   21 IFin=   17
          NO(<0.9)=   0  NV(>0.1)=   0     17.00e < EF      0.00e >EF  Err=0.0D+00
 GapD=    0.191 DampG=1.000 DampE=1.000 DampFc=1.0000 IDamp=-1.
 RMSDP=1.13D-03 MaxDP=1.64D-02 DE=-5.67D-03 OVMax= 1.83D-02

 Cycle   7  Pass 1  IDiag  1:
 E= -196.326910752006     Delta-E=       -0.007070522517 Rises=F Damp=F
 DIIS: error= 3.35D-03 at cycle   7 NSaved=   7.
 NSaved= 7 IEnMin= 7 EnMin= -196.326910752006     IErMin= 7 ErrMin= 3.35D-03
 ErrMax= 3.35D-03  0.00D+00 EMaxC= 1.00D+00 BMatC= 2.64D-04 BMatP= 1.64D-03
 IDIUse=1 WtCom= 1.00D+00 WtEn= 0.00D+00
 Coeff-Com:  0.144D+00-0.180D+00-0.319D+00 0.101D+01 0.138D+01-0.397D+01
 Coeff-Com:  0.293D+01
 Coeff:      0.144D+00-0.180D+00-0.319D+00 0.101D+01 0.138D+01-0.397D+01
 Coeff:      0.293D+01
 Gap=     0.194 Goal=   None    Shift=    0.500
 T=  641. Gap= 0.694 NK=4 IS=   19 IE=   24 IFin=   18
          NO(<0.9)=   0  NV(>0.1)=   0     18.00e < EF      0.00e >EF  Err=0.0D+00
 Gap=     0.233 Goal=   None    Shift=    0.500
 T=  641. Gap= 0.734 NK=4 IS=   18 IE=   21 IFin=   17
          NO(<0.9)=   0  NV(>0.1)=   0     17.00e < EF      0.00e >EF  Err=0.0D+00
 GapD=    0.194 DampG=1.000 DampE=1.000 DampFc=1.0000 IDamp=-1.
 RMSDP=3.94D-04 MaxDP=6.04D-03 DE=-7.07D-03 OVMax= 1.64D-02

 Cycle   8  Pass 1  IDiag  1:
 E= -196.327456259453     Delta-E=       -0.000545507447 Rises=F Damp=F
 DIIS: error= 2.37D-03 at cycle   8 NSaved=   8.
 NSaved= 8 IEnMin= 8 EnMin= -196.327456259453     IErMin= 8 ErrMin= 2.37D-03
 ErrMax= 2.37D-03  0.00D+00 EMaxC= 1.00D+00 BMatC= 1.54D-04 BMatP= 2.64D-04
 IDIUse=1 WtCom= 1.00D+00 WtEn= 0.00D+00
 Coeff-Com: -0.526D-01 0.103D+00-0.150D+00-0.289D+00 0.232D+01-0.296D+01
 Coeff-Com:  0.587D+00 0.145D+01
 Coeff:     -0.526D-01 0.103D+00-0.150D+00-0.289D+00 0.232D+01-0.296D+01
 Coeff:      0.587D+00 0.145D+01
 Gap=     0.196 Goal=   None    Shift=    0.500
 T=  347. Gap= 0.696 NK=4 IS=   19 IE=   24 IFin=   18
          NO(<0.9)=   0  NV(>0.1)=   0     18.00e < EF      0.00e >EF  Err=0.0D+00
 Gap=     0.233 Goal=   None    Shift=    0.500
 T=  347. Gap= 0.733 NK=4 IS=   18 IE=   21 IFin=   17
          NO(<0.9)=   0  NV(>0.1)=   0     17.00e < EF      0.00e >EF  Err=0.0D+00
 GapD=    0.196 DampG=1.000 DampE=1.000 DampFc=1.0000 IDamp=-1.
 RMSDP=2.62D-04 MaxDP=3.45D-03 DE=-5.46D-04 OVMax= 1.09D-02

 Cycle   9  Pass 1  IDiag  1:
 E= -196.327750469029     Delta-E=       -0.000294209576 Rises=F Damp=F
 DIIS: error= 1.91D-03 at cycle   9 NSaved=   9.
 NSaved= 9 IEnMin= 9 EnMin= -196.327750469029     IErMin= 9 ErrMin= 1.91D-03
 ErrMax= 1.91D-03  0.00D+00 EMaxC= 1.00D+00 BMatC= 1.06D-04 BMatP= 1.54D-04
 IDIUse=1 WtCom= 1.00D+00 WtEn= 0.00D+00
 Coeff-Com: -0.892D-01 0.984D-01 0.377D+00-0.113D+01-0.727D+00 0.299D+01
 Coeff-Com: -0.243D+01-0.160D+01 0.351D+01
 Coeff:     -0.892D-01 0.984D-01 0.377D+00-0.113D+01-0.727D+00 0.299D+01
 Coeff:     -0.243D+01-0.160D+01 0.351D+01
 Gap=     0.199 Goal=   None    Shift=    0.500
 T=   15. Gap= 0.699 NK=4 IS=   19 IE=   24 IFin=   18
          NO(<0.9)=   0  NV(>0.1)=   0     18.00e < EF      0.00e >EF  Err=0.0D+00
 Gap=     0.231 Goal=   None    Shift=    0.500
 T=   15. Gap= 0.731 NK=4 IS=   18 IE=   21 IFin=   17
          NO(<0.9)=   0  NV(>0.1)=   0     17.00e < EF      0.00e >EF  Err=0.0D+00
 GapD=    0.199 DampG=1.000 DampE=1.000 DampFc=1.0000 IDamp=-1.
 RMSDP=2.88D-04 MaxDP=4.32D-03 DE=-2.94D-04 OVMax= 1.26D-02

 Cycle  10  Pass 1  IDiag  1:
 E= -196.328040069734     Delta-E=       -0.000289600705 Rises=F Damp=F
 DIIS: error= 1.82D-03 at cycle  10 NSaved=  10.
 NSaved=10 IEnMin=10 EnMin= -196.328040069734     IErMin=10 ErrMin= 1.82D-03
 ErrMax= 1.82D-03  0.00D+00 EMaxC= 1.00D+00 BMatC= 8.06D-05 BMatP= 1.06D-04
 IDIUse=1 WtCom= 1.00D+00 WtEn= 0.00D+00
 Coeff-Com: -0.274D-01 0.316D-01 0.135D+00-0.404D+00-0.339D+00 0.120D+01
 Coeff-Com: -0.779D+00-0.902D+00 0.591D+00 0.149D+01
 Coeff:     -0.274D-01 0.316D-01 0.135D+00-0.404D+00-0.339D+00 0.120D+01
 Coeff:     -0.779D+00-0.902D+00 0.591D+00 0.149D+01
 Gap=     0.201 Goal=   None    Shift=    0.500
 Gap=     0.231 Goal=   None    Shift=    0.500
 GapD=    0.201 DampG=1.000 DampE=1.000 DampFc=1.0000 IDamp=-1.
 RMSDP=2.02D-04 MaxDP=3.58D-03 DE=-2.90D-04 OVMax= 1.00D-02

 Cycle  11  Pass 1  IDiag  1:
 E= -196.328234243409     Delta-E=       -0.000194173675 Rises=F Damp=F
 DIIS: error= 1.76D-03 at cycle  11 NSaved=  11.
 NSaved=11 IEnMin=11 EnMin= -196.328234243409     IErMin=11 ErrMin= 1.76D-03
 ErrMax= 1.76D-03  0.00D+00 EMaxC= 1.00D+00 BMatC= 7.15D-05 BMatP= 8.06D-05
 IDIUse=1 WtCom= 1.00D+00 WtEn= 0.00D+00
 Coeff-Com: -0.135D-01 0.136D-01 0.253D-01-0.594D-01-0.173D-01 0.106D+00
 Coeff-Com: -0.127D+00-0.134D+00 0.115D+01-0.319D+01 0.325D+01
 Coeff:     -0.135D-01 0.136D-01 0.253D-01-0.594D-01-0.173D-01 0.106D+00
 Coeff:     -0.127D+00-0.134D+00 0.115D+01-0.319D+01 0.325D+01
 Gap=     0.203 Goal=   None    Shift=    0.500
 Gap=     0.230 Goal=   None    Shift=    0.500
 GapD=    0.203 DampG=1.000 DampE=1.000 DampFc=1.0000 IDamp=-1.
 RMSDP=1.81D-04 MaxDP=3.50D-03 DE=-1.94D-04 OVMax= 9.73D-03

 Cycle  12  Pass 1  IDiag  1:
 E= -196.328408298187     Delta-E=       -0.000174054778 Rises=F Damp=F
 DIIS: error= 1.73D-03 at cycle  12 NSaved=  12.
 NSaved=12 IEnMin=12 EnMin= -196.328408298187     IErMin=12 ErrMin= 1.73D-03
 ErrMax= 1.73D-03  0.00D+00 EMaxC= 1.00D+00 BMatC= 6.88D-05 BMatP= 7.15D-05
 IDIUse=1 WtCom= 1.00D+00 WtEn= 0.00D+00
 Large coefficients: NSaved= 12 BigCof=   14.87 CofMax=   10.00 Det=-7.13D-09
 Inversion failed.  Reducing to 11 matrices.
 Large coefficients: NSaved= 11 BigCof=   14.89 CofMax=   10.00 Det=-7.13D-09
 Inversion failed.  Reducing to 10 matrices.
 Large coefficients: NSaved= 10 BigCof=   14.51 CofMax=   10.00 Det=-7.23D-09
 Inversion failed.  Reducing to  9 matrices.
 Large coefficients: NSaved=  9 BigCof=   10.68 CofMax=   10.00 Det=-1.07D-08
 Inversion failed.  Reducing to  8 matrices.
 Coeff-Com: -0.740D-01 0.152D+00-0.167D+00-0.226D+00 0.214D+01-0.723D+01
 Coeff-Com:  0.968D+01-0.328D+01
 Coeff:     -0.740D-01 0.152D+00-0.167D+00-0.226D+00 0.214D+01-0.723D+01
 Coeff:      0.968D+01-0.328D+01
 Gap=     0.201 Goal=   None    Shift=    0.500
 Gap=     0.231 Goal=   None    Shift=    0.500
 GapD=    0.201 DampG=1.000 DampE=1.000 DampFc=1.0000 IDamp=-1.
 RMSDP=5.08D-05 MaxDP=9.91D-04 DE=-1.74D-04 OVMax= 1.72D-03

 Cycle  13  Pass 1  IDiag  1:
 E= -196.328435382652     Delta-E=       -0.000027084464 Rises=F Damp=F
 DIIS: error= 1.66D-03 at cycle  13 NSaved=   9.
 NSaved= 9 IEnMin= 9 EnMin= -196.328435382652     IErMin= 9 ErrMin= 1.66D-03
 ErrMax= 1.66D-03  0.00D+00 EMaxC= 1.00D+00 BMatC= 6.77D-05 BMatP= 6.88D-05
 IDIUse=1 WtCom= 1.00D+00 WtEn= 0.00D+00
 Coeff-Com: -0.459D-01 0.963D-01-0.759D-01-0.231D+00 0.136D+01-0.504D+01
 Coeff-Com:  0.765D+01-0.316D+01 0.448D+00
 Coeff:     -0.459D-01 0.963D-01-0.759D-01-0.231D+00 0.136D+01-0.504D+01
 Coeff:      0.765D+01-0.316D+01 0.448D+00
 Gap=     0.200 Goal=   None    Shift=    0.500
 Gap=     0.231 Goal=   None    Shift=    0.500
 GapD=    0.200 DampG=1.000 DampE=1.000 DampFc=1.0000 IDamp=-1.
 RMSDP=2.49D-05 MaxDP=4.60D-04 DE=-2.71D-05 OVMax= 9.11D-04

 Cycle  14  Pass 1  IDiag  1:
 E= -196.328448076539     Delta-E=       -0.000012693887 Rises=F Damp=F
 DIIS: error= 1.64D-03 at cycle  14 NSaved=  10.
 NSaved=10 IEnMin=10 EnMin= -196.328448076539     IErMin=10 ErrMin= 1.64D-03
 ErrMax= 1.64D-03  0.00D+00 EMaxC= 1.00D+00 BMatC= 6.81D-05 BMatP= 6.77D-05
 IDIUse=1 WtCom= 1.00D+00 WtEn= 0.00D+00
 Coeff-Com: -0.116D+00 0.240D+00-0.219D+00-0.284D+00 0.173D+01-0.551D+01
 Coeff-Com:  0.827D+01-0.113D+01-0.779D+01 0.580D+01
 Coeff:     -0.116D+00 0.240D+00-0.219D+00-0.284D+00 0.173D+01-0.551D+01
 Coeff:      0.827D+01-0.113D+01-0.779D+01 0.580D+01
 Gap=     0.200 Goal=   None    Shift=    0.500
 Gap=     0.232 Goal=   None    Shift=    0.500
 GapD=    0.200 DampG=1.000 DampE=1.000 DampFc=1.0000 IDamp=-1.
 RMSDP=2.07D-05 MaxDP=2.90D-04 DE=-1.27D-05 OVMax= 8.38D-04

 Cycle  15  Pass 1  IDiag  1:
 E= -196.328434554051     Delta-E=        0.000013522488 Rises=F Damp=F
 DIIS: error= 1.63D-03 at cycle  15 NSaved=  11.
 NSaved=11 IEnMin=10 EnMin= -196.328448076539     IErMin=11 ErrMin= 1.63D-03
 ErrMax= 1.63D-03  0.00D+00 EMaxC= 1.00D+00 BMatC= 6.87D-05 BMatP= 6.77D-05
 IDIUse=1 WtCom= 1.00D+00 WtEn= 0.00D+00
 Large coefficients: NSaved= 11 BigCof=   12.61 CofMax=   10.00 Det=-3.26D-09
 Inversion failed.  Reducing to 10 matrices.
 Large coefficients: NSaved= 10 BigCof=   12.49 CofMax=   10.00 Det=-4.42D-09
 Inversion failed.  Reducing to  9 matrices.
 Large coefficients: NSaved=  9 BigCof=   12.47 CofMax=   10.00 Det=-4.73D-09
 Inversion failed.  Reducing to  8 matrices.
 Large coefficients: NSaved=  8 BigCof=   12.99 CofMax=   10.00 Det=-4.73D-09
 Inversion failed.  Reducing to  7 matrices.
 Large coefficients: NSaved=  7 BigCof=   10.47 CofMax=   10.00 Det=-4.95D-09
 Inversion failed.  Reducing to  6 matrices.
 Coeff-Com: -0.161D+01 0.406D+01-0.505D+00-0.295D+01-0.153D+01 0.353D+01
 Coeff:     -0.161D+01 0.406D+01-0.505D+00-0.295D+01-0.153D+01 0.353D+01
 Gap=     0.200 Goal=   None    Shift=    0.000
 Gap=     0.232 Goal=   None    Shift=    0.000
 GapD=    0.200 DampG=1.000 DampE=1.000 DampFc=1.0000 IDamp=-1.
 RMSDP=2.62D-05 MaxDP=3.23D-04 DE= 1.35D-05 OVMax= 1.04D-03

 Cycle  16  Pass 1  IDiag  1:
 E= -196.328425277286     Delta-E=        0.000009276765 Rises=F Damp=F
 DIIS: error= 1.65D-03 at cycle  16 NSaved=   7.
 NSaved= 7 IEnMin= 5 EnMin= -196.328448076539     IErMin= 6 ErrMin= 1.63D-03
 ErrMax= 1.65D-03  0.00D+00 EMaxC= 1.00D+00 BMatC= 6.89D-05 BMatP= 6.77D-05
 IDIUse=1 WtCom= 1.00D+00 WtEn= 0.00D+00
 Large coefficients: NSaved=  7 BigCof=   10.23 CofMax=   10.00 Det=-3.49D-09
 Inversion failed.  Reducing to  6 matrices.
 Coeff-Com:  0.620D-01 0.110D+01-0.183D-01-0.306D+01 0.180D+01 0.112D+01
 Coeff:      0.620D-01 0.110D+01-0.183D-01-0.306D+01 0.180D+01 0.112D+01
 Gap=     0.201 Goal=   None    Shift=    0.000
 Gap=     0.231 Goal=   None    Shift=    0.000
 GapD=    0.201 DampG=1.000 DampE=1.000 DampFc=1.0000 IDamp=-1.
 RMSDP=1.23D-04 MaxDP=2.43D-03 DE= 9.28D-06 OVMax= 7.11D-03

 Cycle  17  Pass 1  IDiag  1:
 E= -196.328540766205     Delta-E=       -0.000115488919 Rises=F Damp=F
 DIIS: error= 1.66D-03 at cycle  17 NSaved=   7.
 NSaved= 7 IEnMin= 7 EnMin= -196.328540766205     IErMin= 5 ErrMin= 1.63D-03
 ErrMax= 1.66D-03  0.00D+00 EMaxC= 1.00D+00 BMatC= 7.02D-05 BMatP= 6.77D-05
 IDIUse=1 WtCom= 1.00D+00 WtEn= 0.00D+00
 Large coefficients: NSaved=  7 BigCof=   11.37 CofMax=   10.00 Det=-3.32D-09
 Inversion failed.  Reducing to  6 matrices.
 Large coefficients: NSaved=  6 BigCof=   11.24 CofMax=   10.00 Det=-3.61D-09
 Inversion failed.  Reducing to  5 matrices.
 Coeff-Com:  0.426D+01-0.731D+01 0.359D+01 0.190D+01-0.144D+01
 Coeff:      0.426D+01-0.731D+01 0.359D+01 0.190D+01-0.144D+01
 Gap=     0.199 Goal=   None    Shift=    0.500
 Gap=     0.232 Goal=   None    Shift=    0.500
 GapD=    0.199 DampG=1.000 DampE=1.000 DampFc=1.0000 IDamp=-1.
 RMSDP=7.93D-05 MaxDP=1.26D-03 DE=-1.15D-04 OVMax= 4.36D-03

 Cycle  18  Pass 1  IDiag  1:
 E= -196.328467299397     Delta-E=        0.000073466808 Rises=F Damp=F
 DIIS: error= 1.67D-03 at cycle  18 NSaved=   6.
 NSaved= 6 IEnMin= 5 EnMin= -196.328540766205     IErMin= 3 ErrMin= 1.63D-03
 ErrMax= 1.67D-03  0.00D+00 EMaxC= 1.00D+00 BMatC= 7.23D-05 BMatP= 6.77D-05
 IDIUse=1 WtCom= 1.00D+00 WtEn= 0.00D+00
 Large coefficients: NSaved=  6 BigCof=   15.12 CofMax=   10.00 Det=-6.81D-09
 Inversion failed.  Reducing to  5 matrices.
 Coeff-Com:  0.161D+01-0.200D+01 0.216D+01-0.722D+00-0.452D-01
 Coeff:      0.161D+01-0.200D+01 0.216D+01-0.722D+00-0.452D-01
 Gap=     0.201 Goal=   None    Shift=    0.000
 Gap=     0.231 Goal=   None    Shift=    0.000
 RMSDP=6.51D-05 MaxDP=1.05D-03 DE= 7.35D-05 OVMax= 3.30D-03

 Cycle  19  Pass 1  IDiag  1:
 E= -196.328525534024     Delta-E=       -0.000058234627 Rises=F Damp=F
 DIIS: error= 1.72D-03 at cycle  19 NSaved=   6.
 NSaved= 6 IEnMin= 4 EnMin= -196.328540766205     IErMin= 3 ErrMin= 1.63D-03
 ErrMax= 1.72D-03  0.00D+00 EMaxC= 1.00D+00 BMatC= 7.12D-05 BMatP= 6.77D-05
 IDIUse=1 WtCom= 1.00D+00 WtEn= 0.00D+00
 Coeff-Com:  0.347D+01-0.646D+01 0.470D+01-0.127D+01-0.125D+00 0.671D+00
 Coeff:      0.347D+01-0.646D+01 0.470D+01-0.127D+01-0.125D+00 0.671D+00
 Gap=     0.200 Goal=   None    Shift=    0.000
 Gap=     0.231 Goal=   None    Shift=    0.000
 RMSDP=6.07D-05 MaxDP=1.20D-03 DE=-5.82D-05 OVMax= 3.38D-03

 Cycle  20  Pass 1  IDiag  1:
 E= -196.328467378184     Delta-E=        0.000058155840 Rises=F Damp=F
 DIIS: error= 1.70D-03 at cycle  20 NSaved=   7.
 NSaved= 7 IEnMin= 4 EnMin= -196.328540766205     IErMin= 3 ErrMin= 1.63D-03
 ErrMax= 1.70D-03  0.00D+00 EMaxC= 1.00D+00 BMatC= 7.05D-05 BMatP= 6.77D-05
 IDIUse=1 WtCom= 1.00D+00 WtEn= 0.00D+00
 Coeff-Com:  0.283D+01-0.531D+01 0.407D+01-0.119D+01-0.432D+00-0.557D+00
 Coeff-Com:  0.158D+01
 Coeff:      0.283D+01-0.531D+01 0.407D+01-0.119D+01-0.432D+00-0.557D+00
 Coeff:      0.158D+01
 Gap=     0.200 Goal=   None    Shift=    0.000
 Gap=     0.231 Goal=   None    Shift=    0.000
 GapD=    0.200 DampG=1.000 DampE=1.000 DampFc=1.0000 IDamp=-1.
 RMSDP=4.96D-05 MaxDP=9.66D-04 DE= 5.82D-05 OVMax= 2.74D-03

 Cycle  21  Pass 1  IDiag  1:
 E= -196.328420156580     Delta-E=        0.000047221604 Rises=F Damp=F
 DIIS: error= 1.69D-03 at cycle  21 NSaved=   8.
 NSaved= 8 IEnMin= 4 EnMin= -196.328540766205     IErMin= 3 ErrMin= 1.63D-03
 ErrMax= 1.69D-03  0.00D+00 EMaxC= 1.00D+00 BMatC= 7.04D-05 BMatP= 6.77D-05
 IDIUse=1 WtCom= 1.00D+00 WtEn= 0.00D+00
 Coeff-Com: -0.997D+00 0.306D+01-0.528D+00 0.118D+00-0.728D+00-0.313D+01
 Coeff-Com: -0.966D-01 0.331D+01
 Coeff:     -0.997D+00 0.306D+01-0.528D+00 0.118D+00-0.728D+00-0.313D+01
 Coeff:     -0.966D-01 0.331D+01
 Gap=     0.198 Goal=   None    Shift=    0.000
 Gap=     0.232 Goal=   None    Shift=    0.000
 GapD=    0.198 DampG=1.000 DampE=1.000 DampFc=1.0000 IDamp=-1.
 RMSDP=1.07D-04 MaxDP=2.06D-03 DE= 4.72D-05 OVMax= 6.24D-03

 Cycle  22  Pass 1  IDiag  1:
 E= -196.328318054641     Delta-E=        0.000102101939 Rises=F Damp=F
 DIIS: error= 1.70D-03 at cycle  22 NSaved=   9.
 NSaved= 9 IEnMin= 4 EnMin= -196.328540766205     IErMin= 3 ErrMin= 1.63D-03
 ErrMax= 1.70D-03  0.00D+00 EMaxC= 1.00D+00 BMatC= 6.96D-05 BMatP= 6.77D-05
 IDIUse=1 WtCom= 1.00D+00 WtEn= 0.00D+00
 Large coefficients: NSaved=  9 BigCof=   32.78 CofMax=   10.00 Det=-2.43D-09
 Inversion failed.  Reducing to  8 matrices.
 Large coefficients: NSaved=  8 BigCof=   31.40 CofMax=   10.00 Det=-7.41D-09
 Inversion failed.  Reducing to  7 matrices.
 Large coefficients: NSaved=  7 BigCof=   23.62 CofMax=   10.00 Det=-9.73D-09
 Inversion failed.  Reducing to  6 matrices.
 Coeff-Com:  0.376D+01-0.307D+00-0.932D+00-0.862D+01 0.166D+01 0.544D+01
 Coeff:      0.376D+01-0.307D+00-0.932D+00-0.862D+01 0.166D+01 0.544D+01
 Gap=     0.194 Goal=   None    Shift=    0.000
 Gap=     0.234 Goal=   None    Shift=    0.000
 GapD=    0.194 DampG=1.000 DampE=1.000 DampFc=1.0000 IDamp=-1.
 RMSDP=3.56D-04 MaxDP=6.97D-03 DE= 1.02D-04 OVMax= 2.04D-02

 Cycle  23  Pass 1  IDiag  1:
 E= -196.327987477616     Delta-E=        0.000330577024 Rises=F Damp=F
 DIIS: error= 1.58D-03 at cycle  23 NSaved=   7.
 NSaved= 7 IEnMin= 1 EnMin= -196.328540766205     IErMin= 7 ErrMin= 1.58D-03
 ErrMax= 1.58D-03  0.00D+00 EMaxC= 1.00D+00 BMatC= 6.49D-05 BMatP= 6.96D-05
 IDIUse=1 WtCom= 1.00D+00 WtEn= 0.00D+00
 Large coefficients: NSaved=  7 BigCof=   27.58 CofMax=   10.00 Det=-5.02D-09
 Inversion failed.  Reducing to  6 matrices.
 Coeff-Com: -0.242D+00-0.279D+01-0.242D+01 0.729D+01-0.386D+01 0.302D+01
 Coeff:     -0.242D+00-0.279D+01-0.242D+01 0.729D+01-0.386D+01 0.302D+01
 Gap=     0.190 Goal=   None    Shift=    0.000
 Gap=     0.237 Goal=   None    Shift=    0.000
 GapD=    0.190 DampG=1.000 DampE=1.000 DampFc=1.0000 IDamp=-1.
 RMSDP=4.24D-04 MaxDP=8.34D-03 DE= 3.31D-04 OVMax= 2.45D-02

 Cycle  24  Pass 1  IDiag  1:
 E= -196.327615607412     Delta-E=        0.000371870205 Rises=F Damp=F
 DIIS: error= 1.50D-03 at cycle  24 NSaved=   7.
 NSaved= 7 IEnMin= 1 EnMin= -196.328540766205     IErMin= 7 ErrMin= 1.50D-03
 ErrMax= 1.50D-03  0.00D+00 EMaxC= 1.00D+00 BMatC= 5.78D-05 BMatP= 6.49D-05
 IDIUse=1 WtCom= 1.00D+00 WtEn= 0.00D+00
 Large coefficients: NSaved=  7 BigCof=   39.01 CofMax=   10.00 Det=-6.90D-09
 Inversion failed.  Reducing to  6 matrices.
 Coeff-Com:  0.997D+00 0.106D+01 0.454D+01-0.779D+01-0.398D+00 0.259D+01
 Coeff:      0.997D+00 0.106D+01 0.454D+01-0.779D+01-0.398D+00 0.259D+01
 Gap=     0.183 Goal=   None    Shift=    0.000
 Gap=     0.243 Goal=   None    Shift=    0.000
 GapD=    0.183 DampG=1.000 DampE=1.000 DampFc=1.0000 IDamp=-1.
 RMSDP=8.02D-04 MaxDP=1.54D-02 DE= 3.72D-04 OVMax= 4.66D-02

 Cycle  25  Pass 1  IDiag  1:
 E= -196.327007163617     Delta-E=        0.000608443794 Rises=F Damp=F
 DIIS: error= 1.39D-03 at cycle  25 NSaved=   7.
 NSaved= 7 IEnMin= 1 EnMin= -196.328540766205     IErMin= 7 ErrMin= 1.39D-03
 ErrMax= 1.39D-03  0.00D+00 EMaxC= 1.00D+00 BMatC= 4.68D-05 BMatP= 5.78D-05
 IDIUse=1 WtCom= 1.00D+00 WtEn= 0.00D+00
 Coeff-Com:  0.328D+01-0.199D+01 0.205D+00 0.326D+00-0.543D+01 0.196D+01
 Coeff-Com:  0.266D+01
 Coeff:      0.328D+01-0.199D+01 0.205D+00 0.326D+00-0.543D+01 0.196D+01
 Coeff:      0.266D+01
 Gap=     0.173 Goal=   None    Shift=    0.000
 Gap=     0.259 Goal=   None    Shift=    0.000
 GapD=    0.173 DampG=1.000 DampE=1.000 DampFc=1.0000 IDamp=-1.
 RMSDP=1.58D-03 MaxDP=3.21D-02 DE= 6.08D-04 OVMax= 9.03D-02

 Cycle  26  Pass 1  IDiag  1:
 E= -196.326091686705     Delta-E=        0.000915476913 Rises=F Damp=F
 DIIS: error= 1.49D-03 at cycle  26 NSaved=   8.
 NSaved= 8 IEnMin= 1 EnMin= -196.328540766205     IErMin= 7 ErrMin= 1.39D-03
 ErrMax= 1.49D-03  0.00D+00 EMaxC= 1.00D+00 BMatC= 3.73D-05 BMatP= 4.68D-05
 IDIUse=1 WtCom= 1.00D+00 WtEn= 0.00D+00
 Large coefficients: NSaved=  8 BigCof=   10.45 CofMax=   10.00 Det=-3.52D-08
 Inversion failed.  Reducing to  7 matrices.
 Coeff-Com:  0.334D+01-0.376D+01-0.426D+01 0.614D+01-0.298D+01 0.225D+01
 Coeff-Com:  0.268D+00
 Coeff:      0.334D+01-0.376D+01-0.426D+01 0.614D+01-0.298D+01 0.225D+01
 Coeff:      0.268D+00
 Gap=     0.176 Goal=   None    Shift=    0.000
 Gap=     0.260 Goal=   None    Shift=    0.000
 GapD=    0.176 DampG=1.000 DampE=1.000 DampFc=1.0000 IDamp=-1.
 RMSDP=1.54D-04 MaxDP=3.68D-03 DE= 9.15D-04 OVMax= 1.05D-02

 Cycle  27  Pass 1  IDiag  1:
 E= -196.326180880543     Delta-E=       -0.000089193838 Rises=F Damp=F
 DIIS: error= 1.05D-03 at cycle  27 NSaved=   8.
 NSaved= 8 IEnMin= 1 EnMin= -196.328540766205     IErMin= 8 ErrMin= 1.05D-03
 ErrMax= 1.05D-03  0.00D+00 EMaxC= 1.00D+00 BMatC= 2.44D-05 BMatP= 3.73D-05
 IDIUse=1 WtCom= 1.00D+00 WtEn= 0.00D+00
 Coeff-Com: -0.280D+01 0.260D+00-0.724D+00 0.547D+01-0.520D+01 0.335D+01
 Coeff-Com: -0.205D+01 0.269D+01
 Coeff:     -0.280D+01 0.260D+00-0.724D+00 0.547D+01-0.520D+01 0.335D+01
 Coeff:     -0.205D+01 0.269D+01
 Gap=     0.166 Goal=   None    Shift=    0.000
 Gap=     0.255 Goal=   None    Shift=    0.000
 GapD=    0.166 DampG=1.000 DampE=1.000 DampFc=1.0000 IDamp=-1.
 RMSDP=1.80D-03 MaxDP=4.01D-02 DE=-8.92D-05 OVMax= 1.10D-01

 Cycle  28  Pass 1  IDiag  1:
 E= -196.324797824262     Delta-E=        0.001383056281 Rises=F Damp=F
 DIIS: error= 4.63D-03 at cycle  28 NSaved=   9.
 NSaved= 9 IEnMin= 1 EnMin= -196.328540766205     IErMin= 8 ErrMin= 1.05D-03
 ErrMax= 4.63D-03  0.00D+00 EMaxC= 1.00D+00 BMatC= 4.48D-04 BMatP= 2.44D-05
 IDIUse=1 WtCom= 1.00D+00 WtEn= 0.00D+00
 Coeff-Com: -0.244D+01 0.132D+00-0.288D+00 0.486D+01-0.546D+01 0.365D+01
 Coeff-Com: -0.249D+01 0.298D+01 0.546D-01
 Coeff:     -0.244D+01 0.132D+00-0.288D+00 0.486D+01-0.546D+01 0.365D+01
 Coeff:     -0.249D+01 0.298D+01 0.546D-01
 Gap=     0.170 Goal=   None    Shift=    0.000
 Gap=     0.254 Goal=   None    Shift=    0.000
 GapD=    0.170 DampG=1.000 DampE=1.000 DampFc=1.0000 IDamp=-1.
 RMSDP=6.08D-05 MaxDP=1.33D-03 DE= 1.38D-03 OVMax= 3.60D-03

 Cycle  29  Pass 1  IDiag  1:
 E= -196.324730548097     Delta-E=        0.000067276166 Rises=F Damp=F
 DIIS: error= 4.76D-03 at cycle  29 NSaved=  10.
 NSaved=10 IEnMin= 1 EnMin= -196.328540766205     IErMin= 8 ErrMin= 1.05D-03
 ErrMax= 4.76D-03  0.00D+00 EMaxC= 1.00D+00 BMatC= 4.72D-04 BMatP= 2.44D-05
 IDIUse=1 WtCom= 1.00D+00 WtEn= 0.00D+00
 Large coefficients: NSaved= 10 BigCof=   11.79 CofMax=   10.00 Det=-7.95D-09
 Inversion failed.  Reducing to  9 matrices.
 Large coefficients: NSaved=  9 BigCof=   11.29 CofMax=   10.00 Det=-7.98D-09
 Inversion failed.  Reducing to  8 matrices.
 Large coefficients: NSaved=  8 BigCof=   23.88 CofMax=   10.00 Det=-1.75D-08
 Inversion failed.  Reducing to  7 matrices.
 Large coefficients: NSaved=  7 BigCof=   28.72 CofMax=   10.00 Det=-5.31D-08
 Inversion failed.  Reducing to  6 matrices.
 Large coefficients: NSaved=  6 BigCof=   29.50 CofMax=   10.00 Det=-5.54D-08
 Inversion failed.  Reducing to  5 matrices.
 Large coefficients: NSaved=  5 BigCof=   28.72 CofMax=   10.00 Det=-5.80D-08
 Inversion failed.  Reducing to  4 matrices.
 Large coefficients: NSaved=  4 BigCof=   27.58 CofMax=   10.00 Det=-8.00D-08
 Inversion failed.  Reducing to  3 matrices.
 Large coefficients: NSaved=  3 BigCof=   27.59 CofMax=   10.00 Det=-8.00D-08
 Inversion failed.  Reducing to  2 matrices.
 Large coefficients: NSaved=  2 BigCof=   37.05 CofMax=   10.00 Det=-3.31D-07
 Coeff-Com:  0.371D+02-0.361D+02
 Coeff:      0.371D+02-0.361D+02
 Gap=     0.172 Goal=   None    Shift=    0.000
 Gap=     0.249 Goal=   None    Shift=    0.000
 GapD=    0.172 DampG=1.000 DampE=1.000 DampFc=1.0000 IDamp=-1.
 RMSDP=2.27D-03 MaxDP=4.88D-02 DE= 6.73D-05 OVMax= 1.34D-01

 Cycle  30  Pass 1  IDiag  1:
 E= -196.326370340460     Delta-E=       -0.001639792363 Rises=F Damp=F
 DIIS: error= 2.01D-03 at cycle  30 NSaved=   3.
 NSaved= 3 IEnMin= 3 EnMin= -196.326370340460     IErMin= 3 ErrMin= 2.01D-03
 ErrMax= 2.01D-03  0.00D+00 EMaxC= 1.00D+00 BMatC= 7.15D-05 BMatP= 4.48D-04
 IDIUse=1 WtCom= 1.00D+00 WtEn= 0.00D+00
 Large coefficients: NSaved=  3 BigCof=   19.61 CofMax=   10.00 Det=-3.52D-08
 Inversion failed.  Reducing to  2 matrices.
 Coeff-Com: -0.509D+00 0.151D+01
 Coeff:     -0.509D+00 0.151D+01
 Gap=     0.184 Goal=   None    Shift=    0.000
 Gap=     0.238 Goal=   None    Shift=    0.000
 GapD=    0.184 DampG=1.000 DampE=1.000 DampFc=1.0000 IDamp=-1.
 RMSDP=1.26D-03 MaxDP=2.45D-02 DE=-1.64D-03 OVMax= 7.35D-02

 Cycle  31  Pass 1  IDiag  1:
 E= -196.327161257784     Delta-E=       -0.000790917325 Rises=F Damp=F
 DIIS: error= 2.43D-03 at cycle  31 NSaved=   3.
 NSaved= 3 IEnMin= 3 EnMin= -196.327161257784     IErMin= 2 ErrMin= 2.01D-03
 ErrMax= 2.43D-03  0.00D+00 EMaxC= 1.00D+00 BMatC= 9.74D-05 BMatP= 7.15D-05
 IDIUse=1 WtCom= 1.00D+00 WtEn= 0.00D+00
 Coeff-Com: -0.542D+00 0.117D+01 0.375D+00
 Coeff:     -0.542D+00 0.117D+01 0.375D+00
 Gap=     0.190 Goal=   None    Shift=    0.000
 Gap=     0.235 Goal=   None    Shift=    0.000
 GapD=    0.190 DampG=1.000 DampE=1.000 DampFc=1.0000 IDamp=-1.
 RMSDP=5.58D-04 MaxDP=1.14D-02 DE=-7.91D-04 OVMax= 3.38D-02

 Cycle  32  Pass 1  IDiag  1:
 E= -196.327573671044     Delta-E=       -0.000412413260 Rises=F Damp=F
 DIIS: error= 2.94D-03 at cycle  32 NSaved=   4.
 NSaved= 4 IEnMin= 4 EnMin= -196.327573671044     IErMin= 2 ErrMin= 2.01D-03
 ErrMax= 2.94D-03  0.00D+00 EMaxC= 1.00D+00 BMatC= 1.42D-04 BMatP= 7.15D-05
 IDIUse=1 WtCom= 1.00D+00 WtEn= 0.00D+00
 Coeff-Com: -0.211D+00 0.156D+01 0.131D+01-0.166D+01
 Coeff:     -0.211D+00 0.156D+01 0.131D+01-0.166D+01
 Gap=     0.166 Goal=   None    Shift=    0.000
 Gap=     0.255 Goal=   None    Shift=    0.000
 GapD=    0.166 DampG=1.000 DampE=1.000 DampFc=1.0000 IDamp=-1.
 RMSDP=2.59D-03 MaxDP=5.08D-02 DE=-4.12D-04 OVMax= 1.50D-01

 >>>>>>>>>> Convergence criterion not met.
 SCF Done:  E(ULC-wHPBE) =  -196.327573671     A.U. after   33 cycles
            NFock= 32  Conv=0.26D-02     -V/T= 2.0224
 <Sx>= 0.0000 <Sy>= 0.0000 <Sz>= 0.5000 <S**2>= 0.9264 S= 0.5846
 <L.S>= 0.000000000000E+00
 KE= 1.920279223656D+02 PE=-7.306122168010D+02 EE= 1.972348209712D+02
 Annihilation of the first spin contaminant:
 S**2 before annihilation     0.9264,   after     0.7740
 Leave Link  502 at Thu Mar  5 12:44:31 2020, MaxMem=  6710886400 cpu:              46.1 elap:               2.9
 (Enter /opt/ohpc/pub/libs/gaussian/g16-A.03/sandybridge/g16/l508.exe)
 Keep R1 and R2 ints in memory in symmetry-blocked form, NReq=16816059.
 FoFCou: FMM=F IPFlag=           0 FMFlag=           0 FMFlg1=           0
         NFxFlg=           0 DoJE=F BraDBF=F KetDBF=F FulRan=T
         wScrn=  0.000000 ICntrl=       600 IOpCl=  0 I1Cent=           0 NGrid=           0
         NMat0=    1 NMatS0=   1653 NMatT0=    0 NMatD0=    1 NMtDS0=    0 NMtDT0=    0
 Petite list used in FoFCou.
 Tight linear equation convergence will be used.
 ULC-wHPBE wavefunction.
 Quadratic Convergence SCF Method.
 Line search only if initial step raises energy.
 Iteration   1 EE= -196.325935020350                                    Grad=7.526D-03 Max rot=    0.3134 deg.
 QCNR:  CnvC1=7.53D-08 CnvC2=7.53D-07
 LinEq1:  Iter=  0 NonCon=     1 RMS=5.15D-04 Max=1.76D-02 NDo=     1
 AX will form     1 AO Fock derivatives at one time.
 LinEq1:  Iter=  1 NonCon=     1 RMS=3.50D-04 Max=1.07D-02 NDo=     1
 LinEq1:  Iter=  2 NonCon=     1 RMS=2.07D-04 Max=3.28D-03 NDo=     1
 LinEq1:  Iter=  3 NonCon=     1 RMS=9.63D-05 Max=1.02D-03 NDo=     1
 LinEq1:  Iter=  4 NonCon=     1 RMS=2.97D-05 Max=3.31D-04 NDo=     1
 LinEq1:  Iter=  5 NonCon=     1 RMS=8.90D-06 Max=1.38D-04 NDo=     1
 LinEq1:  Iter=  6 NonCon=     1 RMS=4.79D-06 Max=7.04D-05 NDo=     1
 LinEq1:  Iter=  7 NonCon=     1 RMS=1.61D-06 Max=1.75D-05 NDo=     1
 LinEq1:  Iter=  8 NonCon=     1 RMS=3.31D-07 Max=3.75D-06 NDo=     1
 LinEq1:  Iter=  9 NonCon=     1 RMS=7.19D-08 Max=1.02D-06 NDo=     1
 LinEq1:  Iter= 10 NonCon=     0 RMS=1.89D-08 Max=2.82D-07 NDo=     1
 Linear equations converged to 7.526D-08 7.526D-07 after    10 iterations.
 Angle between quadratic step and gradient=  64.54 degrees.
     ILin= 1 X=0.000D+00 Y=-1.963259350203D+02 DE= 0.00D+00 F= -4.68D-03
     ILin= 2 X=1.000D+00 Y=-1.963272263138D+02 DE=-1.29D-03 F=  2.63D-02
     ILin= 3 X=1.400D+00 Y=-1.963018364365D+02 DE= 2.41D-02 F=  1.10D-01
     An  expanding polynomial of degree  3 produced  0.5140
 Iteration   2 EE= -196.329207921813     Delta-E=       -0.003272901463 Grad=1.183D-02 Max rot=    0.4555 deg.
 Gradient too large for Newton-Raphson -- use scaled steepest descent instead.
     ILin= 1 X=0.000D+00 Y=-1.963292079218D+02 DE= 0.00D+00 F= -2.65D-04
     ILin= 2 X=3.000D-01 Y=-1.963292807320D+02 DE=-7.28D-05 F= -2.20D-04
     ILin= 3 X=6.000D-01 Y=-1.963293401517D+02 DE=-1.32D-04 F= -1.76D-04
     ILin= 4 X=1.200D+00 Y=-1.963294189166D+02 DE=-2.11D-04 F= -8.68D-05
     ILin= 5 X=2.400D+00 Y=-1.963294168553D+02 DE=-2.09D-04 F=  9.00D-05
     An  expanding polynomial of degree  5 produced  1.7879
 Iteration   3 EE= -196.329444426252     Delta-E=       -0.000236504439 Grad=1.060D-02 Max rot=    0.2504 deg.
 Gradient too large for Newton-Raphson -- use scaled steepest descent instead.
     ILin= 1 X=0.000D+00 Y=-1.963294444263D+02 DE= 0.00D+00 F= -1.78D-04
     ILin= 2 X=7.000D-01 Y=-1.963295394076D+02 DE=-9.50D-05 F= -9.32D-05
     ILin= 3 X=1.500D+00 Y=-1.963295750461D+02 DE=-1.31D-04 F=  4.07D-06
     Accept linear search using points  2 and  3.
     An  expanding polynomial of degree  3 produced  1.4372
     Minimum is close to point  3 DX= -6.28D-02 DF= -1.63D-07 DXR=  4.37D-02 DFR=  1.25D-03 which will be used.
 Iteration   4 EE= -196.329575046096     Delta-E=       -0.000130619844 Grad=9.200D-03 Max rot=    0.2731 deg.
 QCNR:  CnvC1=9.20D-08 CnvC2=9.20D-07
 LinEq1:  Iter=  0 NonCon=     1 RMS=5.00D-04 Max=1.38D-02 NDo=     1
 LinEq1:  Iter=  1 NonCon=     1 RMS=5.02D-04 Max=1.04D-02 NDo=     1
 LinEq1:  Iter=  2 NonCon=     1 RMS=1.23D-04 Max=1.27D-03 NDo=     1
 LinEq1:  Iter=  3 NonCon=     1 RMS=6.09D-05 Max=9.17D-04 NDo=     1
 LinEq1:  Iter=  4 NonCon=     1 RMS=1.57D-05 Max=1.69D-04 NDo=     1
 LinEq1:  Iter=  5 NonCon=     1 RMS=6.58D-06 Max=9.77D-05 NDo=     1
 LinEq1:  Iter=  6 NonCon=     1 RMS=3.88D-06 Max=5.47D-05 NDo=     1
 LinEq1:  Iter=  7 NonCon=     1 RMS=1.19D-06 Max=1.41D-05 NDo=     1
 LinEq1:  Iter=  8 NonCon=     1 RMS=2.86D-07 Max=2.98D-06 NDo=     1
 LinEq1:  Iter=  9 NonCon=     1 RMS=7.43D-08 Max=1.48D-06 NDo=     1
 LinEq1:  Iter= 10 NonCon=     0 RMS=1.06D-08 Max=9.68D-08 NDo=     1
 Linear equations converged to 9.200D-08 9.200D-07 after    10 iterations.
 Angle between quadratic step and gradient=  52.58 degrees.
     ILin= 1 X=0.000D+00 Y=-1.963295750461D+02 DE= 0.00D+00 F= -5.11D-03
     ILin= 2 X=1.000D+00 Y=-1.963215241254D+02 DE= 8.05D-03 F=  3.42D-02
     Reject lnstep minimum 3.390D-01 FVal=-1.963306034140D+02 Lims=  0.00D+00  1.00D+00
     ILin= 3 X=3.000D-01 Y=-1.963306473767D+02 DE=-1.07D-03 F= -1.16D-03
     A contracting polynomial of degree  3 produced  0.2576
 Iteration   5 EE= -196.330578775529     Delta-E=       -0.001003729434 Grad=6.361D-03 Max rot=    0.1376 deg.
 QCNR:  CnvC1=6.36D-08 CnvC2=6.36D-07
 LinEq1:  Iter=  0 NonCon=     1 RMS=2.69D-04 Max=6.52D-03 NDo=     1
 LinEq1:  Iter=  1 NonCon=     1 RMS=2.84D-04 Max=6.57D-03 NDo=     1
 LinEq1:  Iter=  2 NonCon=     1 RMS=1.08D-04 Max=1.95D-03 NDo=     1
 LinEq1:  Iter=  3 NonCon=     1 RMS=3.94D-05 Max=6.05D-04 NDo=     1
 LinEq1:  Iter=  4 NonCon=     1 RMS=8.69D-06 Max=1.02D-04 NDo=     1
 LinEq1:  Iter=  5 NonCon=     1 RMS=4.55D-06 Max=5.93D-05 NDo=     1
 LinEq1:  Iter=  6 NonCon=     1 RMS=2.00D-06 Max=2.79D-05 NDo=     1
 LinEq1:  Iter=  7 NonCon=     1 RMS=5.65D-07 Max=7.06D-06 NDo=     1
 LinEq1:  Iter=  8 NonCon=     1 RMS=1.48D-07 Max=1.99D-06 NDo=     1
 LinEq1:  Iter=  9 NonCon=     1 RMS=4.32D-08 Max=8.99D-07 NDo=     1
 LinEq1:  Iter= 10 NonCon=     0 RMS=6.18D-09 Max=7.92D-08 NDo=     1
 Linear equations converged to 6.361D-08 6.361D-07 after    10 iterations.
 Angle between quadratic step and gradient=  65.13 degrees.
     ILin= 1 X=0.000D+00 Y=-1.963305787755D+02 DE= 0.00D+00 F= -2.59D-04
     ILin= 2 X=1.000D+00 Y=-1.963306962434D+02 DE=-1.17D-04 F=  3.67D-05
     Accept linear search using points  1 and  2.
     An  expanding polynomial of degree  2 produced  0.8887
 Iteration   6 EE= -196.330698276597     Delta-E=       -0.000119501068 Grad=7.640D-04 Max rot=    0.0097 deg.
 QCNR:  CnvC1=7.64D-09 CnvC2=7.64D-08
 LinEq1:  Iter=  0 NonCon=     1 RMS=2.93D-05 Max=5.21D-04 NDo=     1
 LinEq1:  Iter=  1 NonCon=     1 RMS=1.64D-05 Max=2.71D-04 NDo=     1
 LinEq1:  Iter=  2 NonCon=     1 RMS=1.01D-05 Max=2.65D-04 NDo=     1
 LinEq1:  Iter=  3 NonCon=     1 RMS=4.36D-06 Max=6.87D-05 NDo=     1
 LinEq1:  Iter=  4 NonCon=     1 RMS=1.35D-06 Max=2.18D-05 NDo=     1
 LinEq1:  Iter=  5 NonCon=     1 RMS=5.81D-07 Max=6.15D-06 NDo=     1
 LinEq1:  Iter=  6 NonCon=     1 RMS=2.72D-07 Max=3.18D-06 NDo=     1
 LinEq1:  Iter=  7 NonCon=     1 RMS=7.95D-08 Max=1.24D-06 NDo=     1
 LinEq1:  Iter=  8 NonCon=     1 RMS=1.55D-08 Max=2.06D-07 NDo=     1
 LinEq1:  Iter=  9 NonCon=     0 RMS=3.36D-09 Max=6.97D-08 NDo=     1
 Linear equations converged to 7.640D-09 7.640D-08 after     9 iterations.
 Angle between quadratic step and gradient=  59.21 degrees.
     ILin= 1 X=0.000D+00 Y=-1.963306982766D+02 DE= 0.00D+00 F= -8.84D-07
     ILin= 2 X=1.000D+00 Y=-1.963306987186D+02 DE=-4.42D-07
 Iteration   7 EE= -196.330698718649     Delta-E=       -0.000000442052 Grad=9.972D-07 Max rot=    0.0000 deg.
 Rotation gradient small -- convergence achieved.
 Orbital symmetries in SymMO:
    1=1    2=4    3=4    4=1    5=1    6=1    7=4    8=1    9=4   10=1
   11=1   12=4   13=4   14=1   15=3   16=1   17=2   18=3   19=4   20=1
   21=2   22=3   23=1   24=4   25=1   26=4   27=1   28=1   29=4   30=1
   31=4   32=3   33=4   34=3   35=2   36=1   37=1   38=4   39=1   40=2
   41=1   42=4   43=3   44=1   45=4   46=1   47=4   48=1   49=1   50=1
   51=4   52=1   53=4   54=4   55=1   56=1   57=4
 Orbital symmetries in SymMO:
    1=4    2=1    3=4    4=1    5=1    6=1    7=4    8=1    9=4   10=1
   11=1   12=4   13=4   14=1   15=1   16=3   17=2   18=1   19=3   20=4
   21=2   22=3   23=1   24=4   25=1   26=4   27=1   28=1   29=4   30=1
   31=4   32=3   33=4   34=1   35=2   36=3   37=1   38=4   39=1   40=2
   41=1   42=4   43=3   44=1   45=4   46=1   47=4   48=1   49=1   50=1
   51=4   52=1   53=4   54=4   55=1   56=1   57=4
 SCF Done:  E(ULC-wHPBE) =  -196.330698719     a.u. after    7 cycles
            Convg  =    0.9972D-06                    56 Fock formations.
              S**2 =  1.1356                  -V/T =  2.0220
 <Sx>= 0.0000 <Sy>= 0.0000 <Sz>= 0.5000 <S**2>= 1.1356 S= 0.6771
 <L.S>= 0.000000000000E+00
 Annihilation of the first spin contaminant:
 S**2 before annihilation     1.1356,   after     0.8527
 Leave Link  508 at Thu Mar  5 12:44:47 2020, MaxMem=  6710886400 cpu:             256.8 elap:              16.2
 (Enter /opt/ohpc/pub/libs/gaussian/g16-A.03/sandybridge/g16/l601.exe)
 Copying SCF densities to generalized density rwf, IOpCl= 1 IROHF=0.

 **********************************************************************

            Population analysis using the SCF density.

 **********************************************************************

 Orbital symmetries:
 Alpha Orbitals:
       Occupied  (A1) (B2) (B2) (A1) (A1) (A1) (B2) (A1) (B2) (A1)
                 (A1) (B2) (B2) (A1) (B1) (A1) (A2) (B1)
       Virtual   (B2) (A1) (A2) (B1) (A1) (B2) (A1) (B2) (A1) (A1)
                 (B2) (A1) (B2) (B1) (B2) (B1) (A2) (A1) (A1) (B2)
                 (A1) (A2) (A1) (B2) (B1) (A1) (B2) (A1) (B2) (A1)
                 (A1) (A1) (B2) (A1) (B2) (B2) (A1) (A1) (B2)
 Beta  Orbitals:
       Occupied  (B2) (A1) (B2) (A1) (A1) (A1) (B2) (A1) (B2) (A1)
                 (A1) (B2) (B2) (A1) (A1) (B1) (A2)
       Virtual   (A1) (B1) (B2) (A2) (B1) (A1) (B2) (A1) (B2) (A1)
                 (A1) (B2) (A1) (B2) (B1) (B2) (A1) (A2) (B1) (A1)
                 (B2) (A1) (A2) (A1) (B2) (B1) (A1) (B2) (A1) (B2)
                 (A1) (A1) (A1) (B2) (A1) (B2) (B2) (A1) (A1) (B2)
 The electronic state is 2-B1.
 Alpha  occ. eigenvalues --  -10.44638 -10.44637 -10.36812 -10.36812 -10.36061
 Alpha  occ. eigenvalues --   -1.22321  -1.13422  -1.06970  -0.95931  -0.88701
 Alpha  occ. eigenvalues --   -0.88236  -0.81153  -0.76307  -0.74209  -0.73113
 Alpha  occ. eigenvalues --   -0.69652  -0.64124  -0.57258
 Alpha virt. eigenvalues --   -0.37882  -0.31804  -0.23626  -0.12640  -0.08197
 Alpha virt. eigenvalues --   -0.04265  -0.00790   0.00739   0.02057   0.09642
 Alpha virt. eigenvalues --    0.11097   0.19172   0.20565   0.29096   0.31878
 Alpha virt. eigenvalues --    0.39308   0.39351   0.39425   0.41657   0.42923
 Alpha virt. eigenvalues --    0.44819   0.46924   0.47497   0.49494   0.49653
 Alpha virt. eigenvalues --    0.62133   0.64460   0.67219   0.70007   0.70016
 Alpha virt. eigenvalues --    0.75349   0.77293   0.78917   0.84989   0.92060
 Alpha virt. eigenvalues --    0.96585   1.01454   1.24092   1.24560
  Beta  occ. eigenvalues --  -10.43444 -10.43442 -10.37281 -10.37280 -10.35172
  Beta  occ. eigenvalues --   -1.21246  -1.12614  -1.03778  -0.94753  -0.88109
  Beta  occ. eigenvalues --   -0.87267  -0.80552  -0.75977  -0.73527  -0.70971
  Beta  occ. eigenvalues --   -0.69731  -0.61162
  Beta virt. eigenvalues --   -0.38743  -0.31991  -0.31723  -0.20447  -0.10054
  Beta virt. eigenvalues --   -0.07878  -0.03869  -0.00180   0.00806   0.02529
  Beta virt. eigenvalues --    0.10319   0.11661   0.19857   0.20774   0.32473
  Beta virt. eigenvalues --    0.32577   0.39907   0.41043   0.41662   0.42332
  Beta virt. eigenvalues --    0.43485   0.45071   0.47557   0.49938   0.50514
  Beta virt. eigenvalues --    0.51010   0.56321   0.64966   0.65626   0.70117
  Beta virt. eigenvalues --    0.71048   0.75919   0.77230   0.79384   0.86312
  Beta virt. eigenvalues --    0.92195   0.97362   1.01995   1.24902   1.26135
          Condensed to atoms (all electrons):
               1          2          3          4          5          6
     1  C    5.207728   0.496490  -0.060541  -0.041539   0.139584   0.085984
     2  C    0.496490   4.985206   0.482282  -0.056604  -0.041539  -0.002617
     3  C   -0.060541   0.482282   4.881982   0.482282  -0.060541   0.000461
     4  C   -0.041539  -0.056604   0.482282   4.985206   0.496490  -0.002617
     5  C    0.139584  -0.041539  -0.060541   0.496490   5.207728   0.085984
     6  H    0.085984  -0.002617   0.000461  -0.002617   0.085984   0.576897
     7  H    0.346569  -0.027644   0.002224   0.000621  -0.002264  -0.005035
     8  H   -0.022242   0.352666  -0.010231   0.002855   0.000390   0.000077
     9  H    0.003649  -0.026795   0.367821  -0.026795   0.003649  -0.000000
    10  H    0.000390   0.002855  -0.010231   0.352666  -0.022242   0.000077
    11  H   -0.002264   0.000621   0.002224  -0.027644   0.346569  -0.005035
               7          8          9         10         11
     1  C    0.346569  -0.022242   0.003649   0.000390  -0.002264
     2  C   -0.027644   0.352666  -0.026795   0.002855   0.000621
     3  C    0.002224  -0.010231   0.367821  -0.010231   0.002224
     4  C    0.000621   0.002855  -0.026795   0.352666  -0.027644
     5  C   -0.002264   0.000390   0.003649  -0.022242   0.346569
     6  H   -0.005035   0.000077  -0.000000   0.000077  -0.005035
     7  H    0.391872   0.000720  -0.000076  -0.000006   0.000021
     8  H    0.000720   0.374421  -0.002090  -0.000050  -0.000006
     9  H   -0.000076  -0.002090   0.426412  -0.002090  -0.000076
    10  H   -0.000006  -0.000050  -0.002090   0.374421   0.000720
    11  H    0.000021  -0.000006  -0.000076   0.000720   0.391872
          Atomic-Atomic Spin Densities.
               1          2          3          4          5          6
     1  C    0.899480  -0.046488  -0.016204  -0.017900   0.074240  -0.020361
     2  C   -0.046488  -0.395236   0.012604   0.010832  -0.017900  -0.000697
     3  C   -0.016204   0.012604   0.701440   0.012604  -0.016204  -0.000023
     4  C   -0.017900   0.010832   0.012604  -0.395236  -0.046488  -0.000697
     5  C    0.074240  -0.017900  -0.016204  -0.046488   0.899480  -0.020361
     6  H   -0.020361  -0.000697  -0.000023  -0.000697  -0.020361  -0.445389
     7  H   -0.010528   0.003276  -0.000111   0.000071  -0.000305   0.003499
     8  H   -0.002733   0.006023  -0.001292  -0.000230   0.000246  -0.000019
     9  H    0.000106  -0.000052  -0.002082  -0.000052   0.000106  -0.000000
    10  H    0.000246  -0.000230  -0.001292   0.006023  -0.002733  -0.000019
    11  H   -0.000305   0.000071  -0.000111   0.003276  -0.010528   0.003499
               7          8          9         10         11
     1  C   -0.010528  -0.002733   0.000106   0.000246  -0.000305
     2  C    0.003276   0.006023  -0.000052  -0.000230   0.000071
     3  C   -0.000111  -0.001292  -0.002082  -0.001292  -0.000111
     4  C    0.000071  -0.000230  -0.000052   0.006023   0.003276
     5  C   -0.000305   0.000246   0.000106  -0.002733  -0.010528
     6  H    0.003499  -0.000019  -0.000000  -0.000019   0.003499
     7  H   -0.040167   0.000038   0.000006  -0.000000  -0.000010
     8  H    0.000038   0.022251  -0.000002   0.000008  -0.000000
     9  H    0.000006  -0.000002  -0.030423  -0.000002   0.000006
    10  H   -0.000000   0.000008  -0.000002   0.022251   0.000038
    11  H   -0.000010  -0.000000   0.000006   0.000038  -0.040167
 Mulliken charges and spin densities:
               1          2
     1  C   -0.153808   0.859552
     2  C   -0.164921  -0.427797
     3  C   -0.077732   0.689331
     4  C   -0.164921  -0.427797
     5  C   -0.153808   0.859552
     6  H    0.265825  -0.480569
     7  H    0.292996  -0.044231
     8  H    0.303490   0.024290
     9  H    0.256392  -0.032390
    10  H    0.303490   0.024290
    11  H    0.292996  -0.044231
 Sum of Mulliken charges =   1.00000   1.00000
 Mulliken charges and spin densities with hydrogens summed into heavy atoms:
               1          2
     1  C    0.405014   0.334753
     2  C    0.138569  -0.403507
     3  C    0.178659   0.656941
     4  C    0.138569  -0.403507
     5  C    0.139189   0.815321
 Electronic spatial extent (au):  <R**2>=            373.9970
 Charge=              1.0000 electrons
 Dipole moment (field-independent basis, Debye):
    X=             -0.0000    Y=             -0.0000    Z=             -2.6746  Tot=              2.6746
 Quadrupole moment (field-independent basis, Debye-Ang):
   XX=            -32.0194   YY=            -12.4668   ZZ=            -10.5666
   XY=              0.0000   XZ=              0.0000   YZ=              0.0000
 Traceless Quadrupole moment (field-independent basis, Debye-Ang):
   XX=            -13.6685   YY=              5.8841   ZZ=              7.7843
   XY=              0.0000   XZ=              0.0000   YZ=              0.0000
 Octapole moment (field-independent basis, Debye-Ang**2):
  XXX=              0.0000  YYY=             -0.0000  ZZZ=            -20.1731  XYY=             -0.0000
  XXY=             -0.0000  XXZ=              1.5108  XZZ=              0.0000  YZZ=             -0.0000
  YYZ=             -3.6075  XYZ=             -0.0000
 Hexadecapole moment (field-independent basis, Debye-Ang**3):
 XXXX=            -32.1979 YYYY=           -173.1098 ZZZZ=            -99.7933 XXXY=             -0.0000
 XXXZ=             -0.0000 YYYX=             -0.0000 YYYZ=              0.0000 ZZZX=             -0.0000
 ZZZY=              0.0000 XXYY=            -54.1757 XXZZ=            -43.4942 YYZZ=            -48.6244
 XXYZ=              0.0000 YYXZ=              0.0000 ZZXY=             -0.0000
 N-N= 1.450218997931D+02 E-N=-7.306872955123D+02  KE= 1.920984572925D+02
 Symmetry A1   KE= 1.109203705164D+02
 Symmetry A2   KE= 2.455090494950D+00
 Symmetry B1   KE= 3.370519580147D+00
 Symmetry B2   KE= 7.535247670092D+01
 Symmetry A1   SP= 1.683318740474D-15
 Symmetry A2   SP=-5.630261881717D-16
 Symmetry B1   SP= 1.000000000000D+00
 Symmetry B2   SP= 8.633366374231D-16
                          Isotropic Fermi Contact Couplings
        Atom                 a.u.       MegaHertz       Gauss      10(-4) cm-1
     1  C(13)              0.17737     199.39615      71.14950      66.51140
     2  C(13)             -0.06858     -77.09925     -27.51093     -25.71754
     3  C(13)              0.11603     130.43828      46.54362      43.50953
     4  C(13)             -0.06858     -77.09925     -27.51093     -25.71754
     5  C(13)              0.17737     199.39615      71.14950      66.51140
     6  H(1)              -0.16886    -754.77567    -269.32273    -251.76606
     7  H(1)              -0.01750     -78.23899     -27.91762     -26.09772
     8  H(1)               0.01061      47.44409      16.92923      15.82565
     9  H(1)              -0.01245     -55.67020     -19.86451     -18.56958
    10  H(1)               0.01061      47.44409      16.92923      15.82565
    11  H(1)              -0.01750     -78.23899     -27.91762     -26.09772
 --------------------------------------------------------
       Center         ----  Spin Dipole Couplings  ----
                      3XX-RR        3YY-RR        3ZZ-RR
 --------------------------------------------------------
     1   Atom        0.548630     -0.212401     -0.336229
     2   Atom       -0.345108      0.131673      0.213435
     3   Atom        0.641195     -0.349746     -0.291448
     4   Atom       -0.345108      0.131673      0.213435
     5   Atom        0.548630     -0.212401     -0.336229
     6   Atom       -0.019648     -0.007131      0.026779
     7   Atom       -0.016760      0.041424     -0.024664
     8   Atom       -0.008557     -0.001812      0.010369
     9   Atom       -0.006695     -0.042458      0.049153
    10   Atom       -0.008557     -0.001812      0.010369
    11   Atom       -0.016760      0.041424     -0.024664
 --------------------------------------------------------
                        XY            XZ            YZ
 --------------------------------------------------------
     1   Atom        0.000000      0.000000      0.141034
     2   Atom       -0.000000      0.000000      0.003815
     3   Atom       -0.000000      0.000000      0.000000
     4   Atom       -0.000000     -0.000000     -0.003815
     5   Atom        0.000000      0.000000     -0.141034
     6   Atom        0.000000     -0.000000      0.000000
     7   Atom        0.000000      0.000000     -0.049904
     8   Atom        0.000000      0.000000     -0.012128
     9   Atom       -0.000000     -0.000000      0.000000
    10   Atom        0.000000     -0.000000      0.012128
    11   Atom        0.000000      0.000000      0.049904
 --------------------------------------------------------


 ---------------------------------------------------------------------------------
              Anisotropic Spin Dipole Couplings in Principal Axis System
 ---------------------------------------------------------------------------------

       Atom             a.u.   MegaHertz   Gauss  10(-4) cm-1        Axes

              Baa    -0.4283   -57.479   -20.510   -19.173 -0.0000 -0.5468  0.8372
     1 C(13)  Bbb    -0.1203   -16.142    -5.760    -5.384  0.0000  0.8372  0.5468
              Bcc     0.5486    73.621    26.270    24.557  1.0000 -0.0000  0.0000
 
              Baa    -0.3451   -46.310   -16.525   -15.447  1.0000 -0.0000  0.0000
     2 C(13)  Bbb     0.1315    17.645     6.296     5.886  0.0000  0.9989 -0.0465
              Bcc     0.2136    28.665    10.228     9.562  0.0000  0.0465  0.9989
 
              Baa    -0.3497   -46.933   -16.747   -15.655  0.0000  1.0000 -0.0000
     3 C(13)  Bbb    -0.2914   -39.110   -13.955   -13.046 -0.0000  0.0000  1.0000
              Bcc     0.6412    86.042    30.702    28.701  1.0000  0.0000  0.0000
 
              Baa    -0.3451   -46.310   -16.525   -15.447  1.0000  0.0000  0.0000
     4 C(13)  Bbb     0.1315    17.645     6.296     5.886 -0.0000  0.9989  0.0465
              Bcc     0.2136    28.665    10.228     9.562 -0.0000 -0.0465  0.9989
 
              Baa    -0.4283   -57.479   -20.510   -19.173 -0.0000  0.5468  0.8372
     5 C(13)  Bbb    -0.1203   -16.142    -5.760    -5.384 -0.0000  0.8372 -0.5468
              Bcc     0.5486    73.621    26.270    24.557  1.0000  0.0000  0.0000
 
              Baa    -0.0196   -10.483    -3.741    -3.497  1.0000  0.0000  0.0000
     6 H(1)   Bbb    -0.0071    -3.805    -1.358    -1.269 -0.0000  1.0000 -0.0000
              Bcc     0.0268    14.288     5.098     4.766  0.0000  0.0000  1.0000
 
              Baa    -0.0515   -27.463    -9.800    -9.161 -0.0000  0.4732  0.8809
     7 H(1)   Bbb    -0.0168    -8.942    -3.191    -2.983  1.0000  0.0000  0.0000
              Bcc     0.0682    36.406    12.990    12.144 -0.0000  0.8809 -0.4732
 
              Baa    -0.0093    -4.958    -1.769    -1.654 -0.0000  0.8511  0.5250
     8 H(1)   Bbb    -0.0086    -4.565    -1.629    -1.523  1.0000  0.0000  0.0000
              Bcc     0.0178     9.524     3.398     3.177  0.0000 -0.5250  0.8511
 
              Baa    -0.0425   -22.654    -8.083    -7.556 -0.0000  1.0000 -0.0000
     9 H(1)   Bbb    -0.0067    -3.572    -1.275    -1.192  1.0000  0.0000  0.0000
              Bcc     0.0492    26.226     9.358     8.748  0.0000  0.0000  1.0000
 
              Baa    -0.0093    -4.958    -1.769    -1.654 -0.0000  0.8511 -0.5250
    10 H(1)   Bbb    -0.0086    -4.565    -1.629    -1.523  1.0000  0.0000 -0.0000
              Bcc     0.0178     9.524     3.398     3.177  0.0000  0.5250  0.8511
 
              Baa    -0.0515   -27.463    -9.800    -9.161 -0.0000 -0.4732  0.8809
    11 H(1)   Bbb    -0.0168    -8.942    -3.191    -2.983  1.0000 -0.0000  0.0000
              Bcc     0.0682    36.406    12.990    12.144  0.0000  0.8809  0.4732
 

 ---------------------------------------------------------------------------------

 No NMR shielding tensors so no spin-rotation constants.
 Leave Link  601 at Thu Mar  5 12:44:47 2020, MaxMem=  6710886400 cpu:               2.9 elap:               0.2
 (Enter /opt/ohpc/pub/libs/gaussian/g16-A.03/sandybridge/g16/l9999.exe)

 Test job not archived.
 1\1\GINC-CNODE212\SP\ULC-wHPBE\6-31G\C5H6(1+,2)\SMGO234\05-Mar-2020\0\
 \#P uLC-wHPBE/6-31G iop(3/130=0278000000, 3/131=0278000000, 3/119=0722
 000000, 3/120=0722000000) scf=(conver=6,fermi,ndamp=35,noincfock,novar
 acc,vshift=500,xqc)\\H6 C5\\1,2\C,0,-1.206512,0.69658,0.\C,0,-1.206512
 ,-0.69658,0.\C,0,0.,-1.39316,0.\C,0,1.206512,-0.69658,0.\C,0,1.206512,
 0.69658,0.\H,0,0.,2.482681,0.\H,0,-2.150065,1.24134,0.\H,0,-2.150065,-
 1.24134,0.\H,0,0.,-2.482681,0.\H,0,2.150065,-1.24134,0.\H,0,2.150065,1
 .24134,0.\\Version=EM64L-G16RevA.03\State=2-B1\HF=-196.3306987\S2=1.13
 5581\S2-1=0.\S2A=0.852699\RMSD=2.683e-08\Dipole=0.,1.052252,0.\Quadrup
 ole=4.3747156,5.7874604,-10.1621761,0.,0.,0.\PG=C02V [C2(H1C1H1),SGV(C
 4H4)]\\@


 HIGGLEDY-PIGGLEDY
 NIC'LAUS COPERNICUS
 LOOKED AT THE UNIVERSE,
 SPOKE TO THE THRONG;
 GIVE UP YOUR PTOLOMY,
 RISE UP AND FOLLOW ME,
 HELIOCENTRICALLY
 PTOLEMY'S WRONG.
   -- NANCY L. STARK
 Job cpu time:       0 days  0 hours  5 minutes 34.9 seconds.
 Elapsed time:       0 days  0 hours  0 minutes 21.8 seconds.
 File lengths (MBytes):  RWF=    272 Int=      0 D2E=      0 Chk=     32 Scr=     32
 Normal termination of Gaussian 16 at Thu Mar  5 12:44:47 2020.
