 Entering Gaussian System, Link 0=g16
 Input=a1b_tune_c11.gjf
 Output=a1b_tune_c11.log
 Initial command:
 /opt/ohpc/pub/libs/gaussian/g16-A.03/sandybridge/g16/l1.exe "/scratch/smgo234/Ocelot/test/a1b/tuning_a1b_acycle0/Gau-74579.inp" -scrdir="/scratch/smgo234/Ocelot/test/a1b/tuning_a1b_acycle0/"
 Entering Link 1 = /opt/ohpc/pub/libs/gaussian/g16-A.03/sandybridge/g16/l1.exe PID=     74580.
  
 Copyright (c) 1988,1990,1992,1993,1995,1998,2003,2009,2016,
            Gaussian, Inc.  All Rights Reserved.
  
 This is part of the Gaussian(R) 16 program.  It is based on
 the Gaussian(R) 09 system (copyright 2009, Gaussian, Inc.),
 the Gaussian(R) 03 system (copyright 2003, Gaussian, Inc.),
 the Gaussian(R) 98 system (copyright 1998, Gaussian, Inc.),
 the Gaussian(R) 94 system (copyright 1995, Gaussian, Inc.),
 the Gaussian 92(TM) system (copyright 1992, Gaussian, Inc.),
 the Gaussian 90(TM) system (copyright 1990, Gaussian, Inc.),
 the Gaussian 88(TM) system (copyright 1988, Gaussian, Inc.),
 the Gaussian 86(TM) system (copyright 1986, Carnegie Mellon
 University), and the Gaussian 82(TM) system (copyright 1983,
 Carnegie Mellon University). Gaussian is a federally registered
 trademark of Gaussian, Inc.
  
 This software contains proprietary and confidential information,
 including trade secrets, belonging to Gaussian, Inc.
  
 This software is provided under written license and may be
 used, copied, transmitted, or stored only in accord with that
 written license.
  
 The following legend is applicable only to US Government
 contracts under FAR:
  
                    RESTRICTED RIGHTS LEGEND
  
 Use, reproduction and disclosure by the US Government is
 subject to restrictions as set forth in subparagraphs (a)
 and (c) of the Commercial Computer Software - Restricted
 Rights clause in FAR 52.227-19.
  
 Gaussian, Inc.
 340 Quinnipiac St., Bldg. 40, Wallingford CT 06492
  
  
 ---------------------------------------------------------------
 Warning -- This program may not be used in any manner that
 competes with the business of Gaussian, Inc. or will provide
 assistance to any competitor of Gaussian, Inc.  The licensee
 of this program is prohibited from giving any competitor of
 Gaussian, Inc. access to this program.  By using this program,
 the user acknowledges that Gaussian, Inc. is engaged in the
 business of creating and licensing software in the field of
 computational chemistry and represents and warrants to the
 licensee that it is not a competitor of Gaussian, Inc. and that
 it will not use this program in any manner prohibited above.
 ---------------------------------------------------------------
  

 Cite this work as:
 Gaussian 16, Revision A.03,
 M. J. Frisch, G. W. Trucks, H. B. Schlegel, G. E. Scuseria, 
 M. A. Robb, J. R. Cheeseman, G. Scalmani, V. Barone, 
 G. A. Petersson, H. Nakatsuji, X. Li, M. Caricato, A. V. Marenich, 
 J. Bloino, B. G. Janesko, R. Gomperts, B. Mennucci, H. P. Hratchian, 
 J. V. Ortiz, A. F. Izmaylov, J. L. Sonnenberg, D. Williams-Young, 
 F. Ding, F. Lipparini, F. Egidi, J. Goings, B. Peng, A. Petrone, 
 T. Henderson, D. Ranasinghe, V. G. Zakrzewski, J. Gao, N. Rega, 
 G. Zheng, W. Liang, M. Hada, M. Ehara, K. Toyota, R. Fukuda, 
 J. Hasegawa, M. Ishida, T. Nakajima, Y. Honda, O. Kitao, H. Nakai, 
 T. Vreven, K. Throssell, J. A. Montgomery, Jr., J. E. Peralta, 
 F. Ogliaro, M. J. Bearpark, J. J. Heyd, E. N. Brothers, K. N. Kudin, 
 V. N. Staroverov, T. A. Keith, R. Kobayashi, J. Normand, 
 K. Raghavachari, A. P. Rendell, J. C. Burant, S. S. Iyengar, 
 J. Tomasi, M. Cossi, J. M. Millam, M. Klene, C. Adamo, R. Cammi, 
 J. W. Ochterski, R. L. Martin, K. Morokuma, O. Farkas, 
 J. B. Foresman, and D. J. Fox, Gaussian, Inc., Wallingford CT, 2016.
 
 ******************************************
 Gaussian 16:  EM64L-G16RevA.03 25-Dec-2016
                 5-Mar-2020 
 ******************************************
 %mem=50GB
 %nproc=16
 Will use up to   16 processors via shared memory.
 ----------------------------------------------------------------------
 #P uLC-wHPBE/6-31G iop(3/130=0274300000, 3/131=0274300000, 3/119=07257
 00000, 3/120=0725700000) scf=(conver=6,fermi,ndamp=35,noincfock,novara
 cc,vshift=500,xqc)
 ----------------------------------------------------------------------
 1/38=1,172=1/1;
 2/12=2,17=6,18=5,40=1/2;
 3/5=1,6=6,11=2,25=1,30=1,74=-71,116=2,119=725700000,120=725700000,130=274300000,131=274300000/1,2,3;
 4//1;
 5/5=100002,6=6,8=3,10=500,13=1,18=-1,22=13,38=1,93=35/2,8;
 6/7=2,8=2,9=2,10=2,28=1/1;
 99/5=1,9=1/99;
 Leave Link    1 at Thu Mar  5 12:49:27 2020, MaxMem=  6710886400 cpu:              15.0 elap:               1.0
 (Enter /opt/ohpc/pub/libs/gaussian/g16-A.03/sandybridge/g16/l101.exe)
 -----
 H6 C5
 -----
 Symbolic Z-matrix:
 Charge =  1 Multiplicity = 2
 C                    -1.20651   0.69658   0. 
 C                    -1.20651  -0.69658   0. 
 C                     0.       -1.39316   0. 
 C                     1.20651  -0.69658   0. 
 C                     1.20651   0.69658   0. 
 H                     0.        2.48268   0. 
 H                    -2.15007   1.24134   0. 
 H                    -2.15007  -1.24134   0. 
 H                     0.       -2.48268   0. 
 H                     2.15007  -1.24134   0. 
 H                     2.15007   1.24134   0. 
 
 ITRead=  0  0  0  0  0  0  0  0  0  0  0
 MicOpt= -1 -1 -1 -1 -1 -1 -1 -1 -1 -1 -1
 NAtoms=     11 NQM=       11 NQMF=       0 NMMI=      0 NMMIF=      0
                NMic=       0 NMicF=      0.
                    Isotopes and Nuclear Properties:
 (Nuclear quadrupole moments (NQMom) in fm**2, nuclear magnetic moments (NMagM)
  in nuclear magnetons)

  Atom         1           2           3           4           5           6           7           8           9          10
 IAtWgt=          12          12          12          12          12           1           1           1           1           1
 AtmWgt=  12.0000000  12.0000000  12.0000000  12.0000000  12.0000000   1.0078250   1.0078250   1.0078250   1.0078250   1.0078250
 NucSpn=           0           0           0           0           0           1           1           1           1           1
 AtZEff=  -0.0000000  -0.0000000  -0.0000000  -0.0000000  -0.0000000  -0.0000000  -0.0000000  -0.0000000  -0.0000000  -0.0000000
 NQMom=    0.0000000   0.0000000   0.0000000   0.0000000   0.0000000   0.0000000   0.0000000   0.0000000   0.0000000   0.0000000
 NMagM=    0.0000000   0.0000000   0.0000000   0.0000000   0.0000000   2.7928460   2.7928460   2.7928460   2.7928460   2.7928460
 AtZNuc=   6.0000000   6.0000000   6.0000000   6.0000000   6.0000000   1.0000000   1.0000000   1.0000000   1.0000000   1.0000000

  Atom        11
 IAtWgt=           1
 AtmWgt=   1.0078250
 NucSpn=           1
 AtZEff=  -0.0000000
 NQMom=    0.0000000
 NMagM=    2.7928460
 AtZNuc=   1.0000000
 Leave Link  101 at Thu Mar  5 12:49:27 2020, MaxMem=  6710886400 cpu:               2.3 elap:               0.2
 (Enter /opt/ohpc/pub/libs/gaussian/g16-A.03/sandybridge/g16/l202.exe)
                          Input orientation:                          
 ---------------------------------------------------------------------
 Center     Atomic      Atomic             Coordinates (Angstroms)
 Number     Number       Type             X           Y           Z
 ---------------------------------------------------------------------
      1          6           0       -1.206512    0.696580    0.000000
      2          6           0       -1.206512   -0.696580    0.000000
      3          6           0        0.000000   -1.393160    0.000000
      4          6           0        1.206512   -0.696580    0.000000
      5          6           0        1.206512    0.696580    0.000000
      6          1           0        0.000000    2.482681    0.000000
      7          1           0       -2.150065    1.241340    0.000000
      8          1           0       -2.150065   -1.241340    0.000000
      9          1           0        0.000000   -2.482681    0.000000
     10          1           0        2.150065   -1.241340    0.000000
     11          1           0        2.150065    1.241340    0.000000
 ---------------------------------------------------------------------
                    Distance matrix (angstroms):
                    1          2          3          4          5
     1  C    0.000000
     2  C    1.393160   0.000000
     3  C    2.413024   1.393160   0.000000
     4  C    2.786320   2.413024   1.393160   0.000000
     5  C    2.413024   2.786320   2.413024   1.393160   0.000000
     6  H    2.155418   3.400496   3.875841   3.400496   2.155418
     7  H    1.089521   2.155418   3.400496   3.875841   3.400496
     8  H    2.155418   1.089521   2.155418   3.400496   3.875841
     9  H    3.400496   2.155418   1.089521   2.155418   3.400496
    10  H    3.875841   3.400496   2.155418   1.089521   2.155418
    11  H    3.400496   3.875841   3.400496   2.155418   1.089521
                    6          7          8          9         10
     6  H    0.000000
     7  H    2.482681   0.000000
     8  H    4.300129   2.482680   0.000000
     9  H    4.965362   4.300129   2.482681   0.000000
    10  H    4.300129   4.965362   4.300130   2.482681   0.000000
    11  H    2.482681   4.300130   4.965362   4.300129   2.482680
                   11
    11  H    0.000000
 Stoichiometry    C5H6(1+,2)
 Framework group  C2V[C2(HCH),SGV(C4H4)]
 Deg. of freedom    10
 Full point group                 C2V     NOp   4
 Largest Abelian subgroup         C2V     NOp   4
 Largest concise Abelian subgroup C2      NOp   2
                         Standard orientation:                         
 ---------------------------------------------------------------------
 Center     Atomic      Atomic             Coordinates (Angstroms)
 Number     Number       Type             X           Y           Z
 ---------------------------------------------------------------------
      1          6           0       -0.000000    1.206512   -0.928773
      2          6           0       -0.000000    1.206512    0.464387
      3          6           0        0.000000    0.000000    1.160967
      4          6           0       -0.000000   -1.206512    0.464387
      5          6           0       -0.000000   -1.206512   -0.928773
      6          1           0       -0.000000   -0.000000   -2.714874
      7          1           0       -0.000000    2.150065   -1.473533
      8          1           0       -0.000000    2.150065    1.009147
      9          1           0        0.000000    0.000000    2.250488
     10          1           0       -0.000000   -2.150065    1.009147
     11          1           0       -0.000000   -2.150065   -1.473533
 ---------------------------------------------------------------------
 Rotational constants (GHZ):           8.2868568           5.7099792           3.3806054
 Leave Link  202 at Thu Mar  5 12:49:27 2020, MaxMem=  6710886400 cpu:               1.9 elap:               0.1
 (Enter /opt/ohpc/pub/libs/gaussian/g16-A.03/sandybridge/g16/l301.exe)
 Standard basis: 6-31G (6D, 7F)
 Ernie: Thresh=  0.10000D-02 Tol=  0.10000D-05 Strict=F.
 There are    27 symmetry adapted cartesian basis functions of A1  symmetry.
 There are     4 symmetry adapted cartesian basis functions of A2  symmetry.
 There are     6 symmetry adapted cartesian basis functions of B1  symmetry.
 There are    20 symmetry adapted cartesian basis functions of B2  symmetry.
 There are    27 symmetry adapted basis functions of A1  symmetry.
 There are     4 symmetry adapted basis functions of A2  symmetry.
 There are     6 symmetry adapted basis functions of B1  symmetry.
 There are    20 symmetry adapted basis functions of B2  symmetry.
    57 basis functions,   134 primitive gaussians,    57 cartesian basis functions
    18 alpha electrons       17 beta electrons
       nuclear repulsion energy       145.0218997931 Hartrees.
 IExCor=33909 DFT=T Ex+Corr=LC-wHPBE ExCW=0 ScaHFX=  1.000000
 ScaDFX=  1.000000  1.000000  1.000000  1.000000 ScalE2=  1.000000  1.000000
 IRadAn=      5 IRanWt=     -1 IRanGd=            0 ICorTp=0 IEmpDi=  4
 HFx  wShort=  0.000000 wLong=  0.400000 cFull=  0.000000 cShort=  0.000000 cLong=  0.725700
 DFx  wShort=  0.000000 wLong=  0.400000 cFull=  0.000000 cShort=  1.000000 cLong=  0.725700
 NAtoms=   11 NActive=   11 NUniq=    7 SFac= 2.47D+00 NAtFMM=   60 NAOKFM=F Big=F
 Integral buffers will be    131072 words long.
 Raffenetti 2 integral format.
 Two-electron integral symmetry is turned on.
 Leave Link  301 at Thu Mar  5 12:49:28 2020, MaxMem=  6710886400 cpu:               0.9 elap:               0.1
 (Enter /opt/ohpc/pub/libs/gaussian/g16-A.03/sandybridge/g16/l302.exe)
 NPDir=0 NMtPBC=     1 NCelOv=     1 NCel=       1 NClECP=     1 NCelD=      1
         NCelK=      1 NCelE2=     1 NClLst=     1 CellRange=     0.0.
 One-electron integrals computed using PRISM.
 One-electron integral symmetry used in STVInt
 NBasis=    57 RedAO= T EigKep=  2.88D-03  NBF=    27     4     6    20
 NBsUse=    57 1.00D-06 EigRej= -1.00D+00 NBFU=    27     4     6    20
 Precomputing XC quadrature grid using
 IXCGrd= 4 IRadAn=           5 IRanWt=          -1 IRanGd=           0 AccXCQ= 0.00D+00.
 Generated NRdTot=       0 NPtTot=           0 NUsed=           0 NTot=          32
 NSgBfM=    57    57    57    57    57 MxSgAt=    11 MxSgA2=    11.
 Leave Link  302 at Thu Mar  5 12:49:28 2020, MaxMem=  6710886400 cpu:               2.3 elap:               0.2
 (Enter /opt/ohpc/pub/libs/gaussian/g16-A.03/sandybridge/g16/l303.exe)
 DipDrv:  MaxL=1.
 Leave Link  303 at Thu Mar  5 12:49:28 2020, MaxMem=  6710886400 cpu:               0.5 elap:               0.0
 (Enter /opt/ohpc/pub/libs/gaussian/g16-A.03/sandybridge/g16/l401.exe)
 ExpMin= 1.61D-01 ExpMax= 3.05D+03 ExpMxC= 4.57D+02 IAcc=3 IRadAn=         5 AccDes= 0.00D+00
 Harris functional with IExCor=33909 and IRadAn=       5 diagonalized for initial guess.
 HarFok:  IExCor=33909 AccDes= 0.00D+00 IRadAn=         5 IDoV= 1 UseB2=F ITyADJ=14
 ICtDFT=  3500011 ScaDFX=  1.000000  1.000000  1.000000  1.000000
 FoFCou: FMM=F IPFlag=           0 FMFlag=      100000 FMFlg1=           0
         NFxFlg=           0 DoJE=T BraDBF=F KetDBF=T FulRan=T
         wScrn=  0.000000 ICntrl=       500 IOpCl=  0 I1Cent=   200000004 NGrid=           0
         NMat0=    1 NMatS0=      1 NMatT0=    0 NMatD0=    1 NMtDS0=    0 NMtDT0=    0
 Petite list used in FoFCou.
 Harris En= -191.516292667975    
 JPrj=0 DoOrth=F DoCkMO=F.
 Initial guess orbital symmetries:
 Alpha Orbitals:
       Occupied  (A1) (B2) (A1) (B2) (A1) (A1) (B2) (A1) (B2) (A1)
                 (A1) (B2) (B2) (A1) (B1) (A1) (A2) (B1)
       Virtual   (B2) (A1) (A2) (B1) (A1) (B2) (A1) (B2) (A1) (A1)
                 (B2) (A1) (B2) (B1) (B2) (A1) (B1) (A2) (A1) (B2)
                 (A1) (A2) (B1) (B2) (A1) (A1) (B2) (A1) (B2) (A1)
                 (A1) (B2) (A1) (A1) (B2) (B2) (A1) (A1) (B2)
 Beta  Orbitals:
       Occupied  (A1) (B2) (A1) (B2) (A1) (A1) (B2) (A1) (B2) (A1)
                 (A1) (B2) (B2) (A1) (B1) (A1) (A2)
       Virtual   (B1) (B2) (A1) (A2) (B1) (A1) (B2) (A1) (B2) (A1)
                 (A1) (B2) (A1) (B2) (B1) (B2) (A1) (B1) (A2) (A1)
                 (B2) (A1) (A2) (B1) (B2) (A1) (A1) (B2) (A1) (B2)
                 (A1) (A1) (B2) (A1) (A1) (B2) (B2) (A1) (A1) (B2)
 The electronic state of the initial guess is 2-B1.
 Initial guess <Sx>= 0.0000 <Sy>= 0.0000 <Sz>= 0.5000 <S**2>= 0.7500 S= 0.5000
 Leave Link  401 at Thu Mar  5 12:49:28 2020, MaxMem=  6710886400 cpu:               3.0 elap:               0.2
 (Enter /opt/ohpc/pub/libs/gaussian/g16-A.03/sandybridge/g16/l502.exe)
 Keep R1 and R2 ints in memory in symmetry-blocked form, NReq=16815659.
 FoFCou: FMM=F IPFlag=           0 FMFlag=           0 FMFlg1=           0
         NFxFlg=           0 DoJE=F BraDBF=F KetDBF=F FulRan=T
         wScrn=  0.000000 ICntrl=       600 IOpCl=  0 I1Cent=           0 NGrid=           0
         NMat0=    1 NMatS0=   1653 NMatT0=    0 NMatD0=    1 NMtDS0=    0 NMtDT0=    0
 Petite list used in FoFCou.
 UHF open shell SCF:
 Using DIIS extrapolation, IDIIS=    10.
 NGot=  6710886400 LenX=  6710059583 LenY=  6710055893
 Requested convergence on RMS density matrix=1.00D-06 within  32 cycles.
 Requested convergence on MAX density matrix=1.00D-04.
 Requested convergence on             energy=1.00D-04.
 Virtual orbitals will be shifted by   0.500 hartree.
 No special actions if energy rises.
 Dynamic level shift is on during FON iterations.

 Cycle   1  Pass 1  IDiag  1:
 E= -196.254023989363    
 DIIS: error= 5.93D-02 at cycle   1 NSaved=   1.
 NSaved= 1 IEnMin= 1 EnMin= -196.254023989363     IErMin= 1 ErrMin= 5.93D-02
 ErrMax= 5.93D-02  0.00D+00 EMaxC= 1.00D+00 BMatC= 2.95D-01 BMatP= 2.95D-01
 IDIUse=1 WtCom= 1.00D+00 WtEn= 0.00D+00
 Coeff-Com:  0.100D+01
 Coeff:      0.100D+01
 Gap=     0.036 Goal=   None    Shift=    0.500
 T= 1905. Gap= 0.494 NK=0 IS=   19 IE=   57 IFin=   18
          NO(<0.9)=   0  NV(>0.1)=   0     18.00e < EF      0.00e >EF  Err=0.0D+00
 Gap=     0.058 Goal=   None    Shift=    0.500
 T= 1905. Gap= 0.564 NK=0 IS=   18 IE=   57 IFin=   17
          NO(<0.9)=   0  NV(>0.1)=   0     17.00e < EF      0.00e >EF  Err=0.0D+00
 GapD=    0.036 DampG=0.250 DampE=0.500 DampFc=0.1250 IDamp=-1.
 Damping current iteration by 1.25D-01
 RMSDP=8.00D-03 MaxDP=6.44D-02              OVMax= 1.31D-01

 Cycle   2  Pass 1  IDiag  1:
 E= -196.273923387288     Delta-E=       -0.019899397926 Rises=F Damp=T
 DIIS: error= 5.15D-02 at cycle   2 NSaved=   2.
 NSaved= 2 IEnMin= 2 EnMin= -196.273923387288     IErMin= 2 ErrMin= 5.15D-02
 ErrMax= 5.15D-02  0.00D+00 EMaxC= 1.00D+00 BMatC= 2.11D-01 BMatP= 2.95D-01
 IDIUse=1 WtCom= 1.00D+00 WtEn= 0.00D+00
 Coeff-Com: -0.497D+01 0.597D+01
 Coeff:     -0.497D+01 0.597D+01
 Gap=     0.134 Goal=   None    Shift=    0.500
 T= 1878. Gap= 0.615 NK=4 IS=   19 IE=   24 IFin=   18
          NO(<0.9)=   0  NV(>0.1)=   0     18.00e < EF      0.00e >EF  Err=0.0D+00
 Gap=     0.164 Goal=   None    Shift=    0.500
 T= 1878. Gap= 0.666 NK=4 IS=   18 IE=   21 IFin=   17
          NO(<0.9)=   0  NV(>0.1)=   0     17.00e < EF      0.00e >EF  Err=0.0D+00
 GapD=    0.134 DampG=1.000 DampE=0.500 DampFc=0.5000 IDamp=-1.
 Damping current iteration by 5.00D-01
 RMSDP=7.51D-03 MaxDP=6.30D-02 DE=-1.99D-02 OVMax= 5.51D-02

 Cycle   3  Pass 1  IDiag  1:
 E= -196.331403835690     Delta-E=       -0.057480448401 Rises=F Damp=T
 DIIS: error= 2.78D-02 at cycle   3 NSaved=   3.
 NSaved= 3 IEnMin= 3 EnMin= -196.331403835690     IErMin= 3 ErrMin= 2.78D-02
 ErrMax= 2.78D-02  0.00D+00 EMaxC= 1.00D+00 BMatC= 4.55D-02 BMatP= 2.11D-01
 IDIUse=1 WtCom= 1.00D+00 WtEn= 0.00D+00
 Coeff-Com:  0.228D+01-0.382D+01 0.254D+01
 Coeff:      0.228D+01-0.382D+01 0.254D+01
 Gap=     0.167 Goal=   None    Shift=    0.500
 T= 1755. Gap= 0.666 NK=4 IS=   19 IE=   24 IFin=   18
          NO(<0.9)=   0  NV(>0.1)=   0     18.00e < EF      0.00e >EF  Err=0.0D+00
 Gap=     0.217 Goal=   None    Shift=    0.500
 T= 1755. Gap= 0.718 NK=4 IS=   18 IE=   21 IFin=   17
          NO(<0.9)=   0  NV(>0.1)=   0     17.00e < EF      0.00e >EF  Err=0.0D+00
 GapD=    0.167 DampG=1.000 DampE=0.500 DampFc=0.5000 IDamp=-1.
 Damping current iteration by 5.00D-01
 RMSDP=3.79D-03 MaxDP=3.25D-02 DE=-5.75D-02 OVMax= 2.34D-02

 Cycle   4  Pass 1  IDiag  1:
 E= -196.354071768986     Delta-E=       -0.022667933296 Rises=F Damp=T
 DIIS: error= 1.63D-02 at cycle   4 NSaved=   4.
 NSaved= 4 IEnMin= 4 EnMin= -196.354071768986     IErMin= 4 ErrMin= 1.63D-02
 ErrMax= 1.63D-02  0.00D+00 EMaxC= 1.00D+00 BMatC= 1.19D-02 BMatP= 4.55D-02
 IDIUse=1 WtCom= 1.00D+00 WtEn= 0.00D+00
 Coeff-Com:  0.801D+00-0.591D+00-0.216D+01 0.295D+01
 Coeff:      0.801D+00-0.591D+00-0.216D+01 0.295D+01
 Gap=     0.182 Goal=   None    Shift=    0.500
 T= 1532. Gap= 0.682 NK=4 IS=   19 IE=   24 IFin=   18
          NO(<0.9)=   0  NV(>0.1)=   0     18.00e < EF      0.00e >EF  Err=0.0D+00
 Gap=     0.231 Goal=   None    Shift=    0.500
 T= 1532. Gap= 0.731 NK=4 IS=   18 IE=   21 IFin=   17
          NO(<0.9)=   0  NV(>0.1)=   0     17.00e < EF      0.00e >EF  Err=0.0D+00
 GapD=    0.182 DampG=1.000 DampE=0.500 DampFc=0.5000 IDamp=-1.
 Damping current iteration by 5.00D-01
 RMSDP=2.11D-03 MaxDP=2.28D-02 DE=-2.27D-02 OVMax= 1.67D-02

 Cycle   5  Pass 1  IDiag  1:
 E= -196.364771148161     Delta-E=       -0.010699379176 Rises=F Damp=T
 DIIS: error= 1.08D-02 at cycle   5 NSaved=   5.
 NSaved= 5 IEnMin= 5 EnMin= -196.364771148161     IErMin= 5 ErrMin= 1.08D-02
 ErrMax= 1.08D-02  0.00D+00 EMaxC= 1.00D+00 BMatC= 4.06D-03 BMatP= 1.19D-02
 IDIUse=1 WtCom= 1.00D+00 WtEn= 0.00D+00
 Coeff-Com: -0.844D+00 0.125D+01 0.307D+00-0.408D+01 0.437D+01
 Coeff:     -0.844D+00 0.125D+01 0.307D+00-0.408D+01 0.437D+01
 Gap=     0.189 Goal=   None    Shift=    0.500
 T= 1199. Gap= 0.689 NK=4 IS=   19 IE=   24 IFin=   18
          NO(<0.9)=   0  NV(>0.1)=   0     18.00e < EF      0.00e >EF  Err=0.0D+00
 Gap=     0.235 Goal=   None    Shift=    0.500
 T= 1199. Gap= 0.735 NK=4 IS=   18 IE=   21 IFin=   17
          NO(<0.9)=   0  NV(>0.1)=   0     17.00e < EF      0.00e >EF  Err=0.0D+00
 GapD=    0.189 DampG=1.000 DampE=0.500 DampFc=0.5000 IDamp=-1.
 Damping current iteration by 5.00D-01
 RMSDP=1.49D-03 MaxDP=1.97D-02 DE=-1.07D-02 OVMax= 2.04D-02

 Cycle   6  Pass 1  IDiag  1:
 E= -196.370460380990     Delta-E=       -0.005689232828 Rises=F Damp=T
 DIIS: error= 7.56D-03 at cycle   6 NSaved=   6.
 NSaved= 6 IEnMin= 6 EnMin= -196.370460380990     IErMin= 6 ErrMin= 7.56D-03
 ErrMax= 7.56D-03  0.00D+00 EMaxC= 1.00D+00 BMatC= 1.65D-03 BMatP= 4.06D-03
 IDIUse=1 WtCom= 1.00D+00 WtEn= 0.00D+00
 Coeff-Com:  0.306D+00-0.534D+00 0.439D+00 0.123D+01-0.529D+01 0.484D+01
 Coeff:      0.306D+00-0.534D+00 0.439D+00 0.123D+01-0.529D+01 0.484D+01
 Gap=     0.192 Goal=   None    Shift=    0.500
 T=  923. Gap= 0.692 NK=4 IS=   19 IE=   24 IFin=   18
          NO(<0.9)=   0  NV(>0.1)=   0     18.00e < EF      0.00e >EF  Err=0.0D+00
 Gap=     0.235 Goal=   None    Shift=    0.500
 T=  923. Gap= 0.735 NK=4 IS=   18 IE=   21 IFin=   17
          NO(<0.9)=   0  NV(>0.1)=   0     17.00e < EF      0.00e >EF  Err=0.0D+00
 GapD=    0.192 DampG=1.000 DampE=1.000 DampFc=1.0000 IDamp=-1.
 RMSDP=1.13D-03 MaxDP=1.64D-02 DE=-5.69D-03 OVMax= 1.84D-02

 Cycle   7  Pass 1  IDiag  1:
 E= -196.377573423951     Delta-E=       -0.007113042962 Rises=F Damp=F
 DIIS: error= 3.37D-03 at cycle   7 NSaved=   7.
 NSaved= 7 IEnMin= 7 EnMin= -196.377573423951     IErMin= 7 ErrMin= 3.37D-03
 ErrMax= 3.37D-03  0.00D+00 EMaxC= 1.00D+00 BMatC= 2.67D-04 BMatP= 1.65D-03
 IDIUse=1 WtCom= 1.00D+00 WtEn= 0.00D+00
 Coeff-Com:  0.142D+00-0.177D+00-0.322D+00 0.101D+01 0.140D+01-0.399D+01
 Coeff-Com:  0.294D+01
 Coeff:      0.142D+00-0.177D+00-0.322D+00 0.101D+01 0.140D+01-0.399D+01
 Coeff:      0.294D+01
 Gap=     0.195 Goal=   None    Shift=    0.500
 T=  644. Gap= 0.695 NK=4 IS=   19 IE=   24 IFin=   18
          NO(<0.9)=   0  NV(>0.1)=   0     18.00e < EF      0.00e >EF  Err=0.0D+00
 Gap=     0.234 Goal=   None    Shift=    0.500
 T=  644. Gap= 0.735 NK=4 IS=   18 IE=   21 IFin=   17
          NO(<0.9)=   0  NV(>0.1)=   0     17.00e < EF      0.00e >EF  Err=0.0D+00
 GapD=    0.195 DampG=1.000 DampE=1.000 DampFc=1.0000 IDamp=-1.
 RMSDP=3.97D-04 MaxDP=6.08D-03 DE=-7.11D-03 OVMax= 1.65D-02

 Cycle   8  Pass 1  IDiag  1:
 E= -196.378124372051     Delta-E=       -0.000550948099 Rises=F Damp=F
 DIIS: error= 2.39D-03 at cycle   8 NSaved=   8.
 NSaved= 8 IEnMin= 8 EnMin= -196.378124372051     IErMin= 8 ErrMin= 2.39D-03
 ErrMax= 2.39D-03  0.00D+00 EMaxC= 1.00D+00 BMatC= 1.56D-04 BMatP= 2.67D-04
 IDIUse=1 WtCom= 1.00D+00 WtEn= 0.00D+00
 Coeff-Com: -0.543D-01 0.106D+00-0.149D+00-0.294D+00 0.232D+01-0.295D+01
 Coeff-Com:  0.580D+00 0.145D+01
 Coeff:     -0.543D-01 0.106D+00-0.149D+00-0.294D+00 0.232D+01-0.295D+01
 Coeff:      0.580D+00 0.145D+01
 Gap=     0.197 Goal=   None    Shift=    0.500
 T=  350. Gap= 0.697 NK=4 IS=   19 IE=   24 IFin=   18
          NO(<0.9)=   0  NV(>0.1)=   0     18.00e < EF      0.00e >EF  Err=0.0D+00
 Gap=     0.234 Goal=   None    Shift=    0.500
 T=  350. Gap= 0.734 NK=4 IS=   18 IE=   21 IFin=   17
          NO(<0.9)=   0  NV(>0.1)=   0     17.00e < EF      0.00e >EF  Err=0.0D+00
 GapD=    0.197 DampG=1.000 DampE=1.000 DampFc=1.0000 IDamp=-1.
 RMSDP=2.63D-04 MaxDP=3.47D-03 DE=-5.51D-04 OVMax= 1.10D-02

 Cycle   9  Pass 1  IDiag  1:
 E= -196.378421551506     Delta-E=       -0.000297179455 Rises=F Damp=F
 DIIS: error= 1.92D-03 at cycle   9 NSaved=   9.
 NSaved= 9 IEnMin= 9 EnMin= -196.378421551506     IErMin= 9 ErrMin= 1.92D-03
 ErrMax= 1.92D-03  0.00D+00 EMaxC= 1.00D+00 BMatC= 1.07D-04 BMatP= 1.56D-04
 IDIUse=1 WtCom= 1.00D+00 WtEn= 0.00D+00
 Coeff-Com: -0.879D-01 0.966D-01 0.376D+00-0.112D+01-0.728D+00 0.298D+01
 Coeff-Com: -0.242D+01-0.159D+01 0.349D+01
 Coeff:     -0.879D-01 0.966D-01 0.376D+00-0.112D+01-0.728D+00 0.298D+01
 Coeff:     -0.242D+01-0.159D+01 0.349D+01
 Gap=     0.200 Goal=   None    Shift=    0.500
 T=   19. Gap= 0.700 NK=4 IS=   19 IE=   24 IFin=   18
          NO(<0.9)=   0  NV(>0.1)=   0     18.00e < EF      0.00e >EF  Err=0.0D+00
 Gap=     0.232 Goal=   None    Shift=    0.500
 T=   19. Gap= 0.732 NK=4 IS=   18 IE=   21 IFin=   17
          NO(<0.9)=   0  NV(>0.1)=   0     17.00e < EF      0.00e >EF  Err=0.0D+00
 GapD=    0.200 DampG=1.000 DampE=1.000 DampFc=1.0000 IDamp=-1.
 RMSDP=2.89D-04 MaxDP=4.34D-03 DE=-2.97D-04 OVMax= 1.26D-02

 Cycle  10  Pass 1  IDiag  1:
 E= -196.378714277974     Delta-E=       -0.000292726468 Rises=F Damp=F
 DIIS: error= 1.83D-03 at cycle  10 NSaved=  10.
 NSaved=10 IEnMin=10 EnMin= -196.378714277974     IErMin=10 ErrMin= 1.83D-03
 ErrMax= 1.83D-03  0.00D+00 EMaxC= 1.00D+00 BMatC= 8.17D-05 BMatP= 1.07D-04
 IDIUse=1 WtCom= 1.00D+00 WtEn= 0.00D+00
 Coeff-Com: -0.271D-01 0.310D-01 0.135D+00-0.403D+00-0.337D+00 0.120D+01
 Coeff-Com: -0.778D+00-0.901D+00 0.606D+00 0.148D+01
 Coeff:     -0.271D-01 0.310D-01 0.135D+00-0.403D+00-0.337D+00 0.120D+01
 Coeff:     -0.778D+00-0.901D+00 0.606D+00 0.148D+01
 Gap=     0.202 Goal=   None    Shift=    0.500
 Gap=     0.232 Goal=   None    Shift=    0.500
 GapD=    0.202 DampG=1.000 DampE=1.000 DampFc=1.0000 IDamp=-1.
 RMSDP=2.03D-04 MaxDP=3.58D-03 DE=-2.93D-04 OVMax= 1.00D-02

 Cycle  11  Pass 1  IDiag  1:
 E= -196.378910316622     Delta-E=       -0.000196038648 Rises=F Damp=F
 DIIS: error= 1.77D-03 at cycle  11 NSaved=  11.
 NSaved=11 IEnMin=11 EnMin= -196.378910316622     IErMin=11 ErrMin= 1.77D-03
 ErrMax= 1.77D-03  0.00D+00 EMaxC= 1.00D+00 BMatC= 7.27D-05 BMatP= 8.17D-05
 IDIUse=1 WtCom= 1.00D+00 WtEn= 0.00D+00
 Coeff-Com: -0.141D-01 0.144D-01 0.282D-01-0.691D-01-0.249D-01 0.134D+00
 Coeff-Com: -0.146D+00-0.154D+00 0.114D+01-0.305D+01 0.314D+01
 Coeff:     -0.141D-01 0.144D-01 0.282D-01-0.691D-01-0.249D-01 0.134D+00
 Coeff:     -0.146D+00-0.154D+00 0.114D+01-0.305D+01 0.314D+01
 Gap=     0.204 Goal=   None    Shift=    0.500
 Gap=     0.231 Goal=   None    Shift=    0.500
 GapD=    0.204 DampG=1.000 DampE=1.000 DampFc=1.0000 IDamp=-1.
 RMSDP=1.79D-04 MaxDP=3.47D-03 DE=-1.96D-04 OVMax= 9.62D-03

 Cycle  12  Pass 1  IDiag  1:
 E= -196.379084045204     Delta-E=       -0.000173728582 Rises=F Damp=F
 DIIS: error= 1.74D-03 at cycle  12 NSaved=  12.
 NSaved=12 IEnMin=12 EnMin= -196.379084045204     IErMin=12 ErrMin= 1.74D-03
 ErrMax= 1.74D-03  0.00D+00 EMaxC= 1.00D+00 BMatC= 7.01D-05 BMatP= 7.27D-05
 IDIUse=1 WtCom= 1.00D+00 WtEn= 0.00D+00
 Large coefficients: NSaved= 12 BigCof=   16.27 CofMax=   10.00 Det=-6.60D-09
 Inversion failed.  Reducing to 11 matrices.
 Large coefficients: NSaved= 11 BigCof=   16.28 CofMax=   10.00 Det=-6.60D-09
 Inversion failed.  Reducing to 10 matrices.
 Large coefficients: NSaved= 10 BigCof=   15.77 CofMax=   10.00 Det=-6.73D-09
 Inversion failed.  Reducing to  9 matrices.
 Large coefficients: NSaved=  9 BigCof=   11.73 CofMax=   10.00 Det=-9.82D-09
 Inversion failed.  Reducing to  8 matrices.
 Large coefficients: NSaved=  8 BigCof=   10.58 CofMax=   10.00 Det=-1.12D-08
 Inversion failed.  Reducing to  7 matrices.
 Coeff-Com:  0.582D-02-0.449D-01-0.192D+00 0.194D+01-0.692D+01 0.938D+01
 Coeff-Com: -0.317D+01
 Coeff:      0.582D-02-0.449D-01-0.192D+00 0.194D+01-0.692D+01 0.938D+01
 Coeff:     -0.317D+01
 Gap=     0.202 Goal=   None    Shift=    0.500
 Gap=     0.232 Goal=   None    Shift=    0.500
 GapD=    0.202 DampG=1.000 DampE=1.000 DampFc=1.0000 IDamp=-1.
 RMSDP=5.15D-05 MaxDP=1.05D-03 DE=-1.74D-04 OVMax= 1.90D-03

 Cycle  13  Pass 1  IDiag  1:
 E= -196.379114813368     Delta-E=       -0.000030768163 Rises=F Damp=F
 DIIS: error= 1.68D-03 at cycle  13 NSaved=   8.
 NSaved= 8 IEnMin= 8 EnMin= -196.379114813368     IErMin= 8 ErrMin= 1.68D-03
 ErrMax= 1.68D-03  0.00D+00 EMaxC= 1.00D+00 BMatC= 6.91D-05 BMatP= 7.01D-05
 IDIUse=1 WtCom= 1.00D+00 WtEn= 0.00D+00
 Coeff-Com:  0.744D-02 0.206D-01-0.238D+00 0.109D+01-0.462D+01 0.773D+01
 Coeff-Com: -0.368D+01 0.692D+00
 Coeff:      0.744D-02 0.206D-01-0.238D+00 0.109D+01-0.462D+01 0.773D+01
 Coeff:     -0.368D+01 0.692D+00
 Gap=     0.201 Goal=   None    Shift=    0.500
 Gap=     0.232 Goal=   None    Shift=    0.500
 GapD=    0.201 DampG=1.000 DampE=1.000 DampFc=1.0000 IDamp=-1.
 RMSDP=2.46D-05 MaxDP=2.78D-04 DE=-3.08D-05 OVMax= 8.51D-04

 Cycle  14  Pass 1  IDiag  1:
 E= -196.379116192804     Delta-E=       -0.000001379436 Rises=F Damp=F
 DIIS: error= 1.65D-03 at cycle  14 NSaved=   9.
 NSaved= 9 IEnMin= 9 EnMin= -196.379116192804     IErMin= 9 ErrMin= 1.65D-03
 ErrMax= 1.65D-03  0.00D+00 EMaxC= 1.00D+00 BMatC= 6.96D-05 BMatP= 6.91D-05
 IDIUse=1 WtCom= 1.00D+00 WtEn= 0.00D+00
 Coeff-Com:  0.614D-02 0.323D-01-0.233D+00 0.649D+00-0.298D+01 0.566D+01
 Coeff-Com: -0.218D+01-0.147D+01 0.152D+01
 Coeff:      0.614D-02 0.323D-01-0.233D+00 0.649D+00-0.298D+01 0.566D+01
 Coeff:     -0.218D+01-0.147D+01 0.152D+01
 Gap=     0.201 Goal=   None    Shift=    0.500
 Gap=     0.232 Goal=   None    Shift=    0.500
 GapD=    0.201 DampG=1.000 DampE=1.000 DampFc=1.0000 IDamp=-1.
 RMSDP=1.16D-05 MaxDP=1.27D-04 DE=-1.38D-06 OVMax= 5.08D-04

 Cycle  15  Pass 1  IDiag  1:
 E= -196.379118191911     Delta-E=       -0.000001999107 Rises=F Damp=F
 DIIS: error= 1.66D-03 at cycle  15 NSaved=  10.
 NSaved=10 IEnMin=10 EnMin= -196.379118191911     IErMin= 9 ErrMin= 1.65D-03
 ErrMax= 1.66D-03  0.00D+00 EMaxC= 1.00D+00 BMatC= 6.99D-05 BMatP= 6.91D-05
 IDIUse=1 WtCom= 1.00D+00 WtEn= 0.00D+00
 Large coefficients: NSaved= 10 BigCof=   17.74 CofMax=   10.00 Det=-3.93D-09
 Inversion failed.  Reducing to  9 matrices.
 Large coefficients: NSaved=  9 BigCof=   16.05 CofMax=   10.00 Det=-4.19D-09
 Inversion failed.  Reducing to  8 matrices.
 Large coefficients: NSaved=  8 BigCof=   16.60 CofMax=   10.00 Det=-4.19D-09
 Inversion failed.  Reducing to  7 matrices.
 Large coefficients: NSaved=  7 BigCof=   15.25 CofMax=   10.00 Det=-4.25D-09
 Inversion failed.  Reducing to  6 matrices.
 Coeff-Com: -0.147D+01 0.419D+01-0.127D+01-0.113D+01-0.591D+01 0.661D+01
 Coeff:     -0.147D+01 0.419D+01-0.127D+01-0.113D+01-0.591D+01 0.661D+01
 Gap=     0.201 Goal=   None    Shift=    0.500
 Gap=     0.233 Goal=   None    Shift=    0.500
 GapD=    0.201 DampG=1.000 DampE=1.000 DampFc=1.0000 IDamp=-1.
 RMSDP=1.75D-05 MaxDP=2.39D-04 DE=-2.00D-06 OVMax= 7.67D-04

 Cycle  16  Pass 1  IDiag  1:
 E= -196.379105670188     Delta-E=        0.000012521723 Rises=F Damp=F
 DIIS: error= 1.65D-03 at cycle  16 NSaved=   7.
 NSaved= 7 IEnMin= 6 EnMin= -196.379118191911     IErMin= 7 ErrMin= 1.65D-03
 ErrMax= 1.65D-03  0.00D+00 EMaxC= 1.00D+00 BMatC= 7.03D-05 BMatP= 6.91D-05
 IDIUse=1 WtCom= 1.00D+00 WtEn= 0.00D+00
 Coeff-Com: -0.198D+01 0.553D+01-0.330D+01 0.270D+01-0.863D+01 0.484D+01
 Coeff-Com:  0.185D+01
 Coeff:     -0.198D+01 0.553D+01-0.330D+01 0.270D+01-0.863D+01 0.484D+01
 Coeff:      0.185D+01
 Gap=     0.201 Goal=   None    Shift=    0.000
 Gap=     0.233 Goal=   None    Shift=    0.000
 GapD=    0.201 DampG=1.000 DampE=1.000 DampFc=1.0000 IDamp=-1.
 RMSDP=6.61D-05 MaxDP=1.24D-03 DE= 1.25D-05 OVMax= 3.86D-03

 Cycle  17  Pass 1  IDiag  1:
 E= -196.379045450053     Delta-E=        0.000060220134 Rises=F Damp=F
 DIIS: error= 1.66D-03 at cycle  17 NSaved=   8.
 NSaved= 8 IEnMin= 6 EnMin= -196.379118191911     IErMin= 7 ErrMin= 1.65D-03
 ErrMax= 1.66D-03  0.00D+00 EMaxC= 1.00D+00 BMatC= 6.93D-05 BMatP= 6.91D-05
 IDIUse=1 WtCom= 1.00D+00 WtEn= 0.00D+00
 Coeff-Com:  0.394D+00-0.204D-01-0.355D+01 0.830D+01 0.218D+01-0.756D+01
 Coeff-Com: -0.671D+01 0.797D+01
 Coeff:      0.394D+00-0.204D-01-0.355D+01 0.830D+01 0.218D+01-0.756D+01
 Coeff:     -0.671D+01 0.797D+01
 Gap=     0.197 Goal=   None    Shift=    0.000
 Gap=     0.235 Goal=   None    Shift=    0.000
 GapD=    0.197 DampG=1.000 DampE=1.000 DampFc=1.0000 IDamp=-1.
 RMSDP=3.13D-04 MaxDP=6.21D-03 DE= 6.02D-05 OVMax= 1.80D-02

 Cycle  18  Pass 1  IDiag  1:
 E= -196.378753322819     Delta-E=        0.000292127235 Rises=F Damp=F
 DIIS: error= 1.58D-03 at cycle  18 NSaved=   9.
 NSaved= 9 IEnMin= 6 EnMin= -196.379118191911     IErMin= 9 ErrMin= 1.58D-03
 ErrMax= 1.58D-03  0.00D+00 EMaxC= 1.00D+00 BMatC= 6.46D-05 BMatP= 6.91D-05
 IDIUse=1 WtCom= 1.00D+00 WtEn= 0.00D+00
 Large coefficients: NSaved=  9 BigCof=   47.52 CofMax=   10.00 Det=-3.32D-09
 Inversion failed.  Reducing to  8 matrices.
 Large coefficients: NSaved=  8 BigCof=   47.17 CofMax=   10.00 Det=-3.93D-09
 Inversion failed.  Reducing to  7 matrices.
 Large coefficients: NSaved=  7 BigCof=   45.99 CofMax=   10.00 Det=-4.31D-09
 Inversion failed.  Reducing to  6 matrices.
 Large coefficients: NSaved=  6 BigCof=   32.41 CofMax=   10.00 Det=-5.23D-09
 Inversion failed.  Reducing to  5 matrices.
 Large coefficients: NSaved=  5 BigCof=   11.95 CofMax=   10.00 Det=-7.96D-09
 Inversion failed.  Reducing to  4 matrices.
 Coeff-Com:  0.674D+01-0.830D+01-0.732D+00 0.330D+01
 Coeff:      0.674D+01-0.830D+01-0.732D+00 0.330D+01
 Gap=     0.190 Goal=   None    Shift=    0.000
 Gap=     0.239 Goal=   None    Shift=    0.000
 GapD=    0.190 DampG=1.000 DampE=1.000 DampFc=1.0000 IDamp=-1.
 RMSDP=6.77D-04 MaxDP=1.28D-02 DE= 2.92D-04 OVMax= 4.03D-02

 Cycle  19  Pass 1  IDiag  1:
 E= -196.378163443498     Delta-E=        0.000589879320 Rises=F Damp=F
 DIIS: error= 1.68D-03 at cycle  19 NSaved=   5.
 NSaved= 5 IEnMin= 2 EnMin= -196.379118191911     IErMin= 4 ErrMin= 1.58D-03
 ErrMax= 1.68D-03  0.00D+00 EMaxC= 1.00D+00 BMatC= 5.82D-05 BMatP= 6.46D-05
 IDIUse=1 WtCom= 1.00D+00 WtEn= 0.00D+00
 Coeff-Com:  0.493D+01-0.392D+01-0.559D+01 0.406D+01 0.153D+01
 Coeff:      0.493D+01-0.392D+01-0.559D+01 0.406D+01 0.153D+01
 Gap=     0.176 Goal=   None    Shift=    0.000
 Gap=     0.252 Goal=   None    Shift=    0.000
 GapD=    0.176 DampG=1.000 DampE=1.000 DampFc=1.0000 IDamp=-1.
 RMSDP=1.58D-03 MaxDP=3.23D-02 DE= 5.90D-04 OVMax= 9.44D-02

 Cycle  20  Pass 1  IDiag  1:
 E= -196.377059129128     Delta-E=        0.001104314370 Rises=F Damp=F
 DIIS: error= 2.27D-03 at cycle  20 NSaved=   6.
 NSaved= 6 IEnMin= 2 EnMin= -196.379118191911     IErMin= 4 ErrMin= 1.58D-03
 ErrMax= 2.27D-03  0.00D+00 EMaxC= 1.00D+00 BMatC= 9.53D-05 BMatP= 5.82D-05
 IDIUse=1 WtCom= 1.00D+00 WtEn= 0.00D+00
 Coeff-Com:  0.497D+01-0.387D+01-0.560D+01 0.403D+01 0.141D+01 0.518D-01
 Coeff:      0.497D+01-0.387D+01-0.560D+01 0.403D+01 0.141D+01 0.518D-01
 Gap=     0.179 Goal=   None    Shift=    0.000
 Gap=     0.255 Goal=   None    Shift=    0.000
 GapD=    0.179 DampG=1.000 DampE=1.000 DampFc=1.0000 IDamp=-1.
 RMSDP=1.01D-05 MaxDP=2.11D-04 DE= 1.10D-03 OVMax= 7.33D-04

 Cycle  21  Pass 1  IDiag  1:
 E= -196.377060559025     Delta-E=       -0.000001429896 Rises=F Damp=F
 DIIS: error= 2.20D-03 at cycle  21 NSaved=   7.
 NSaved= 7 IEnMin= 2 EnMin= -196.379118191911     IErMin= 4 ErrMin= 1.58D-03
 ErrMax= 2.20D-03  0.00D+00 EMaxC= 1.00D+00 BMatC= 8.79D-05 BMatP= 5.82D-05
 IDIUse=1 WtCom= 1.00D+00 WtEn= 0.00D+00
 Large coefficients: NSaved=  7 BigCof=   27.27 CofMax=   10.00 Det=-3.02D-08
 Inversion failed.  Reducing to  6 matrices.
 Large coefficients: NSaved=  6 BigCof=   24.71 CofMax=   10.00 Det=-3.48D-08
 Inversion failed.  Reducing to  5 matrices.
 Large coefficients: NSaved=  5 BigCof=   26.49 CofMax=   10.00 Det=-3.51D-08
 Inversion failed.  Reducing to  4 matrices.
 Large coefficients: NSaved=  4 BigCof=   26.33 CofMax=   10.00 Det=-5.58D-08
 Inversion failed.  Reducing to  3 matrices.
 Large coefficients: NSaved=  3 BigCof=   26.48 CofMax=   10.00 Det=-5.86D-08
 Inversion failed.  Reducing to  2 matrices.
 Large coefficients: NSaved=  2 BigCof=   17.52 CofMax=   10.00 Det=-2.17D-07
 Coeff-Com: -0.165D+02 0.175D+02
 Coeff:     -0.165D+02 0.175D+02
 Gap=     0.179 Goal=   None    Shift=    0.000
 Gap=     0.255 Goal=   None    Shift=    0.000
 GapD=    0.179 DampG=1.000 DampE=1.000 DampFc=1.0000 IDamp=-1.
 RMSDP=1.35D-04 MaxDP=2.26D-03 DE=-1.43D-06 OVMax= 6.94D-03

 Cycle  22  Pass 1  IDiag  1:
 E= -196.377109650392     Delta-E=       -0.000049091368 Rises=F Damp=F
 DIIS: error= 9.71D-04 at cycle  22 NSaved=   3.
 NSaved= 3 IEnMin= 3 EnMin= -196.377109650392     IErMin= 3 ErrMin= 9.71D-04
 ErrMax= 9.71D-04  0.00D+00 EMaxC= 1.00D+00 BMatC= 2.60D-05 BMatP= 8.79D-05
 IDIUse=1 WtCom= 1.00D+00 WtEn= 0.00D+00
 Coeff-Com: -0.669D+01 0.710D+01 0.590D+00
 Coeff:     -0.669D+01 0.710D+01 0.590D+00
 Gap=     0.179 Goal=   None    Shift=    0.000
 Gap=     0.254 Goal=   None    Shift=    0.000
 RMSDP=7.08D-05 MaxDP=1.37D-03 DE=-4.91D-05 OVMax= 4.06D-03

 Cycle  23  Pass 1  IDiag  1:
 E= -196.377148124750     Delta-E=       -0.000038474357 Rises=F Damp=F
 DIIS: error= 9.55D-04 at cycle  23 NSaved=   4.
 NSaved= 4 IEnMin= 4 EnMin= -196.377148124750     IErMin= 4 ErrMin= 9.55D-04
 ErrMax= 9.55D-04  0.00D+00 EMaxC= 1.00D+00 BMatC= 2.36D-05 BMatP= 2.60D-05
 IDIUse=1 WtCom= 1.00D+00 WtEn= 0.00D+00
 Coeff-Com: -0.368D+01 0.391D+01 0.342D+00 0.431D+00
 Coeff:     -0.368D+01 0.391D+01 0.342D+00 0.431D+00
 Gap=     0.179 Goal=   None    Shift=    0.000
 Gap=     0.253 Goal=   None    Shift=    0.000
 RMSDP=5.15D-05 MaxDP=1.03D-03 DE=-3.85D-05 OVMax= 2.95D-03

 Cycle  24  Pass 1  IDiag  1:
 E= -196.377176594057     Delta-E=       -0.000028469307 Rises=F Damp=F
 DIIS: error= 9.61D-04 at cycle  24 NSaved=   5.
 NSaved= 5 IEnMin= 5 EnMin= -196.377176594057     IErMin= 4 ErrMin= 9.55D-04
 ErrMax= 9.61D-04  0.00D+00 EMaxC= 1.00D+00 BMatC= 2.40D-05 BMatP= 2.36D-05
 IDIUse=1 WtCom= 1.00D+00 WtEn= 0.00D+00
 Coeff-Com: -0.368D+01 0.390D+01 0.744D+00 0.375D+01-0.372D+01
 Coeff:     -0.368D+01 0.390D+01 0.744D+00 0.375D+01-0.372D+01
 Gap=     0.178 Goal=   None    Shift=    0.000
 Gap=     0.256 Goal=   None    Shift=    0.000
 RMSDP=2.22D-04 MaxDP=4.42D-03 DE=-2.85D-05 OVMax= 1.27D-02

 Cycle  25  Pass 1  IDiag  1:
 E= -196.377055345916     Delta-E=        0.000121248141 Rises=F Damp=F
 DIIS: error= 8.95D-04 at cycle  25 NSaved=   6.
 NSaved= 6 IEnMin= 5 EnMin= -196.377176594057     IErMin= 6 ErrMin= 8.95D-04
 ErrMax= 8.95D-04  0.00D+00 EMaxC= 1.00D+00 BMatC= 2.29D-05 BMatP= 2.36D-05
 IDIUse=1 WtCom= 1.00D+00 WtEn= 0.00D+00
 Large coefficients: NSaved=  6 BigCof=   14.07 CofMax=   10.00 Det=-8.81D-09
 Inversion failed.  Reducing to  5 matrices.
 Large coefficients: NSaved=  5 BigCof=   11.15 CofMax=   10.00 Det=-2.97D-08
 Inversion failed.  Reducing to  4 matrices.
 Large coefficients: NSaved=  4 BigCof=   11.18 CofMax=   10.00 Det=-2.98D-08
 Inversion failed.  Reducing to  3 matrices.
 Coeff-Com:  0.600D+01-0.745D+01 0.246D+01
 Coeff:      0.600D+01-0.745D+01 0.246D+01
 Gap=     0.175 Goal=   None    Shift=    0.000
 Gap=     0.262 Goal=   None    Shift=    0.000
 RMSDP=5.25D-04 MaxDP=1.06D-02 DE= 1.21D-04 OVMax= 2.99D-02

 Cycle  26  Pass 1  IDiag  1:
 E= -196.376783673980     Delta-E=        0.000271671936 Rises=F Damp=F
 DIIS: error= 9.27D-04 at cycle  26 NSaved=   4.
 NSaved= 4 IEnMin= 2 EnMin= -196.377176594057     IErMin= 3 ErrMin= 8.95D-04
 ErrMax= 9.27D-04  0.00D+00 EMaxC= 1.00D+00 BMatC= 2.24D-05 BMatP= 2.29D-05
 IDIUse=1 WtCom= 1.00D+00 WtEn= 0.00D+00
 Coeff-Com:  0.623D+01-0.943D+01 0.306D+01 0.115D+01
 Coeff:      0.623D+01-0.943D+01 0.306D+01 0.115D+01
 Gap=     0.171 Goal=   None    Shift=    0.000
 Gap=     0.260 Goal=   None    Shift=    0.000
 RMSDP=9.87D-04 MaxDP=2.04D-02 DE= 2.72D-04 OVMax= 5.56D-02

 Cycle  27  Pass 1  IDiag  1:
 E= -196.376243733371     Delta-E=        0.000539940609 Rises=F Damp=F
 DIIS: error= 1.54D-03 at cycle  27 NSaved=   5.
 NSaved= 5 IEnMin= 2 EnMin= -196.377176594057     IErMin= 3 ErrMin= 8.95D-04
 ErrMax= 1.54D-03  0.00D+00 EMaxC= 1.00D+00 BMatC= 4.18D-05 BMatP= 2.24D-05
 IDIUse=1 WtCom= 1.00D+00 WtEn= 0.00D+00
 Large coefficients: NSaved=  5 BigCof=   12.23 CofMax=   10.00 Det=-4.00D-08
 Inversion failed.  Reducing to  4 matrices.
 Coeff-Com:  0.227D+01-0.222D+01 0.161D+01-0.669D+00
 Coeff:      0.227D+01-0.222D+01 0.161D+01-0.669D+00
 Gap=     0.175 Goal=   None    Shift=    0.000
 Gap=     0.250 Goal=   None    Shift=    0.000
 GapD=    0.175 DampG=1.000 DampE=1.000 DampFc=1.0000 IDamp=-1.
 RMSDP=1.67D-03 MaxDP=3.36D-02 DE= 5.40D-04 OVMax= 9.56D-02

 Cycle  28  Pass 1  IDiag  1:
 E= -196.377138655474     Delta-E=       -0.000894922103 Rises=F Damp=F
 DIIS: error= 1.27D-03 at cycle  28 NSaved=   5.
 NSaved= 5 IEnMin= 2 EnMin= -196.377176594057     IErMin= 3 ErrMin= 9.27D-04
 ErrMax= 1.27D-03  0.00D+00 EMaxC= 1.00D+00 BMatC= 3.12D-05 BMatP= 2.24D-05
 IDIUse=1 WtCom= 1.00D+00 WtEn= 0.00D+00
 Coeff-Com:  0.669D+01-0.917D+01 0.379D+01-0.263D+01 0.231D+01
 Coeff:      0.669D+01-0.917D+01 0.379D+01-0.263D+01 0.231D+01
 Gap=     0.187 Goal=   None    Shift=    0.000
 Gap=     0.236 Goal=   None    Shift=    0.000
 GapD=    0.187 DampG=1.000 DampE=1.000 DampFc=1.0000 IDamp=-1.
 RMSDP=1.39D-03 MaxDP=2.78D-02 DE=-8.95D-04 OVMax= 8.78D-02

 Cycle  29  Pass 1  IDiag  1:
 E= -196.377931050808     Delta-E=       -0.000792395334 Rises=F Damp=F
 DIIS: error= 3.40D-03 at cycle  29 NSaved=   6.
 NSaved= 6 IEnMin= 6 EnMin= -196.377931050808     IErMin= 3 ErrMin= 9.27D-04
 ErrMax= 3.40D-03  0.00D+00 EMaxC= 1.00D+00 BMatC= 2.12D-04 BMatP= 2.24D-05
 IDIUse=1 WtCom= 1.00D+00 WtEn= 0.00D+00
 Coeff-Com:  0.687D+01-0.974D+01 0.387D+01-0.237D+01 0.247D+01-0.105D+00
 Coeff:      0.687D+01-0.974D+01 0.387D+01-0.237D+01 0.247D+01-0.105D+00
 Gap=     0.183 Goal=   None    Shift=    0.000
 Gap=     0.245 Goal=   None    Shift=    0.000
 GapD=    0.183 DampG=1.000 DampE=1.000 DampFc=1.0000 IDamp=-1.
 RMSDP=6.77D-04 MaxDP=1.36D-02 DE=-7.92D-04 OVMax= 4.16D-02

 Cycle  30  Pass 1  IDiag  1:
 E= -196.377499587324     Delta-E=        0.000431463484 Rises=F Damp=F
 DIIS: error= 2.65D-03 at cycle  30 NSaved=   7.
 NSaved= 7 IEnMin= 6 EnMin= -196.377931050808     IErMin= 3 ErrMin= 9.27D-04
 ErrMax= 2.65D-03  0.00D+00 EMaxC= 1.00D+00 BMatC= 1.24D-04 BMatP= 2.24D-05
 IDIUse=1 WtCom= 1.00D+00 WtEn= 0.00D+00
 Coeff-Com:  0.200D+01-0.367D+01 0.242D+01-0.247D+01 0.142D+01-0.285D+01
 Coeff-Com:  0.413D+01
 Coeff:      0.200D+01-0.367D+01 0.242D+01-0.247D+01 0.142D+01-0.285D+01
 Coeff:      0.413D+01
 Gap=     0.187 Goal=   None    Shift=    0.000
 Gap=     0.239 Goal=   None    Shift=    0.000
 GapD=    0.187 DampG=1.000 DampE=1.000 DampFc=1.0000 IDamp=-1.
 RMSDP=6.00D-04 MaxDP=1.32D-02 DE= 4.31D-04 OVMax= 4.10D-02

 Cycle  31  Pass 1  IDiag  1:
 E= -196.377722286965     Delta-E=       -0.000222699641 Rises=F Damp=F
 DIIS: error= 4.38D-03 at cycle  31 NSaved=   8.
 NSaved= 8 IEnMin= 6 EnMin= -196.377931050808     IErMin= 3 ErrMin= 9.27D-04
 ErrMax= 4.38D-03  0.00D+00 EMaxC= 1.00D+00 BMatC= 4.09D-04 BMatP= 2.24D-05
 IDIUse=1 WtCom= 1.00D+00 WtEn= 0.00D+00
 Coeff-Com:  0.192D+01-0.332D+01 0.225D+01-0.238D+01 0.133D+01-0.306D+01
 Coeff-Com:  0.410D+01 0.164D+00
 Coeff:      0.192D+01-0.332D+01 0.225D+01-0.238D+01 0.133D+01-0.306D+01
 Coeff:      0.410D+01 0.164D+00
 Gap=     0.186 Goal=   None    Shift=    0.000
 Gap=     0.241 Goal=   None    Shift=    0.000
 GapD=    0.186 DampG=1.000 DampE=1.000 DampFc=1.0000 IDamp=-1.
 RMSDP=1.01D-04 MaxDP=2.04D-03 DE=-2.23D-04 OVMax= 6.16D-03

 Cycle  32  Pass 1  IDiag  1:
 E= -196.377657191140     Delta-E=        0.000065095825 Rises=F Damp=F
 DIIS: error= 4.28D-03 at cycle  32 NSaved=   9.
 NSaved= 9 IEnMin= 6 EnMin= -196.377931050808     IErMin= 3 ErrMin= 9.27D-04
 ErrMax= 4.28D-03  0.00D+00 EMaxC= 1.00D+00 BMatC= 3.90D-04 BMatP= 2.24D-05
 IDIUse=1 WtCom= 1.00D+00 WtEn= 0.00D+00
 Coeff-Com:  0.394D+01-0.605D+01 0.298D+01-0.257D+01 0.166D+01-0.112D+01
 Coeff-Com:  0.227D+01-0.740D+01 0.729D+01
 Coeff:      0.394D+01-0.605D+01 0.298D+01-0.257D+01 0.166D+01-0.112D+01
 Coeff:      0.227D+01-0.740D+01 0.729D+01
 Gap=     0.186 Goal=   None    Shift=    0.000
 Gap=     0.241 Goal=   None    Shift=    0.000
 GapD=    0.186 DampG=1.000 DampE=1.000 DampFc=1.0000 IDamp=-1.
 RMSDP=2.86D-05 MaxDP=6.58D-04 DE= 6.51D-05 OVMax= 2.06D-03

 >>>>>>>>>> Convergence criterion not met.
 SCF Done:  E(ULC-wHPBE) =  -196.377657191     A.U. after   33 cycles
            NFock= 32  Conv=0.29D-04     -V/T= 2.0227
 <Sx>= 0.0000 <Sy>= 0.0000 <Sz>= 0.5000 <S**2>= 0.8714 S= 0.5590
 <L.S>= 0.000000000000E+00
 KE= 1.920132964839D+02 PE=-7.305511386606D+02 EE= 1.971382851925D+02
 Annihilation of the first spin contaminant:
 S**2 before annihilation     0.8714,   after     0.7574
 Leave Link  502 at Thu Mar  5 12:49:31 2020, MaxMem=  6710886400 cpu:              46.1 elap:               3.0
 (Enter /opt/ohpc/pub/libs/gaussian/g16-A.03/sandybridge/g16/l508.exe)
 Keep R1 and R2 ints in memory in symmetry-blocked form, NReq=16816059.
 FoFCou: FMM=F IPFlag=           0 FMFlag=           0 FMFlg1=           0
         NFxFlg=           0 DoJE=F BraDBF=F KetDBF=F FulRan=T
         wScrn=  0.000000 ICntrl=       600 IOpCl=  0 I1Cent=           0 NGrid=           0
         NMat0=    1 NMatS0=   1653 NMatT0=    0 NMatD0=    1 NMtDS0=    0 NMtDT0=    0
 Petite list used in FoFCou.
 Tight linear equation convergence will be used.
 ULC-wHPBE wavefunction.
 Quadratic Convergence SCF Method.
 Line search only if initial step raises energy.
 Iteration   1 EE= -196.377655328952                                    Grad=1.349D-02 Max rot=    0.5452 deg.
 Gradient too large for Newton-Raphson -- use scaled steepest descent instead.
     ILin= 1 X=0.000D+00 Y=-1.963776553290D+02 DE= 0.00D+00 F= -3.65D-04
     ILin= 2 X=3.000D-01 Y=-1.963777534262D+02 DE=-9.81D-05 F= -2.89D-04
     ILin= 3 X=6.000D-01 Y=-1.963778289361D+02 DE=-1.74D-04 F= -2.14D-04
     ILin= 4 X=1.200D+00 Y=-1.963779125167D+02 DE=-2.57D-04 F= -6.46D-05
     ILin= 5 X=2.400D+00 Y=-1.963778122867D+02 DE=-1.57D-04 F=  2.31D-04
     An  expanding polynomial of degree  5 produced  1.4608
 Iteration   2 EE= -196.377920943140     Delta-E=       -0.000265614188 Grad=8.440D-03 Max rot=    0.1858 deg.
 QCNR:  CnvC1=8.44D-08 CnvC2=8.44D-07
 LinEq1:  Iter=  0 NonCon=     1 RMS=4.20D-04 Max=1.02D-02 NDo=     1
 AX will form     1 AO Fock derivatives at one time.
 LinEq1:  Iter=  1 NonCon=     1 RMS=3.78D-04 Max=6.57D-03 NDo=     1
 LinEq1:  Iter=  2 NonCon=     1 RMS=1.90D-04 Max=3.81D-03 NDo=     1
 LinEq1:  Iter=  3 NonCon=     1 RMS=9.16D-05 Max=1.65D-03 NDo=     1
 LinEq1:  Iter=  4 NonCon=     1 RMS=2.86D-05 Max=3.16D-04 NDo=     1
 LinEq1:  Iter=  5 NonCon=     1 RMS=7.54D-06 Max=9.79D-05 NDo=     1
 LinEq1:  Iter=  6 NonCon=     1 RMS=3.53D-06 Max=5.37D-05 NDo=     1
 LinEq1:  Iter=  7 NonCon=     1 RMS=1.94D-06 Max=3.06D-05 NDo=     1
 LinEq1:  Iter=  8 NonCon=     1 RMS=5.41D-07 Max=5.89D-06 NDo=     1
 LinEq1:  Iter=  9 NonCon=     1 RMS=8.65D-08 Max=1.16D-06 NDo=     1
 LinEq1:  Iter= 10 NonCon=     0 RMS=1.66D-08 Max=2.98D-07 NDo=     1
 Linear equations converged to 8.440D-08 8.440D-07 after    10 iterations.
 Angle between quadratic step and gradient= 121.60 degrees.
 Incorrect curvature in search direction -- initial direction reversed.
     ILin= 1 X=0.000D+00 Y=-1.963779209431D+02 DE= 0.00D+00 F= -3.00D-03
     ILin= 2 X=1.000D+00 Y=-1.963811503393D+02 DE=-3.23D-03 F= -9.64D-04
     ILin= 3 X=1.400D+00 Y=-1.963802789536D+02 DE=-2.36D-03 F=  6.12D-03
     An  expanding polynomial of degree  3 produced  0.9180
     Minimum is close to point  2 DX= -8.20D-02 DF= -2.60D-05 DXR=  8.93D-02 DFR=  8.04D-03 which will be used.
 Iteration   3 EE= -196.381150339265     Delta-E=       -0.003229396125 Grad=1.319D-02 Max rot=    0.2191 deg.
 Gradient too large for Newton-Raphson -- use scaled steepest descent instead.
     ILin= 1 X=0.000D+00 Y=-1.963811503393D+02 DE= 0.00D+00 F= -2.34D-04
     ILin= 2 X=7.000D-01 Y=-1.963812717175D+02 DE=-1.21D-04 F= -1.13D-04
     ILin= 3 X=1.300D+00 Y=-1.963813084892D+02 DE=-1.58D-04 F= -9.54D-06
     Reject lnstep minimum 1.617D+00 FVal=-1.963813123908D+02 Lims=  7.00D-01  1.30D+00
     ILin= 4 X=2.600D+00 Y=-1.963811751522D+02 DE=-2.48D-05 F=  2.15D-04
     An  expanding polynomial of degree  4 produced  1.3553
     Minimum is close to point  3 DX=  5.53D-02 DF= -2.64D-07 DXR=  4.08D-02 DFR=  1.67D-03 which will be used.
 Iteration   4 EE= -196.381308489219     Delta-E=       -0.000158149954 Grad=6.533D-03 Max rot=    0.1876 deg.
 QCNR:  CnvC1=6.53D-08 CnvC2=6.53D-07
 LinEq1:  Iter=  0 NonCon=     1 RMS=3.35D-04 Max=8.98D-03 NDo=     1
 LinEq1:  Iter=  1 NonCon=     1 RMS=2.62D-04 Max=4.87D-03 NDo=     1
 LinEq1:  Iter=  2 NonCon=     1 RMS=1.68D-04 Max=5.02D-03 NDo=     1
 LinEq1:  Iter=  3 NonCon=     1 RMS=6.91D-05 Max=6.58D-04 NDo=     1
 LinEq1:  Iter=  4 NonCon=     1 RMS=1.95D-05 Max=2.61D-04 NDo=     1
 LinEq1:  Iter=  5 NonCon=     1 RMS=5.37D-06 Max=6.09D-05 NDo=     1
 LinEq1:  Iter=  6 NonCon=     1 RMS=2.55D-06 Max=2.95D-05 NDo=     1
 LinEq1:  Iter=  7 NonCon=     1 RMS=7.04D-07 Max=8.55D-06 NDo=     1
 LinEq1:  Iter=  8 NonCon=     1 RMS=1.95D-07 Max=2.47D-06 NDo=     1
 LinEq1:  Iter=  9 NonCon=     0 RMS=4.46D-08 Max=5.82D-07 NDo=     1
 Linear equations converged to 6.533D-08 6.533D-07 after     9 iterations.
 Angle between quadratic step and gradient=  61.73 degrees.
     ILin= 1 X=0.000D+00 Y=-1.963813084892D+02 DE= 0.00D+00 F= -2.38D-04
     ILin= 2 X=1.000D+00 Y=-1.963814224290D+02 DE=-1.14D-04 F=  1.48D-05
     Accept linear search using points  1 and  2.
     An  expanding polynomial of degree  2 produced  0.9444
     Minimum is close to point  2 DX= -5.56D-02 DF= -4.11D-07 DXR=  5.88D-02 DFR=  3.61D-03 which will be used.
 Iteration   5 EE= -196.381422428984     Delta-E=       -0.000113939765 Grad=2.722D-04 Max rot=    0.0113 deg.
 QCNR:  CnvC1=2.72D-09 CnvC2=2.72D-08
 LinEq1:  Iter=  0 NonCon=     1 RMS=1.90D-05 Max=6.05D-04 NDo=     1
 LinEq1:  Iter=  1 NonCon=     1 RMS=9.43D-06 Max=2.62D-04 NDo=     1
 LinEq1:  Iter=  2 NonCon=     1 RMS=4.10D-06 Max=5.59D-05 NDo=     1
 LinEq1:  Iter=  3 NonCon=     1 RMS=2.13D-06 Max=2.77D-05 NDo=     1
 LinEq1:  Iter=  4 NonCon=     1 RMS=8.33D-07 Max=1.04D-05 NDo=     1
 LinEq1:  Iter=  5 NonCon=     1 RMS=2.84D-07 Max=4.77D-06 NDo=     1
 LinEq1:  Iter=  6 NonCon=     1 RMS=1.41D-07 Max=2.03D-06 NDo=     1
 LinEq1:  Iter=  7 NonCon=     1 RMS=6.28D-08 Max=1.01D-06 NDo=     1
 LinEq1:  Iter=  8 NonCon=     1 RMS=1.23D-08 Max=1.49D-07 NDo=     1
 LinEq1:  Iter=  9 NonCon=     1 RMS=1.95D-09 Max=3.02D-08 NDo=     1
 LinEq1:  Iter= 10 NonCon=     0 RMS=3.11D-10 Max=5.08D-09 NDo=     1
 Linear equations converged to 2.722D-09 2.722D-08 after    10 iterations.
 Angle between quadratic step and gradient=  32.27 degrees.
     ILin= 1 X=0.000D+00 Y=-1.963814224290D+02 DE= 0.00D+00 F= -1.62D-06
     ILin= 2 X=1.000D+00 Y=-1.963814232469D+02 DE=-8.18D-07
 Iteration   6 EE= -196.381423246909     Delta-E=       -0.000000817925 Grad=2.600D-06 Max rot=    0.0001 deg.
 Rotation gradient small -- convergence achieved.
 Orbital symmetries in SymMO:
    1=1    2=4    3=4    4=1    5=1    6=1    7=4    8=1    9=4   10=1
   11=1   12=4   13=4   14=1   15=3   16=1   17=2   18=3   19=4   20=1
   21=2   22=3   23=1   24=4   25=1   26=4   27=1   28=1   29=4   30=1
   31=4   32=3   33=4   34=3   35=2   36=1   37=1   38=4   39=1   40=2
   41=1   42=4   43=3   44=1   45=4   46=1   47=4   48=1   49=1   50=1
   51=4   52=1   53=4   54=4   55=1   56=1   57=4
 Orbital symmetries in SymMO:
    1=4    2=1    3=4    4=1    5=1    6=1    7=4    8=1    9=4   10=1
   11=1   12=4   13=4   14=1   15=1   16=3   17=2   18=1   19=3   20=4
   21=2   22=3   23=1   24=4   25=1   26=4   27=1   28=1   29=4   30=1
   31=4   32=3   33=4   34=1   35=2   36=3   37=1   38=4   39=1   40=2
   41=1   42=4   43=3   44=1   45=4   46=1   47=4   48=1   49=1   50=1
   51=4   52=1   53=4   54=4   55=1   56=1   57=4
 SCF Done:  E(ULC-wHPBE) =  -196.381423247     a.u. after    6 cycles
            Convg  =    0.2600D-05                    42 Fock formations.
              S**2 =  1.1395                  -V/T =  2.0223
 <Sx>= 0.0000 <Sy>= 0.0000 <Sz>= 0.5000 <S**2>= 1.1395 S= 0.6788
 <L.S>= 0.000000000000E+00
 Annihilation of the first spin contaminant:
 S**2 before annihilation     1.1395,   after     0.8549
 Leave Link  508 at Thu Mar  5 12:49:44 2020, MaxMem=  6710886400 cpu:             201.6 elap:              12.7
 (Enter /opt/ohpc/pub/libs/gaussian/g16-A.03/sandybridge/g16/l601.exe)
 Copying SCF densities to generalized density rwf, IOpCl= 1 IROHF=0.

 **********************************************************************

            Population analysis using the SCF density.

 **********************************************************************

 Orbital symmetries:
 Alpha Orbitals:
       Occupied  (A1) (B2) (B2) (A1) (A1) (A1) (B2) (A1) (B2) (A1)
                 (A1) (B2) (B2) (A1) (B1) (A1) (A2) (B1)
       Virtual   (B2) (A1) (A2) (B1) (A1) (B2) (A1) (B2) (A1) (A1)
                 (B2) (A1) (B2) (B1) (B2) (B1) (A2) (A1) (A1) (B2)
                 (A1) (A2) (A1) (B2) (B1) (A1) (B2) (A1) (B2) (A1)
                 (A1) (A1) (B2) (A1) (B2) (B2) (A1) (A1) (B2)
 Beta  Orbitals:
       Occupied  (B2) (A1) (B2) (A1) (A1) (A1) (B2) (A1) (B2) (A1)
                 (A1) (B2) (B2) (A1) (A1) (B1) (A2)
       Virtual   (A1) (B1) (B2) (A2) (B1) (A1) (B2) (A1) (B2) (A1)
                 (A1) (B2) (A1) (B2) (B1) (B2) (A1) (A2) (B1) (A1)
                 (B2) (A1) (A2) (A1) (B2) (B1) (A1) (B2) (A1) (B2)
                 (A1) (A1) (A1) (B2) (A1) (B2) (B2) (A1) (A1) (B2)
 The electronic state is 2-B1.
 Alpha  occ. eigenvalues --  -10.44860 -10.44860 -10.37029 -10.37029 -10.36278
 Alpha  occ. eigenvalues --   -1.22535  -1.13634  -1.07182  -0.96134  -0.88899
 Alpha  occ. eigenvalues --   -0.88437  -0.81351  -0.76498  -0.74404  -0.73304
 Alpha  occ. eigenvalues --   -0.69829  -0.64314  -0.57449
 Alpha virt. eigenvalues --   -0.37984  -0.31819  -0.23703  -0.12709  -0.08257
 Alpha virt. eigenvalues --   -0.04324  -0.00847   0.00683   0.02001   0.09579
 Alpha virt. eigenvalues --    0.11035   0.19113   0.20505   0.29035   0.31822
 Alpha virt. eigenvalues --    0.39253   0.39291   0.39368   0.41598   0.42865
 Alpha virt. eigenvalues --    0.44760   0.46874   0.47437   0.49432   0.49602
 Alpha virt. eigenvalues --    0.62095   0.64403   0.67187   0.69953   0.69962
 Alpha virt. eigenvalues --    0.75292   0.77241   0.78861   0.84934   0.92006
 Alpha virt. eigenvalues --    0.96527   1.01400   1.24036   1.24500
  Beta  occ. eigenvalues --  -10.43662 -10.43660 -10.37500 -10.37499 -10.35388
  Beta  occ. eigenvalues --   -1.21458  -1.12824  -1.03978  -0.94953  -0.88305
  Beta  occ. eigenvalues --   -0.87465  -0.80748  -0.76168  -0.73720  -0.71158
  Beta  occ. eigenvalues --   -0.69914  -0.61343
  Beta virt. eigenvalues --   -0.38823  -0.32057  -0.31783  -0.20518  -0.10121
  Beta virt. eigenvalues --   -0.07936  -0.03927  -0.00235   0.00750   0.02473
  Beta virt. eigenvalues --    0.10257   0.11602   0.19799   0.20713   0.32421
  Beta virt. eigenvalues --    0.32523   0.39849   0.40988   0.41611   0.42273
  Beta virt. eigenvalues --    0.43427   0.45011   0.47505   0.49888   0.50455
  Beta virt. eigenvalues --    0.50959   0.56255   0.64911   0.65570   0.70064
  Beta virt. eigenvalues --    0.70996   0.75864   0.77172   0.79328   0.86258
  Beta virt. eigenvalues --    0.92138   0.97306   1.01940   1.24847   1.26081
          Condensed to atoms (all electrons):
               1          2          3          4          5          6
     1  C    5.208201   0.496156  -0.060493  -0.041563   0.139622   0.085736
     2  C    0.496156   4.985851   0.482024  -0.056511  -0.041563  -0.002609
     3  C   -0.060493   0.482024   4.882596   0.482024  -0.060493   0.000465
     4  C   -0.041563  -0.056511   0.482024   4.985851   0.496156  -0.002609
     5  C    0.139622  -0.041563  -0.060493   0.496156   5.208201   0.085736
     6  H    0.085736  -0.002609   0.000465  -0.002609   0.085736   0.577704
     7  H    0.346574  -0.027630   0.002216   0.000619  -0.002253  -0.005030
     8  H   -0.022191   0.352657  -0.010215   0.002846   0.000388   0.000076
     9  H    0.003636  -0.026750   0.367829  -0.026750   0.003636  -0.000000
    10  H    0.000388   0.002846  -0.010215   0.352657  -0.022191   0.000076
    11  H   -0.002253   0.000619   0.002216  -0.027630   0.346574  -0.005030
               7          8          9         10         11
     1  C    0.346574  -0.022191   0.003636   0.000388  -0.002253
     2  C   -0.027630   0.352657  -0.026750   0.002846   0.000619
     3  C    0.002216  -0.010215   0.367829  -0.010215   0.002216
     4  C    0.000619   0.002846  -0.026750   0.352657  -0.027630
     5  C   -0.002253   0.000388   0.003636  -0.022191   0.346574
     6  H   -0.005030   0.000076  -0.000000   0.000076  -0.005030
     7  H    0.391639   0.000723  -0.000076  -0.000006   0.000021
     8  H    0.000723   0.374212  -0.002079  -0.000049  -0.000006
     9  H   -0.000076  -0.002079   0.426115  -0.002079  -0.000076
    10  H   -0.000006  -0.000049  -0.002079   0.374212   0.000723
    11  H    0.000021  -0.000006  -0.000076   0.000723   0.391639
          Atomic-Atomic Spin Densities.
               1          2          3          4          5          6
     1  C    0.902215  -0.046694  -0.016100  -0.018033   0.074594  -0.020485
     2  C   -0.046694  -0.396951   0.012589   0.010931  -0.018033  -0.000698
     3  C   -0.016100   0.012589   0.702489   0.012589  -0.016100  -0.000025
     4  C   -0.018033   0.010931   0.012589  -0.396951  -0.046694  -0.000698
     5  C    0.074594  -0.018033  -0.016100  -0.046694   0.902215  -0.020485
     6  H   -0.020485  -0.000698  -0.000025  -0.000698  -0.020485  -0.447770
     7  H   -0.010573   0.003295  -0.000111   0.000071  -0.000305   0.003514
     8  H   -0.002741   0.006050  -0.001292  -0.000230   0.000246  -0.000019
     9  H    0.000107  -0.000053  -0.002098  -0.000053   0.000107  -0.000000
    10  H    0.000246  -0.000230  -0.001292   0.006050  -0.002741  -0.000019
    11  H   -0.000305   0.000071  -0.000111   0.003295  -0.010573   0.003514
               7          8          9         10         11
     1  C   -0.010573  -0.002741   0.000107   0.000246  -0.000305
     2  C    0.003295   0.006050  -0.000053  -0.000230   0.000071
     3  C   -0.000111  -0.001292  -0.002098  -0.001292  -0.000111
     4  C    0.000071  -0.000230  -0.000053   0.006050   0.003295
     5  C   -0.000305   0.000246   0.000107  -0.002741  -0.010573
     6  H    0.003514  -0.000019  -0.000000  -0.000019   0.003514
     7  H   -0.040316   0.000038   0.000006  -0.000000  -0.000010
     8  H    0.000038   0.022367  -0.000003   0.000008  -0.000000
     9  H    0.000006  -0.000003  -0.030477  -0.000003   0.000006
    10  H   -0.000000   0.000008  -0.000003   0.022367   0.000038
    11  H   -0.000010  -0.000000   0.000006   0.000038  -0.040316
 Mulliken charges and spin densities:
               1          2
     1  C   -0.153813   0.862232
     2  C   -0.165088  -0.429721
     3  C   -0.077957   0.690539
     4  C   -0.165088  -0.429721
     5  C   -0.153813   0.862232
     6  H    0.265484  -0.483171
     7  H    0.293202  -0.044390
     8  H    0.303638   0.024426
     9  H    0.256594  -0.032460
    10  H    0.303638   0.024426
    11  H    0.293202  -0.044390
 Sum of Mulliken charges =   1.00000   1.00000
 Mulliken charges and spin densities with hydrogens summed into heavy atoms:
               1          2
     1  C    0.404873   0.334671
     2  C    0.138550  -0.405296
     3  C    0.178637   0.658079
     4  C    0.138550  -0.405296
     5  C    0.139389   0.817842
 Electronic spatial extent (au):  <R**2>=            373.9843
 Charge=              1.0000 electrons
 Dipole moment (field-independent basis, Debye):
    X=             -0.0000    Y=             -0.0000    Z=             -2.6731  Tot=              2.6731
 Quadrupole moment (field-independent basis, Debye-Ang):
   XX=            -32.0105   YY=            -12.4553   ZZ=            -10.5698
   XY=              0.0000   XZ=              0.0000   YZ=             -0.0000
 Traceless Quadrupole moment (field-independent basis, Debye-Ang):
   XX=            -13.6653   YY=              5.8899   ZZ=              7.7754
   XY=              0.0000   XZ=              0.0000   YZ=             -0.0000
 Octapole moment (field-independent basis, Debye-Ang**2):
  XXX=              0.0000  YYY=              0.0000  ZZZ=            -20.1305  XYY=             -0.0000
  XXY=              0.0000  XXZ=              1.5094  XZZ=              0.0000  YZZ=              0.0000
  YYZ=             -3.6145  XYZ=             -0.0000
 Hexadecapole moment (field-independent basis, Debye-Ang**3):
 XXXX=            -32.1802 YYYY=           -172.9898 ZZZZ=            -99.8552 XXXY=             -0.0000
 XXXZ=             -0.0000 YYYX=             -0.0000 YYYZ=             -0.0000 ZZZX=             -0.0000
 ZZZY=             -0.0000 XXYY=            -54.1560 XXZZ=            -43.4798 YYZZ=            -48.5867
 XXYZ=              0.0000 YYXZ=              0.0000 ZZXY=             -0.0000
 N-N= 1.450218997931D+02 E-N=-7.306984702742D+02  KE= 1.921043118914D+02
 Symmetry A1   KE= 1.109228360699D+02
 Symmetry A2   KE= 2.455990179292D+00
 Symmetry B1   KE= 3.371838563986D+00
 Symmetry B2   KE= 7.535364707816D+01
 Symmetry A1   SP=-7.047043070613D-16
 Symmetry A2   SP=-7.866428862469D-16
 Symmetry B1   SP= 1.000000000000D+00
 Symmetry B2   SP= 7.061273224127D-16
                          Isotropic Fermi Contact Couplings
        Atom                 a.u.       MegaHertz       Gauss      10(-4) cm-1
     1  C(13)              0.17816     200.28081      71.46517      66.80649
     2  C(13)             -0.06888     -77.43642     -27.63124     -25.83001
     3  C(13)              0.11637     130.82158      46.68039      43.63738
     4  C(13)             -0.06888     -77.43642     -27.63124     -25.83001
     5  C(13)              0.17816     200.28081      71.46517      66.80649
     6  H(1)              -0.16989    -759.36636    -270.96080    -253.29735
     7  H(1)              -0.01758     -78.58234     -28.04013     -26.21225
     8  H(1)               0.01068      47.73581      17.03332      15.92295
     9  H(1)              -0.01249     -55.84314     -19.92622     -18.62727
    10  H(1)               0.01068      47.73581      17.03332      15.92295
    11  H(1)              -0.01758     -78.58234     -28.04013     -26.21225
 --------------------------------------------------------
       Center         ----  Spin Dipole Couplings  ----
                      3XX-RR        3YY-RR        3ZZ-RR
 --------------------------------------------------------
     1   Atom        0.549522     -0.212496     -0.337026
     2   Atom       -0.346778      0.132313      0.214466
     3   Atom        0.642060     -0.350299     -0.291761
     4   Atom       -0.346778      0.132313      0.214466
     5   Atom        0.549522     -0.212496     -0.337026
     6   Atom       -0.019715     -0.007157      0.026873
     7   Atom       -0.016832      0.041556     -0.024725
     8   Atom       -0.008563     -0.001862      0.010424
     9   Atom       -0.006704     -0.042513      0.049217
    10   Atom       -0.008563     -0.001862      0.010424
    11   Atom       -0.016832      0.041556     -0.024725
 --------------------------------------------------------
                        XY            XZ            YZ
 --------------------------------------------------------
     1   Atom        0.000000      0.000000      0.141867
     2   Atom       -0.000000      0.000000      0.003867
     3   Atom       -0.000000      0.000000      0.000000
     4   Atom       -0.000000     -0.000000     -0.003867
     5   Atom        0.000000      0.000000     -0.141867
     6   Atom        0.000000     -0.000000      0.000000
     7   Atom        0.000000      0.000000     -0.050054
     8   Atom        0.000000      0.000000     -0.012199
     9   Atom       -0.000000     -0.000000      0.000000
    10   Atom        0.000000     -0.000000      0.012199
    11   Atom        0.000000      0.000000      0.050054
 --------------------------------------------------------


 ---------------------------------------------------------------------------------
              Anisotropic Spin Dipole Couplings in Principal Axis System
 ---------------------------------------------------------------------------------

       Atom             a.u.   MegaHertz   Gauss  10(-4) cm-1        Axes

              Baa    -0.4297   -57.660   -20.575   -19.233 -0.0000 -0.5469  0.8372
     1 C(13)  Bbb    -0.1198   -16.080    -5.738    -5.364  0.0000  0.8372  0.5469
              Bcc     0.5495    73.741    26.312    24.597  1.0000 -0.0000  0.0000
 
              Baa    -0.3468   -46.534   -16.605   -15.522  1.0000 -0.0000  0.0000
     2 C(13)  Bbb     0.1321    17.731     6.327     5.914  0.0000  0.9989 -0.0469
              Bcc     0.2146    28.804    10.278     9.608  0.0000  0.0469  0.9989
 
              Baa    -0.3503   -47.007   -16.773   -15.680 -0.0000  1.0000 -0.0000
     3 C(13)  Bbb    -0.2918   -39.152   -13.970   -13.060 -0.0000  0.0000  1.0000
              Bcc     0.6421    86.158    30.743    28.739  1.0000  0.0000  0.0000
 
              Baa    -0.3468   -46.534   -16.605   -15.522  1.0000  0.0000  0.0000
     4 C(13)  Bbb     0.1321    17.731     6.327     5.914 -0.0000  0.9989  0.0469
              Bcc     0.2146    28.804    10.278     9.608 -0.0000 -0.0469  0.9989
 
              Baa    -0.4297   -57.660   -20.575   -19.233 -0.0000  0.5469  0.8372
     5 C(13)  Bbb    -0.1198   -16.080    -5.738    -5.364 -0.0000  0.8372 -0.5469
              Bcc     0.5495    73.741    26.312    24.597  1.0000  0.0000  0.0000
 
              Baa    -0.0197   -10.519    -3.754    -3.509  1.0000 -0.0000  0.0000
     6 H(1)   Bbb    -0.0072    -3.819    -1.363    -1.274  0.0000  1.0000 -0.0000
              Bcc     0.0269    14.338     5.116     4.783 -0.0000  0.0000  1.0000
 
              Baa    -0.0516   -27.539    -9.827    -9.186 -0.0000  0.4733  0.8809
     7 H(1)   Bbb    -0.0168    -8.981    -3.205    -2.996  1.0000  0.0000  0.0000
              Bcc     0.0684    36.520    13.031    12.182 -0.0000  0.8809 -0.4733
 
              Baa    -0.0094    -5.003    -1.785    -1.669 -0.0000  0.8514  0.5245
     8 H(1)   Bbb    -0.0086    -4.569    -1.630    -1.524  1.0000  0.0000  0.0000
              Bcc     0.0179     9.572     3.416     3.193  0.0000 -0.5245  0.8514
 
              Baa    -0.0425   -22.683    -8.094    -7.566 -0.0000  1.0000 -0.0000
     9 H(1)   Bbb    -0.0067    -3.577    -1.276    -1.193  1.0000  0.0000  0.0000
              Bcc     0.0492    26.260     9.370     8.759  0.0000  0.0000  1.0000
 
              Baa    -0.0094    -5.003    -1.785    -1.669 -0.0000  0.8514 -0.5245
    10 H(1)   Bbb    -0.0086    -4.569    -1.630    -1.524  1.0000  0.0000 -0.0000
              Bcc     0.0179     9.572     3.416     3.193  0.0000  0.5245  0.8514
 
              Baa    -0.0516   -27.539    -9.827    -9.186 -0.0000 -0.4733  0.8809
    11 H(1)   Bbb    -0.0168    -8.981    -3.205    -2.996  1.0000 -0.0000  0.0000
              Bcc     0.0684    36.520    13.031    12.182  0.0000  0.8809  0.4733
 

 ---------------------------------------------------------------------------------

 No NMR shielding tensors so no spin-rotation constants.
 Leave Link  601 at Thu Mar  5 12:49:44 2020, MaxMem=  6710886400 cpu:               3.1 elap:               0.2
 (Enter /opt/ohpc/pub/libs/gaussian/g16-A.03/sandybridge/g16/l9999.exe)

 Test job not archived.
 1\1\GINC-CNODE212\SP\ULC-wHPBE\6-31G\C5H6(1+,2)\SMGO234\05-Mar-2020\0\
 \#P uLC-wHPBE/6-31G iop(3/130=0274300000, 3/131=0274300000, 3/119=0725
 700000, 3/120=0725700000) scf=(conver=6,fermi,ndamp=35,noincfock,novar
 acc,vshift=500,xqc)\\H6 C5\\1,2\C,0,-1.206512,0.69658,0.\C,0,-1.206512
 ,-0.69658,0.\C,0,0.,-1.39316,0.\C,0,1.206512,-0.69658,0.\C,0,1.206512,
 0.69658,0.\H,0,0.,2.482681,0.\H,0,-2.150065,1.24134,0.\H,0,-2.150065,-
 1.24134,0.\H,0,0.,-2.482681,0.\H,0,2.150065,-1.24134,0.\H,0,2.150065,1
 .24134,0.\\Version=EM64L-G16RevA.03\State=2-B1\HF=-196.3814232\S2=1.13
 948\S2-1=0.\S2A=0.854863\RMSD=6.995e-08\Dipole=0.,1.0516588,0.\Quadrup
 ole=4.3790173,5.7808116,-10.1598289,0.,0.,0.\PG=C02V [C2(H1C1H1),SGV(C
 4H4)]\\@


 ONLY THE DAY DAWNS TO WHICH YOU ARE AWAKE.

                                 -- THOREAU
 Job cpu time:       0 days  0 hours  4 minutes 37.1 seconds.
 Elapsed time:       0 days  0 hours  0 minutes 18.1 seconds.
 File lengths (MBytes):  RWF=    272 Int=      0 D2E=      0 Chk=     32 Scr=     32
 Normal termination of Gaussian 16 at Thu Mar  5 12:49:44 2020.
