<?xml version="1.0" encoding="ISO-8859-1"?>
<modeling>
 <generator>
  <i name="program" type="string">vasp </i>
  <i name="version" type="string">5.4.4.18Apr17-6-g9f103f2a35  </i>
  <i name="subversion" type="string">(build Feb 01 2019 03:23:26) complex            parallel </i>
  <i name="platform" type="string">LinuxIFC </i>
  <i name="date" type="string">2020 01 01 </i>
  <i name="time" type="string">23:48:28 </i>
 </generator>
 <incar>
  <i type="string" name="PREC">high</i>
  <i type="int" name="NSIM">    16</i>
  <i type="int" name="ICHARG">    11</i>
  <i type="int" name="NELM">   200</i>
  <i name="EDIFF">      0.00000100</i>
  <i name="ENCUT">   1000.00000000</i>
  <i type="int" name="NEDOS">  2000</i>
  <i type="string" name="LREAL"> Auto</i>
  <i type="int" name="ISMEAR">     0</i>
  <i name="SIGMA">      0.05000000</i>
  <v type="int" name="KPOINT_BSE">    -1     0     0     0</v>
  <i type="int" name="NELM">   200</i>
 </incar>
 <structure name="primitive_cell" >
  <crystal>
   <varray name="basis" >
    <v>       8.19647610       0.00000000       0.00000000 </v>
    <v>       0.74820596      16.99460085       0.00000000 </v>
    <v>       0.99639806       1.71691701       7.51016516 </v>
   </varray>
   <i name="volume">   1046.13476195 </i>
   <varray name="rec_basis" >
    <v>       0.12200365      -0.00537134      -0.01495867 </v>
    <v>       0.00000000       0.05884222      -0.01345206 </v>
    <v>       0.00000000       0.00000000       0.13315286 </v>
   </varray>
  </crystal>
  <varray name="positions" >
   <v>       0.32100233       0.27455248       0.05432399 </v>
   <v>       0.37558496       0.34208670       0.04149184 </v>
   <v>       0.22436781       0.17135061       0.06690831 </v>
   <v>       0.43808196       0.42019052       0.02225022 </v>
   <v>       0.37399484       0.26118175      -0.30679400 </v>
   <v>      -0.46093226       0.35282433      -0.25405585 </v>
   <v>       0.24675760       0.36982489       0.33312516 </v>
   <v>      -0.43414406       0.14870543       0.19727169 </v>
   <v>      -0.03087360       0.30944206      -0.01434732 </v>
   <v>       0.00310797       0.25490969       0.33146688 </v>
   <v>      -0.01845032       0.18437121       0.13316121 </v>
   <v>       0.32524606       0.09116212       0.25726297 </v>
   <v>       0.27981285       0.14151502      -0.17024866 </v>
   <v>       0.29303191       0.11531704       0.37756604 </v>
   <v>       0.29314024       0.21501054      -0.32625678 </v>
   <v>      -0.48746572       0.08876618       0.21598945 </v>
   <v>      -0.09128918       0.25172012      -0.00312552 </v>
   <v>       0.40181838       0.11180538      -0.16275614 </v>
   <v>      -0.45714649       0.45526223      -0.13535467 </v>
   <v>       0.39475928       0.46392574       0.15843345 </v>
   <v>      -0.05380836       0.19893472       0.32171233 </v>
   <v>      -0.41338848       0.41336956      -0.27183085 </v>
   <v>       0.17205015       0.24380887      -0.34515916 </v>
   <v>       0.29342009       0.43049809       0.31662667 </v>
   <v>      -0.22376572       0.26057755       0.03589549 </v>
   <v>       0.34134808       0.19767248      -0.45174131 </v>
   <v>      -0.07746382       0.23894141      -0.13678343 </v>
   <v>      -0.44880836       0.06663699       0.09410933 </v>
   <v>       0.03372616       0.45495236      -0.13523251 </v>
   <v>      -0.00809079       0.14929074       0.42184557 </v>
   <v>       0.10131658       0.37837620      -0.37036005 </v>
   <v>      -0.07162349       0.12625823       0.13068387 </v>
   <v>       0.11211255       0.48130730      -0.25717474 </v>
   <v>       0.14977641       0.43865987      -0.38732252 </v>
   <v>      -0.14353478       0.40673115       0.17399994 </v>
   <v>      -0.43162478       0.04760163       0.32467140 </v>
   <v>       0.15662137       0.08063559      -0.19313798 </v>
   <v>       0.25061266       0.00748618       0.28952664 </v>
   <v>      -0.18732340       0.20523286       0.35923649 </v>
   <v>       0.03229793       0.10747376      -0.19881727 </v>
   <v>       0.11605544       0.00870983       0.32160430 </v>
   <v>      -0.31971679       0.34423724       0.44979623 </v>
   <v>       0.27890460      -0.01906129       0.17218146 </v>
   <v>       0.14838440       0.02632028      -0.08459053 </v>
   <v>      -0.31368713       0.44695845      -0.42815389 </v>
   <v>      -0.39475928      -0.46392574      -0.15843345 </v>
   <v>       0.45714649      -0.45526223       0.13535467 </v>
   <v>       0.25189892       0.47227512       0.45163421 </v>
   <v>       0.17367626      -0.43943123      -0.27979718 </v>
   <v>      -0.17367626       0.43943123       0.27979718 </v>
   <v>       0.30067298      -0.03460933       0.40106229 </v>
   <v>       0.19161928       0.06064328      -0.31844941 </v>
   <v>      -0.03372616      -0.45495236       0.13523251 </v>
   <v>       0.14353478      -0.40673115      -0.17399994 </v>
   <v>      -0.43808196      -0.42019052      -0.02225022 </v>
   <v>      -0.27120759       0.40461896       0.43259775 </v>
   <v>      -0.11211255      -0.48130730       0.25717474 </v>
   <v>      -0.27890460       0.01906129      -0.17218146 </v>
   <v>       0.27120759      -0.40461896      -0.43259775 </v>
   <v>       0.31368713      -0.44695845       0.42815389 </v>
   <v>      -0.29342009      -0.43049809      -0.31662667 </v>
   <v>       0.41338848      -0.41336956       0.27183085 </v>
   <v>      -0.25189892      -0.47227512      -0.45163421 </v>
   <v>       0.44880836      -0.06663699      -0.09410933 </v>
   <v>      -0.30067298       0.03460933      -0.40106229 </v>
   <v>      -0.14838440      -0.02632028       0.08459053 </v>
   <v>       0.43162478      -0.04760163      -0.32467140 </v>
   <v>      -0.25061266      -0.00748618      -0.28952664 </v>
   <v>      -0.40181838      -0.11180538       0.16275614 </v>
   <v>       0.31971679      -0.34423724      -0.44979623 </v>
   <v>      -0.11605544      -0.00870983      -0.32160430 </v>
   <v>      -0.14977641      -0.43865987       0.38732252 </v>
   <v>      -0.19161928      -0.06064328       0.31844941 </v>
   <v>      -0.37558496      -0.34208670      -0.04149184 </v>
   <v>       0.48746572      -0.08876618      -0.21598945 </v>
   <v>      -0.24675760      -0.36982489      -0.33312516 </v>
   <v>      -0.03229793      -0.10747376       0.19881727 </v>
   <v>       0.46093226      -0.35282433       0.25405585 </v>
   <v>      -0.15662137      -0.08063559       0.19313798 </v>
   <v>       0.03087360      -0.30944206       0.01434732 </v>
   <v>      -0.10131658      -0.37837620       0.37036005 </v>
   <v>      -0.32524606      -0.09116212      -0.25726297 </v>
   <v>      -0.27981285      -0.14151502       0.17024866 </v>
   <v>       0.07162349      -0.12625823      -0.13068387 </v>
   <v>       0.22376572      -0.26057755      -0.03589549 </v>
   <v>       0.00809079      -0.14929074      -0.42184557 </v>
   <v>       0.43414406      -0.14870543      -0.19727169 </v>
   <v>      -0.29303191      -0.11531704      -0.37756604 </v>
   <v>       0.09128918      -0.25172012       0.00312552 </v>
   <v>      -0.32100233      -0.27455248      -0.05432399 </v>
   <v>      -0.00310797      -0.25490969      -0.33146688 </v>
   <v>      -0.34134808      -0.19767248       0.45174131 </v>
   <v>       0.18732340      -0.20523286      -0.35923649 </v>
   <v>      -0.22436781      -0.17135061      -0.06690831 </v>
   <v>       0.07746382      -0.23894141       0.13678343 </v>
   <v>       0.05380836      -0.19893472      -0.32171233 </v>
   <v>      -0.29314024      -0.21501054       0.32625678 </v>
   <v>       0.01845032      -0.18437121      -0.13316121 </v>
   <v>      -0.37399484      -0.26118175       0.30679400 </v>
   <v>      -0.17205015      -0.24380887       0.34515916 </v>
  </varray>
 </structure>
 <varray name="primitive_index" >
  <v type="int" >        1 </v>
  <v type="int" >        5 </v>
  <v type="int" >       45 </v>
  <v type="int" >       12 </v>
  <v type="int" >       66 </v>
  <v type="int" >       68 </v>
  <v type="int" >       69 </v>
  <v type="int" >       60 </v>
  <v type="int" >       52 </v>
  <v type="int" >       54 </v>
  <v type="int" >        2 </v>
  <v type="int" >        3 </v>
  <v type="int" >        4 </v>
  <v type="int" >       48 </v>
  <v type="int" >       11 </v>
  <v type="int" >        9 </v>
  <v type="int" >        6 </v>
  <v type="int" >       49 </v>
  <v type="int" >       13 </v>
  <v type="int" >       14 </v>
  <v type="int" >        7 </v>
  <v type="int" >       15 </v>
  <v type="int" >       67 </v>
  <v type="int" >       18 </v>
  <v type="int" >       50 </v>
  <v type="int" >       65 </v>
  <v type="int" >       51 </v>
  <v type="int" >       61 </v>
  <v type="int" >       77 </v>
  <v type="int" >       55 </v>
  <v type="int" >       73 </v>
  <v type="int" >       47 </v>
  <v type="int" >       33 </v>
  <v type="int" >       28 </v>
  <v type="int" >       74 </v>
  <v type="int" >       59 </v>
  <v type="int" >       10 </v>
  <v type="int" >        8 </v>
  <v type="int" >       53 </v>
  <v type="int" >       63 </v>
  <v type="int" >       58 </v>
  <v type="int" >       72 </v>
  <v type="int" >       57 </v>
  <v type="int" >       64 </v>
  <v type="int" >       19 </v>
  <v type="int" >       16 </v>
  <v type="int" >       17 </v>
  <v type="int" >       23 </v>
  <v type="int" >       35 </v>
  <v type="int" >       29 </v>
  <v type="int" >       56 </v>
  <v type="int" >       62 </v>
  <v type="int" >       78 </v>
  <v type="int" >       79 </v>
  <v type="int" >       20 </v>
  <v type="int" >       24 </v>
  <v type="int" >       34 </v>
  <v type="int" >       90 </v>
  <v type="int" >       32 </v>
  <v type="int" >       27 </v>
  <v type="int" >       21 </v>
  <v type="int" >       22 </v>
  <v type="int" >       25 </v>
  <v type="int" >       94 </v>
  <v type="int" >       89 </v>
  <v type="int" >       97 </v>
  <v type="int" >       92 </v>
  <v type="int" >       41 </v>
  <v type="int" >       82 </v>
  <v type="int" >       76 </v>
  <v type="int" >       91 </v>
  <v type="int" >       30 </v>
  <v type="int" >       95 </v>
  <v type="int" >       26 </v>
  <v type="int" >       42 </v>
  <v type="int" >       70 </v>
  <v type="int" >       96 </v>
  <v type="int" >       71 </v>
  <v type="int" >       43 </v>
  <v type="int" >       85 </v>
  <v type="int" >       75 </v>
  <v type="int" >       37 </v>
  <v type="int" >       38 </v>
  <v type="int" >       80 </v>
  <v type="int" >       83 </v>
  <v type="int" >       88 </v>
  <v type="int" >       93 </v>
  <v type="int" >       81 </v>
  <v type="int" >       39 </v>
  <v type="int" >       31 </v>
  <v type="int" >       87 </v>
  <v type="int" >       98 </v>
  <v type="int" >       86 </v>
  <v type="int" >       46 </v>
  <v type="int" >       84 </v>
  <v type="int" >       40 </v>
  <v type="int" >       44 </v>
  <v type="int" >       36 </v>
  <v type="int" >       99 </v>
  <v type="int" >      100 </v>
 </varray>
 <kpoints>
  <generation param="listgenerated">
   <i name="divisions" type="int">      16 </i>
   <v>       0.50000000       0.00000000       0.00000000 </v>
   <v>       0.00000000       0.00000000       0.00000000 </v>
   <v>       0.50000000       0.50000000       0.00000000 </v>
   <v>       0.00000000       0.00000000       0.00000000 </v>
   <v>       0.50000000       0.00000000       0.50000000 </v>
   <v>       0.00000000       0.00000000       0.00000000 </v>
   <v>       0.50000000       0.50000000       0.50000000 </v>
   <v>       0.00000000       0.00000000       0.00000000 </v>
  </generation>
  <varray name="kpointlist" >
   <v>       0.50000000       0.00000000       0.00000000 </v>
   <v>       0.46666667       0.00000000       0.00000000 </v>
   <v>       0.43333333       0.00000000       0.00000000 </v>
   <v>       0.40000000       0.00000000       0.00000000 </v>
   <v>       0.36666667       0.00000000       0.00000000 </v>
   <v>       0.33333333       0.00000000       0.00000000 </v>
   <v>       0.30000000       0.00000000       0.00000000 </v>
   <v>       0.26666667       0.00000000       0.00000000 </v>
   <v>       0.23333333       0.00000000       0.00000000 </v>
   <v>       0.20000000       0.00000000       0.00000000 </v>
   <v>       0.16666667       0.00000000       0.00000000 </v>
   <v>       0.13333333       0.00000000       0.00000000 </v>
   <v>       0.10000000       0.00000000       0.00000000 </v>
   <v>       0.06666667       0.00000000       0.00000000 </v>
   <v>       0.03333333       0.00000000       0.00000000 </v>
   <v>       0.00000000       0.00000000       0.00000000 </v>
   <v>       0.00000000       0.00000000       0.00000000 </v>
   <v>       0.00000000       0.03333333       0.00000000 </v>
   <v>       0.00000000       0.06666667       0.00000000 </v>
   <v>       0.00000000       0.10000000       0.00000000 </v>
   <v>       0.00000000       0.13333333       0.00000000 </v>
   <v>       0.00000000       0.16666667       0.00000000 </v>
   <v>       0.00000000       0.20000000       0.00000000 </v>
   <v>       0.00000000       0.23333333       0.00000000 </v>
   <v>       0.00000000       0.26666667       0.00000000 </v>
   <v>       0.00000000       0.30000000       0.00000000 </v>
   <v>       0.00000000       0.33333333       0.00000000 </v>
   <v>       0.00000000       0.36666667       0.00000000 </v>
   <v>       0.00000000       0.40000000       0.00000000 </v>
   <v>       0.00000000       0.43333333       0.00000000 </v>
   <v>       0.00000000       0.46666667       0.00000000 </v>
   <v>       0.00000000       0.50000000       0.00000000 </v>
   <v>       0.50000000       0.50000000       0.00000000 </v>
   <v>       0.46666667       0.46666667       0.00000000 </v>
   <v>       0.43333333       0.43333333       0.00000000 </v>
   <v>       0.40000000       0.40000000       0.00000000 </v>
   <v>       0.36666667       0.36666667       0.00000000 </v>
   <v>       0.33333333       0.33333333       0.00000000 </v>
   <v>       0.30000000       0.30000000       0.00000000 </v>
   <v>       0.26666667       0.26666667       0.00000000 </v>
   <v>       0.23333333       0.23333333       0.00000000 </v>
   <v>       0.20000000       0.20000000       0.00000000 </v>
   <v>       0.16666667       0.16666667       0.00000000 </v>
   <v>       0.13333333       0.13333333       0.00000000 </v>
   <v>       0.10000000       0.10000000       0.00000000 </v>
   <v>       0.06666667       0.06666667       0.00000000 </v>
   <v>       0.03333333       0.03333333       0.00000000 </v>
   <v>       0.00000000       0.00000000       0.00000000 </v>
   <v>       0.00000000       0.00000000       0.00000000 </v>
   <v>       0.00000000       0.00000000       0.03333333 </v>
   <v>       0.00000000       0.00000000       0.06666667 </v>
   <v>       0.00000000       0.00000000       0.10000000 </v>
   <v>       0.00000000       0.00000000       0.13333333 </v>
   <v>       0.00000000       0.00000000       0.16666667 </v>
   <v>       0.00000000       0.00000000       0.20000000 </v>
   <v>       0.00000000       0.00000000       0.23333333 </v>
   <v>       0.00000000       0.00000000       0.26666667 </v>
   <v>       0.00000000       0.00000000       0.30000000 </v>
   <v>       0.00000000       0.00000000       0.33333333 </v>
   <v>       0.00000000       0.00000000       0.36666667 </v>
   <v>       0.00000000       0.00000000       0.40000000 </v>
   <v>       0.00000000       0.00000000       0.43333333 </v>
   <v>       0.00000000       0.00000000       0.46666667 </v>
   <v>       0.00000000       0.00000000       0.50000000 </v>
   <v>       0.50000000       0.00000000       0.50000000 </v>
   <v>       0.46666667       0.00000000       0.46666667 </v>
   <v>       0.43333333       0.00000000       0.43333333 </v>
   <v>       0.40000000       0.00000000       0.40000000 </v>
   <v>       0.36666667       0.00000000       0.36666667 </v>
   <v>       0.33333333       0.00000000       0.33333333 </v>
   <v>       0.30000000       0.00000000       0.30000000 </v>
   <v>       0.26666667       0.00000000       0.26666667 </v>
   <v>       0.23333333       0.00000000       0.23333333 </v>
   <v>       0.20000000       0.00000000       0.20000000 </v>
   <v>       0.16666667       0.00000000       0.16666667 </v>
   <v>       0.13333333       0.00000000       0.13333333 </v>
   <v>       0.10000000       0.00000000       0.10000000 </v>
   <v>       0.06666667       0.00000000       0.06666667 </v>
   <v>       0.03333333       0.00000000       0.03333333 </v>
   <v>       0.00000000       0.00000000       0.00000000 </v>
   <v>       0.00000000       0.00000000       0.00000000 </v>
   <v>       0.00000000       0.03333333       0.03333333 </v>
   <v>       0.00000000       0.06666667       0.06666667 </v>
   <v>       0.00000000       0.10000000       0.10000000 </v>
   <v>       0.00000000       0.13333333       0.13333333 </v>
   <v>       0.00000000       0.16666667       0.16666667 </v>
   <v>       0.00000000       0.20000000       0.20000000 </v>
   <v>       0.00000000       0.23333333       0.23333333 </v>
   <v>       0.00000000       0.26666667       0.26666667 </v>
   <v>       0.00000000       0.30000000       0.30000000 </v>
   <v>       0.00000000       0.33333333       0.33333333 </v>
   <v>       0.00000000       0.36666667       0.36666667 </v>
   <v>       0.00000000       0.40000000       0.40000000 </v>
   <v>       0.00000000       0.43333333       0.43333333 </v>
   <v>       0.00000000       0.46666667       0.46666667 </v>
   <v>       0.00000000       0.50000000       0.50000000 </v>
   <v>       0.50000000       0.50000000       0.50000000 </v>
   <v>       0.46666667       0.46666667       0.46666667 </v>
   <v>       0.43333333       0.43333333       0.43333333 </v>
   <v>       0.40000000       0.40000000       0.40000000 </v>
   <v>       0.36666667       0.36666667       0.36666667 </v>
   <v>       0.33333333       0.33333333       0.33333333 </v>
   <v>       0.30000000       0.30000000       0.30000000 </v>
   <v>       0.26666667       0.26666667       0.26666667 </v>
   <v>       0.23333333       0.23333333       0.23333333 </v>
   <v>       0.20000000       0.20000000       0.20000000 </v>
   <v>       0.16666667       0.16666667       0.16666667 </v>
   <v>       0.13333333       0.13333333       0.13333333 </v>
   <v>       0.10000000       0.10000000       0.10000000 </v>
   <v>       0.06666667       0.06666667       0.06666667 </v>
   <v>       0.03333333       0.03333333       0.03333333 </v>
   <v>       0.00000000       0.00000000       0.00000000 </v>
  </varray>
  <varray name="weights" >
   <v>       0.00892857 </v>
   <v>       0.00892857 </v>
   <v>       0.00892857 </v>
   <v>       0.00892857 </v>
   <v>       0.00892857 </v>
   <v>       0.00892857 </v>
   <v>       0.00892857 </v>
   <v>       0.00892857 </v>
   <v>       0.00892857 </v>
   <v>       0.00892857 </v>
   <v>       0.00892857 </v>
   <v>       0.00892857 </v>
   <v>       0.00892857 </v>
   <v>       0.00892857 </v>
   <v>       0.00892857 </v>
   <v>       0.00892857 </v>
   <v>       0.00892857 </v>
   <v>       0.00892857 </v>
   <v>       0.00892857 </v>
   <v>       0.00892857 </v>
   <v>       0.00892857 </v>
   <v>       0.00892857 </v>
   <v>       0.00892857 </v>
   <v>       0.00892857 </v>
   <v>       0.00892857 </v>
   <v>       0.00892857 </v>
   <v>       0.00892857 </v>
   <v>       0.00892857 </v>
   <v>       0.00892857 </v>
   <v>       0.00892857 </v>
   <v>       0.00892857 </v>
   <v>       0.00892857 </v>
   <v>       0.00892857 </v>
   <v>       0.00892857 </v>
   <v>       0.00892857 </v>
   <v>       0.00892857 </v>
   <v>       0.00892857 </v>
   <v>       0.00892857 </v>
   <v>       0.00892857 </v>
   <v>       0.00892857 </v>
   <v>       0.00892857 </v>
   <v>       0.00892857 </v>
   <v>       0.00892857 </v>
   <v>       0.00892857 </v>
   <v>       0.00892857 </v>
   <v>       0.00892857 </v>
   <v>       0.00892857 </v>
   <v>       0.00892857 </v>
   <v>       0.00892857 </v>
   <v>       0.00892857 </v>
   <v>       0.00892857 </v>
   <v>       0.00892857 </v>
   <v>       0.00892857 </v>
   <v>       0.00892857 </v>
   <v>       0.00892857 </v>
   <v>       0.00892857 </v>
   <v>       0.00892857 </v>
   <v>       0.00892857 </v>
   <v>       0.00892857 </v>
   <v>       0.00892857 </v>
   <v>       0.00892857 </v>
   <v>       0.00892857 </v>
   <v>       0.00892857 </v>
   <v>       0.00892857 </v>
   <v>       0.00892857 </v>
   <v>       0.00892857 </v>
   <v>       0.00892857 </v>
   <v>       0.00892857 </v>
   <v>       0.00892857 </v>
   <v>       0.00892857 </v>
   <v>       0.00892857 </v>
   <v>       0.00892857 </v>
   <v>       0.00892857 </v>
   <v>       0.00892857 </v>
   <v>       0.00892857 </v>
   <v>       0.00892857 </v>
   <v>       0.00892857 </v>
   <v>       0.00892857 </v>
   <v>       0.00892857 </v>
   <v>       0.00892857 </v>
   <v>       0.00892857 </v>
   <v>       0.00892857 </v>
   <v>       0.00892857 </v>
   <v>       0.00892857 </v>
   <v>       0.00892857 </v>
   <v>       0.00892857 </v>
   <v>       0.00892857 </v>
   <v>       0.00892857 </v>
   <v>       0.00892857 </v>
   <v>       0.00892857 </v>
   <v>       0.00892857 </v>
   <v>       0.00892857 </v>
   <v>       0.00892857 </v>
   <v>       0.00892857 </v>
   <v>       0.00892857 </v>
   <v>       0.00892857 </v>
   <v>       0.00892857 </v>
   <v>       0.00892857 </v>
   <v>       0.00892857 </v>
   <v>       0.00892857 </v>
   <v>       0.00892857 </v>
   <v>       0.00892857 </v>
   <v>       0.00892857 </v>
   <v>       0.00892857 </v>
   <v>       0.00892857 </v>
   <v>       0.00892857 </v>
   <v>       0.00892857 </v>
   <v>       0.00892857 </v>
   <v>       0.00892857 </v>
   <v>       0.00892857 </v>
   <v>       0.00892857 </v>
   <v>       0.00892857 </v>
  </varray>
 </kpoints>
 <parameters>
  <separator name="general" >
   <i type="string" name="SYSTEM">unknown system</i>
   <i type="logical" name="LCOMPAT"> F  </i>
  </separator>
  <separator name="electronic" >
   <i type="string" name="PREC">high</i>
   <i name="ENMAX">   1000.00000000</i>
   <i name="ENAUG">    644.87300000</i>
   <i name="EDIFF">      0.00000100</i>
   <i type="int" name="IALGO">    38</i>
   <i type="int" name="IWAVPR">    10</i>
   <i type="int" name="NBANDS">   174</i>
   <i name="NELECT">    238.00000000</i>
   <i type="int" name="TURBO">     0</i>
   <i type="int" name="IRESTART">     0</i>
   <i type="int" name="NREBOOT">     0</i>
   <i type="int" name="NMIN">     0</i>
   <i name="EREF">      0.00000000</i>
   <separator name="electronic smearing" >
    <i type="int" name="ISMEAR">     0</i>
    <i name="SIGMA">      0.05000000</i>
    <i name="KSPACING">      0.50000000</i>
    <i type="logical" name="KGAMMA"> T  </i>
   </separator>
   <separator name="electronic projectors" >
    <i type="logical" name="LREAL"> T  </i>
    <v name="ROPT">     -0.00040000     -0.00040000     -0.00040000</v>
    <i type="int" name="LMAXPAW">  -100</i>
    <i type="int" name="LMAXMIX">     2</i>
    <i type="logical" name="NLSPLINE"> F  </i>
   </separator>
   <separator name="electronic startup" >
    <i type="int" name="ISTART">     0</i>
    <i type="int" name="ICHARG">    11</i>
    <i type="int" name="INIWAV">     1</i>
   </separator>
   <separator name="electronic spin" >
    <i type="int" name="ISPIN">     1</i>
    <i type="logical" name="LNONCOLLINEAR"> F  </i>
    <v name="MAGMOM">      1.00000000      1.00000000      1.00000000      1.00000000      1.00000000      1.00000000      1.00000000      1.00000000      1.00000000      1.00000000      1.00000000      1.00000000      1.00000000      1.00000000      1.00000000      1.00000000      1.00000000      1.00000000      1.00000000      1.00000000
      1.00000000      1.00000000      1.00000000      1.00000000      1.00000000      1.00000000      1.00000000      1.00000000      1.00000000      1.00000000      1.00000000      1.00000000      1.00000000      1.00000000      1.00000000      1.00000000      1.00000000      1.00000000      1.00000000      1.00000000
      1.00000000      1.00000000      1.00000000      1.00000000      1.00000000      1.00000000      1.00000000      1.00000000      1.00000000      1.00000000      1.00000000      1.00000000      1.00000000      1.00000000      1.00000000      1.00000000      1.00000000      1.00000000      1.00000000      1.00000000
      1.00000000      1.00000000      1.00000000      1.00000000      1.00000000      1.00000000      1.00000000      1.00000000      1.00000000      1.00000000      1.00000000      1.00000000      1.00000000      1.00000000      1.00000000      1.00000000      1.00000000      1.00000000      1.00000000      1.00000000
      1.00000000      1.00000000      1.00000000      1.00000000      1.00000000      1.00000000      1.00000000      1.00000000      1.00000000      1.00000000      1.00000000      1.00000000      1.00000000      1.00000000      1.00000000      1.00000000      1.00000000      1.00000000      1.00000000      1.00000000
</v>
    <i name="NUPDOWN">     -1.00000000</i>
    <i type="logical" name="LSORBIT"> F  </i>
    <v name="SAXIS">      0.00000000      0.00000000      1.00000000</v>
    <i type="logical" name="LSPIRAL"> F  </i>
    <v name="QSPIRAL">      0.00000000      0.00000000      0.00000000</v>
    <i type="logical" name="LZEROZ"> F  </i>
   </separator>
   <separator name="electronic exchange-correlation" >
    <i type="logical" name="LASPH"> F  </i>
    <i type="logical" name="LMETAGGA"> F  </i>
   </separator>
   <separator name="electronic convergence" >
    <i type="int" name="NELM">   200</i>
    <i type="int" name="NELMDL">    -5</i>
    <i type="int" name="NELMIN">     2</i>
    <i name="ENINI">   1000.00000000</i>
    <separator name="electronic convergence detail" >
     <i type="logical" name="LDIAG"> T  </i>
     <i type="logical" name="LSUBROT"> F  </i>
     <i name="WEIMIN">      0.00000000</i>
     <i name="EBREAK">      0.00000000</i>
     <i name="DEPER">      0.30000000</i>
     <i type="int" name="NRMM">     4</i>
     <i name="TIME">      0.40000000</i>
    </separator>
   </separator>
   <separator name="electronic mixer" >
    <i name="AMIX">      0.40000000</i>
    <i name="BMIX">      1.00000000</i>
    <i name="AMIN">      0.10000000</i>
    <i name="AMIX_MAG">      1.60000000</i>
    <i name="BMIX_MAG">      1.00000000</i>
    <separator name="electronic mixer details" >
     <i type="int" name="IMIX">     4</i>
     <i type="logical" name="MIXFIRST"> F  </i>
     <i type="int" name="MAXMIX">   -45</i>
     <i name="WC">    100.00000000</i>
     <i type="int" name="INIMIX">     1</i>
     <i type="int" name="MIXPRE">     1</i>
     <i type="int" name="MREMOVE">     5</i>
    </separator>
   </separator>
   <separator name="electronic dipolcorrection" >
    <i type="logical" name="LDIPOL"> F  </i>
    <i type="logical" name="LMONO"> F  </i>
    <i type="int" name="IDIPOL">     0</i>
    <i name="EPSILON">      1.00000000</i>
    <v name="DIPOL">   -100.00000000   -100.00000000   -100.00000000</v>
    <i name="EFIELD">      0.00000000</i>
   </separator>
  </separator>
  <separator name="grids" >
   <i type="int" name="NGX">    90</i>
   <i type="int" name="NGY">   180</i>
   <i type="int" name="NGZ">    80</i>
   <i type="int" name="NGXF">    90</i>
   <i type="int" name="NGYF">   192</i>
   <i type="int" name="NGZF">    90</i>
   <i type="logical" name="ADDGRID"> F  </i>
  </separator>
  <separator name="ionic" >
   <i type="int" name="NSW">     0</i>
   <i type="int" name="IBRION">    -1</i>
   <i type="int" name="MDALGO">     0</i>
   <i type="int" name="ISIF">     2</i>
   <i name="PSTRESS">      0.00000000</i>
   <i name="EDIFFG">      0.00001000</i>
   <i type="int" name="NFREE">     0</i>
   <i name="POTIM">      0.50000000</i>
   <i name="SMASS">     -3.00000000</i>
   <i name="SCALEE">      1.00000000</i>
  </separator>
  <separator name="ionic md" >
   <i name="TEBEG">      0.00010000</i>
   <i name="TEEND">      0.00010000</i>
   <i type="int" name="NBLOCK">     1</i>
   <i type="int" name="KBLOCK">     1</i>
   <i type="int" name="NPACO">   256</i>
   <i name="APACO">     16.00000000</i>
  </separator>
  <separator name="symmetry" >
   <i type="int" name="ISYM">     2</i>
   <i name="SYMPREC">      0.00001000</i>
  </separator>
  <separator name="dos" >
   <i type="int" name="LORBIT">     0</i>
   <v name="RWIGS">     -1.00000000     -1.00000000     -1.00000000</v>
   <i type="int" name="NEDOS">  2000</i>
   <i name="EMIN">     10.00000000</i>
   <i name="EMAX">    -10.00000000</i>
   <i name="EFERMI">      0.00000000</i>
  </separator>
  <separator name="writing" >
   <i type="int" name="NWRITE">     2</i>
   <i type="logical" name="LWAVE"> T  </i>
   <i type="logical" name="LDOWNSAMPLE"> F  </i>
   <i type="logical" name="LCHARG"> T  </i>
   <i type="logical" name="LPARD"> F  </i>
   <i type="logical" name="LVTOT"> F  </i>
   <i type="logical" name="LVHAR"> F  </i>
   <i type="logical" name="LELF"> F  </i>
   <i type="logical" name="LOPTICS"> F  </i>
   <v name="STM">      0.00000000      0.00000000      0.00000000      0.00000000      0.00000000      0.00000000      0.00000000</v>
  </separator>
  <separator name="performance" >
   <i type="int" name="NPAR">     6</i>
   <i type="int" name="NSIM">    16</i>
   <i type="int" name="NBLK">    -1</i>
   <i type="logical" name="LPLANE"> T  </i>
   <i type="logical" name="LSCALAPACK"> T  </i>
   <i type="logical" name="LSCAAWARE"> F  </i>
   <i type="logical" name="LSCALU"> F  </i>
   <i type="logical" name="LASYNC"> F  </i>
   <i type="logical" name="LORBITALREAL"> F  </i>
  </separator>
  <separator name="miscellaneous" >
   <i type="int" name="IDIOT">     3</i>
   <i type="int" name="ISPECIAL">     0</i>
   <i type="logical" name="LMUSIC"> F  </i>
   <v name="POMASS">     12.01100000     72.61000000      1.00000000</v>
   <v name="DARWINR">      0.00000000      0.00000000      0.00000000</v>
   <v name="DARWINV">      1.00000000      1.00000000      1.00000000</v>
   <i type="logical" name="LCORR"> T  </i>
  </separator>
  <i type="logical" name="GGA_COMPAT"> T  </i>
  <i type="logical" name="LBERRY"> F  </i>
  <i type="int" name="ICORELEVEL">     0</i>
  <i type="logical" name="LDAU"> F  </i>
  <i type="int" name="I_CONSTRAINED_M">     0</i>
  <separator name="electronic exchange-correlation" >
   <i type="string" name="GGA">--</i>
   <i type="int" name="VOSKOWN">     0</i>
   <i type="logical" name="LHFCALC"> F  </i>
   <i type="string" name="PRECFOCK"></i>
   <i type="logical" name="LSYMGRAD"> F  </i>
   <i type="logical" name="LHFONE"> F  </i>
   <i type="logical" name="LRHFCALC"> F  </i>
   <i type="logical" name="LTHOMAS"> F  </i>
   <i type="logical" name="LMODELHF"> F  </i>
   <i name="ENCUT4O">     -1.00000000</i>
   <i type="int" name="EXXOEP">     0</i>
   <i type="int" name="FOURORBIT">     0</i>
   <i name="AEXX">      0.00000000</i>
   <i name="HFALPHA">      0.00000000</i>
   <i name="MCALPHA">      0.00000000</i>
   <i name="ALDAX">      1.00000000</i>
   <i name="AGGAX">      1.00000000</i>
   <i name="ALDAC">      1.00000000</i>
   <i name="AGGAC">      1.00000000</i>
   <i type="int" name="NKREDX">     1</i>
   <i type="int" name="NKREDY">     1</i>
   <i type="int" name="NKREDZ">     1</i>
   <i type="logical" name="SHIFTRED"> F  </i>
   <i type="logical" name="ODDONLY"> F  </i>
   <i type="logical" name="EVENONLY"> F  </i>
   <i type="int" name="LMAXFOCK">     0</i>
   <i type="int" name="NMAXFOCKAE">     0</i>
   <i type="logical" name="LFOCKAEDFT"> F  </i>
   <i name="HFSCREEN">      0.00000000</i>
   <i name="HFSCREENC">      0.00000000</i>
   <i type="int" name="NBANDSGWLOW">     0</i>
  </separator>
  <separator name="vdW DFT" >
   <i type="logical" name="LUSE_VDW"> F  </i>
   <i name="Zab_VDW">     -0.84910000</i>
   <i name="PARAM1">      0.12340000</i>
   <i name="PARAM2">      1.00000000</i>
   <i name="PARAM3">      0.00000000</i>
  </separator>
  <separator name="model GW" >
   <i type="int" name="MODEL_GW">     0</i>
   <i name="MODEL_EPS0">      6.27680857</i>
   <i name="MODEL_ALPHA">      1.00000000</i>
  </separator>
  <separator name="linear response parameters" >
   <i type="logical" name="LEPSILON"> F  </i>
   <i type="logical" name="LRPA"> F  </i>
   <i type="logical" name="LNABLA"> F  </i>
   <i type="logical" name="LVEL"> F  </i>
   <i type="int" name="KINTER">     0</i>
   <i name="CSHIFT">      0.10000000</i>
   <i name="OMEGAMAX">     -1.00000000</i>
   <i name="DEG_THRESHOLD">      0.00200000</i>
   <i name="RTIME">     -0.10000000</i>
   <i name="WPLASMAI">      0.00000000</i>
   <v name="DFIELD">      0.00000000      0.00000000      0.00000000</v>
   <v name="WPLASMA">      0.00000000      0.00000000      0.00000000      0.00000000      0.00000000      0.00000000      0.00000000      0.00000000      0.00000000</v>
  </separator>
  <separator name="orbital magnetization" >
   <i type="logical" name="NUCIND"> F  </i>
   <v name="MAGPOS">      0.00000000      0.00000000      0.00000000</v>
   <i type="logical" name="LNICSALL"> T  </i>
   <i type="logical" name="ORBITALMAG"> F  </i>
   <i type="logical" name="LMAGBLOCH"> F  </i>
   <i type="logical" name="LCHIMAG"> F  </i>
   <i type="logical" name="LGAUGE"> T  </i>
   <i type="int" name="MAGATOM">     0</i>
   <v name="MAGDIPOL">      0.00000000      0.00000000      0.00000000</v>
   <v name="AVECCONST">      0.00000000      0.00000000      0.00000000</v>
  </separator>
  <separator name="response functions" >
   <i type="logical" name="LADDER"> F  </i>
   <i type="logical" name="LRPAFORCE"> F  </i>
   <i type="logical" name="LFXC"> F  </i>
   <i type="logical" name="LHARTREE"> T  </i>
   <i type="int" name="IBSE">     0</i>
   <v type="int" name="KPOINT">    -1     0     0     0</v>
   <i type="logical" name="LTCTE"> F  </i>
   <i type="logical" name="LTETE"> F  </i>
   <i type="logical" name="LTRIPLET"> F  </i>
   <i type="logical" name="LFXCEPS"> F  </i>
   <i type="logical" name="LFXHEG"> F  </i>
   <i type="int" name="NATURALO">     2</i>
   <i type="logical" name="L2ORDER"> F  </i>
   <i type="logical" name="LMP2LT"> F  </i>
   <i type="logical" name="LUSEW"> F  </i>
   <i name="ENCUTGW">     -2.00000000</i>
   <i name="ENCUTGWSOFT">     -2.00000000</i>
   <i name="ENCUTLF">     -1.00000000</i>
   <i type="int" name="LMAXMP2">    -1</i>
   <i name="SCISSOR">      0.00000000</i>
   <i type="int" name="NOMEGA">     0</i>
   <i type="int" name="NOMEGAR">     0</i>
   <i type="int" name="NBANDSGW">    -1</i>
   <i type="int" name="NBANDSO">    -1</i>
   <i type="int" name="NBANDSV">    -1</i>
   <i type="int" name="NELM">   200</i>
   <i type="int" name="NELMHF">     1</i>
   <i type="int" name="DIM">     3</i>
   <i type="int" name="ANTIRES">     0</i>
   <i name="OMEGAMAX">    -30.00000000</i>
   <i name="OMEGAMIN">    -30.00000000</i>
   <i name="OMEGATL">   -200.00000000</i>
   <i type="int" name="OMEGAGRID">   140</i>
   <i name="CSHIFT">     -0.10000000</i>
   <i type="logical" name="SELFENERGY"> F  </i>
   <i type="logical" name="LSPECTRAL"> F  </i>
   <i type="logical" name="LSPECTRALGW"> F  </i>
   <i type="logical" name="LSINGLES"> F  </i>
   <i type="logical" name="LFERMIGW"> F  </i>
   <i type="logical" name="ODDONLYGW"> F  </i>
   <i type="logical" name="EVENONLYGW"> F  </i>
   <i type="int" name="NKREDLFX">     1</i>
   <i type="int" name="NKREDLFY">     1</i>
   <i type="int" name="NKREDLFZ">     1</i>
   <i type="int" name="MAXMEM">  2800</i>
   <i type="int" name="TELESCOPE">     0</i>
   <i type="int" name="TAUPAR">     1</i>
   <i type="int" name="OMEGAPAR">    -1</i>
   <i name="LAMBDA">      1.00000000</i>
  </separator>
  <separator name="External order field" >
   <i name="OFIELD_KAPPA">      0.00000000</i>
   <v name="OFIELD_K">      0.00000000      0.00000000      0.00000000</v>
   <i name="OFIELD_Q6_NEAR">      0.00000000</i>
   <i name="OFIELD_Q6_FAR">      0.00000000</i>
   <i name="OFIELD_A">      0.00000000</i>
  </separator>
 </parameters>
 <atominfo>
  <atoms>     100 </atoms>
  <types>       3 </types>
  <array name="atoms" >
   <dimension dim="1">ion</dimension>
   <field type="string">element</field>
   <field type="int">atomtype</field>
   <set>
    <rc><c>C </c><c>   1</c></rc>
    <rc><c>C </c><c>   1</c></rc>
    <rc><c>C </c><c>   1</c></rc>
    <rc><c>C </c><c>   1</c></rc>
    <rc><c>C </c><c>   1</c></rc>
    <rc><c>C </c><c>   1</c></rc>
    <rc><c>C </c><c>   1</c></rc>
    <rc><c>C </c><c>   1</c></rc>
    <rc><c>C </c><c>   1</c></rc>
    <rc><c>C </c><c>   1</c></rc>
    <rc><c>C </c><c>   1</c></rc>
    <rc><c>C </c><c>   1</c></rc>
    <rc><c>C </c><c>   1</c></rc>
    <rc><c>C </c><c>   1</c></rc>
    <rc><c>C </c><c>   1</c></rc>
    <rc><c>C </c><c>   1</c></rc>
    <rc><c>C </c><c>   1</c></rc>
    <rc><c>C </c><c>   1</c></rc>
    <rc><c>C </c><c>   1</c></rc>
    <rc><c>C </c><c>   1</c></rc>
    <rc><c>C </c><c>   1</c></rc>
    <rc><c>C </c><c>   1</c></rc>
    <rc><c>C </c><c>   1</c></rc>
    <rc><c>C </c><c>   1</c></rc>
    <rc><c>C </c><c>   1</c></rc>
    <rc><c>C </c><c>   1</c></rc>
    <rc><c>C </c><c>   1</c></rc>
    <rc><c>C </c><c>   1</c></rc>
    <rc><c>C </c><c>   1</c></rc>
    <rc><c>C </c><c>   1</c></rc>
    <rc><c>C </c><c>   1</c></rc>
    <rc><c>C </c><c>   1</c></rc>
    <rc><c>C </c><c>   1</c></rc>
    <rc><c>C </c><c>   1</c></rc>
    <rc><c>C </c><c>   1</c></rc>
    <rc><c>C </c><c>   1</c></rc>
    <rc><c>C </c><c>   1</c></rc>
    <rc><c>C </c><c>   1</c></rc>
    <rc><c>C </c><c>   1</c></rc>
    <rc><c>C </c><c>   1</c></rc>
    <rc><c>C </c><c>   1</c></rc>
    <rc><c>C </c><c>   1</c></rc>
    <rc><c>C </c><c>   1</c></rc>
    <rc><c>C </c><c>   1</c></rc>
    <rc><c>Ge</c><c>   2</c></rc>
    <rc><c>Ge</c><c>   2</c></rc>
    <rc><c>H </c><c>   3</c></rc>
    <rc><c>H </c><c>   3</c></rc>
    <rc><c>H </c><c>   3</c></rc>
    <rc><c>H </c><c>   3</c></rc>
    <rc><c>H </c><c>   3</c></rc>
    <rc><c>H </c><c>   3</c></rc>
    <rc><c>H </c><c>   3</c></rc>
    <rc><c>H </c><c>   3</c></rc>
    <rc><c>H </c><c>   3</c></rc>
    <rc><c>H </c><c>   3</c></rc>
    <rc><c>H </c><c>   3</c></rc>
    <rc><c>H </c><c>   3</c></rc>
    <rc><c>H </c><c>   3</c></rc>
    <rc><c>H </c><c>   3</c></rc>
    <rc><c>H </c><c>   3</c></rc>
    <rc><c>H </c><c>   3</c></rc>
    <rc><c>H </c><c>   3</c></rc>
    <rc><c>H </c><c>   3</c></rc>
    <rc><c>H </c><c>   3</c></rc>
    <rc><c>H </c><c>   3</c></rc>
    <rc><c>H </c><c>   3</c></rc>
    <rc><c>H </c><c>   3</c></rc>
    <rc><c>H </c><c>   3</c></rc>
    <rc><c>H </c><c>   3</c></rc>
    <rc><c>H </c><c>   3</c></rc>
    <rc><c>H </c><c>   3</c></rc>
    <rc><c>H </c><c>   3</c></rc>
    <rc><c>H </c><c>   3</c></rc>
    <rc><c>H </c><c>   3</c></rc>
    <rc><c>H </c><c>   3</c></rc>
    <rc><c>H </c><c>   3</c></rc>
    <rc><c>H </c><c>   3</c></rc>
    <rc><c>H </c><c>   3</c></rc>
    <rc><c>H </c><c>   3</c></rc>
    <rc><c>H </c><c>   3</c></rc>
    <rc><c>H </c><c>   3</c></rc>
    <rc><c>H </c><c>   3</c></rc>
    <rc><c>H </c><c>   3</c></rc>
    <rc><c>H </c><c>   3</c></rc>
    <rc><c>H </c><c>   3</c></rc>
    <rc><c>H </c><c>   3</c></rc>
    <rc><c>H </c><c>   3</c></rc>
    <rc><c>H </c><c>   3</c></rc>
    <rc><c>H </c><c>   3</c></rc>
    <rc><c>H </c><c>   3</c></rc>
    <rc><c>H </c><c>   3</c></rc>
    <rc><c>H </c><c>   3</c></rc>
    <rc><c>H </c><c>   3</c></rc>
    <rc><c>H </c><c>   3</c></rc>
    <rc><c>H </c><c>   3</c></rc>
    <rc><c>H </c><c>   3</c></rc>
    <rc><c>H </c><c>   3</c></rc>
    <rc><c>H </c><c>   3</c></rc>
    <rc><c>H </c><c>   3</c></rc>
   </set>
  </array>
  <array name="atomtypes" >
   <dimension dim="1">type</dimension>
   <field type="int">atomspertype</field>
   <field type="string">element</field>
   <field>mass</field>
   <field>valence</field>
   <field type="string">pseudopotential</field>
   <set>
    <rc><c>  44</c><c>C </c><c>     12.01100000</c><c>      4.00000000</c><c>  PAW_PBE C 08Apr2002                   </c></rc>
    <rc><c>   2</c><c>Ge</c><c>     72.61000000</c><c>      4.00000000</c><c>  PAW_PBE Ge 05Jan2001                  </c></rc>
    <rc><c>  54</c><c>H </c><c>      1.00000000</c><c>      1.00000000</c><c>  PAW_PBE H 15Jun2001                   </c></rc>
   </set>
  </array>
 </atominfo>
 <structure name="initialpos" >
  <crystal>
   <varray name="basis" >
    <v>       8.19647610       0.00000000       0.00000000 </v>
    <v>       0.74820596      16.99460085       0.00000000 </v>
    <v>       0.99639806       1.71691701       7.51016516 </v>
   </varray>
   <i name="volume">   1046.13476195 </i>
   <varray name="rec_basis" >
    <v>       0.12200365      -0.00537134      -0.01495867 </v>
    <v>       0.00000000       0.05884222      -0.01345206 </v>
    <v>       0.00000000       0.00000000       0.13315286 </v>
   </varray>
  </crystal>
  <varray name="positions" >
   <v>       0.32100233       0.27455248       0.05432399 </v>
   <v>       0.98154968       0.18437121       0.13316121 </v>
   <v>       0.32524606       0.09116212       0.25726297 </v>
   <v>       0.27981285       0.14151502       0.82975134 </v>
   <v>       0.37558496       0.34208670       0.04149184 </v>
   <v>       0.90871082       0.25172012       0.99687448 </v>
   <v>       0.94619164       0.19893472       0.32171233 </v>
   <v>       0.25061266       0.00748618       0.28952664 </v>
   <v>       0.51253428       0.08876618       0.21598945 </v>
   <v>       0.15662137       0.08063559       0.80686202 </v>
   <v>       0.29314024       0.21501054       0.67374322 </v>
   <v>       0.43808196       0.42019052       0.02225022 </v>
   <v>       0.54285351       0.45526223       0.86464533 </v>
   <v>       0.39475928       0.46392574       0.15843345 </v>
   <v>       0.58661152       0.41336956       0.72816915 </v>
   <v>       0.60524072       0.53607426       0.84156655 </v>
   <v>       0.45714649       0.54473777       0.13535467 </v>
   <v>       0.29342009       0.43049809       0.31662667 </v>
   <v>       0.68631287       0.44695845       0.57184611 </v>
   <v>       0.56191804       0.57980948       0.97774978 </v>
   <v>       0.70657991       0.56950191       0.68337333 </v>
   <v>       0.41338848       0.58663044       0.27183085 </v>
   <v>       0.25189892       0.47227512       0.45163421 </v>
   <v>       0.72879241       0.40461896       0.43259775 </v>
   <v>       0.74810108       0.52772488       0.54836579 </v>
   <v>       0.62441504       0.65791330       0.95850816 </v>
   <v>       0.31368713       0.55304155       0.42815389 </v>
   <v>       0.14977641       0.43865987       0.61267748 </v>
   <v>       0.82632374       0.43943123       0.27979718 </v>
   <v>       0.85022359       0.56134013       0.38732252 </v>
   <v>       0.67899767       0.72544752       0.94567601 </v>
   <v>       0.27120759       0.59538104       0.56740225 </v>
   <v>       0.11211255       0.48130730       0.74282526 </v>
   <v>       0.88788745       0.51869270       0.25717474 </v>
   <v>       0.17367626       0.56056877       0.72020282 </v>
   <v>       0.01845032       0.81562879       0.86683879 </v>
   <v>       0.67475394       0.90883788       0.74273703 </v>
   <v>       0.72018715       0.85848498       0.17024866 </v>
   <v>       0.09128918       0.74827988       0.00312552 </v>
   <v>       0.05380836       0.80106528       0.67828767 </v>
   <v>       0.74938734       0.99251382       0.71047336 </v>
   <v>       0.48746572       0.91123382       0.78401055 </v>
   <v>       0.84337863       0.91936441       0.19313798 </v>
   <v>       0.70685976       0.78498946       0.32625678 </v>
   <v>       0.22436781       0.17135061       0.06690831 </v>
   <v>       0.77563219       0.82864939       0.93309169 </v>
   <v>       0.92837651       0.12625823       0.13068387 </v>
   <v>       0.29303191       0.11531704       0.37756604 </v>
   <v>       0.40181838       0.11180538       0.83724386 </v>
   <v>       0.77623428       0.26057755       0.03589549 </v>
   <v>       0.92253618       0.23894141       0.86321657 </v>
   <v>       0.96912640       0.30944206       0.98565268 </v>
   <v>       0.81267660       0.20523286       0.35923649 </v>
   <v>       0.00310797       0.25490969       0.33146688 </v>
   <v>       0.99190921       0.14929074       0.42184557 </v>
   <v>       0.30067298       0.96539067       0.40106229 </v>
   <v>       0.27890460       0.98093871       0.17218146 </v>
   <v>       0.11605544       0.00870983       0.32160430 </v>
   <v>       0.56837522       0.04760163       0.32467140 </v>
   <v>       0.56585594       0.14870543       0.19727169 </v>
   <v>       0.55119164       0.06663699       0.09410933 </v>
   <v>       0.19161928       0.06064328       0.68155059 </v>
   <v>       0.03229793       0.10747376       0.80118273 </v>
   <v>       0.14838440       0.02632028       0.91540947 </v>
   <v>       0.34134808       0.19767248       0.54825869 </v>
   <v>       0.37399484       0.26118175       0.69320600 </v>
   <v>       0.17205015       0.24380887       0.65484084 </v>
   <v>       0.53906774       0.35282433       0.74594415 </v>
   <v>       0.24675760       0.36982489       0.33312516 </v>
   <v>       0.75324240       0.63017511       0.66687484 </v>
   <v>       0.46093226       0.64717567       0.25405585 </v>
   <v>       0.68028321       0.34423724       0.44979623 </v>
   <v>       0.10131658       0.37837620       0.62963995 </v>
   <v>       0.85646522       0.40673115       0.17399994 </v>
   <v>       0.89868342       0.62162380       0.37036005 </v>
   <v>       0.31971679       0.65576276       0.55020377 </v>
   <v>       0.03372616       0.45495236       0.86476749 </v>
   <v>       0.96627384       0.54504764       0.13523251 </v>
   <v>       0.14353478       0.59326885       0.82600006 </v>
   <v>       0.07162349       0.87374177       0.86931613 </v>
   <v>       0.70696809       0.88468296       0.62243396 </v>
   <v>       0.59818162       0.88819462       0.16275614 </v>
   <v>       0.22376572       0.73942245       0.96410451 </v>
   <v>       0.07746382       0.76105859       0.13678343 </v>
   <v>       0.03087360       0.69055794       0.01434732 </v>
   <v>       0.18732340       0.79476714       0.64076351 </v>
   <v>       0.99689203       0.74509031       0.66853312 </v>
   <v>       0.00809079       0.85070926       0.57815443 </v>
   <v>       0.69932702       0.03460933       0.59893771 </v>
   <v>       0.72109540       0.01906129       0.82781854 </v>
   <v>       0.88394456       0.99129017       0.67839570 </v>
   <v>       0.43162478       0.95239837       0.67532860 </v>
   <v>       0.43414406       0.85129457       0.80272831 </v>
   <v>       0.44880836       0.93336301       0.90589067 </v>
   <v>       0.80838072       0.93935672       0.31844941 </v>
   <v>       0.96770207       0.89252624       0.19881727 </v>
   <v>       0.85161560       0.97367972       0.08459053 </v>
   <v>       0.65865192       0.80232752       0.45174131 </v>
   <v>       0.62600516       0.73881825       0.30679400 </v>
   <v>       0.82794985       0.75619113       0.34515916 </v>
  </varray>
 </structure>
 <calculation>
  <scstep>
   <time name="dav">  190.64  191.33</time>
   <time name="total">  190.69  191.38</time>
   <energy>
    <i name="alphaZ">    257.24646823 </i>
    <i name="ewald">  -1430.02610980 </i>
    <i name="hartreedc">  -5702.46010706 </i>
    <i name="XCdc">    738.23501662 </i>
    <i name="pawpsdc">  18805.13405445 </i>
    <i name="pawaedc"> -18807.94850851 </i>
    <i name="eentropy">     -0.01484596 </i>
    <i name="bandstr">     21.30255352 </i>
    <i name="atom">   7359.18108745 </i>
    <i name="e_fr_energy">   1240.64960895 </i>
    <i name="e_wo_entrp">   1240.66445491 </i>
    <i name="e_0_energy">   1240.65703193 </i>
   </energy>
  </scstep>
  <scstep>
   <time name="dav">  233.86  234.70</time>
   <time name="total">  233.88  234.72</time>
   <energy>
    <i name="e_fr_energy">   -443.67522064 </i>
    <i name="e_wo_entrp">   -443.67498965 </i>
    <i name="e_0_energy">   -443.67510515 </i>
   </energy>
  </scstep>
  <scstep>
   <time name="dav">  229.96  230.80</time>
   <time name="total">  229.98  230.81</time>
   <energy>
    <i name="e_fr_energy">   -598.36979035 </i>
    <i name="e_wo_entrp">   -598.36979035 </i>
    <i name="e_0_energy">   -598.36979035 </i>
   </energy>
  </scstep>
  <scstep>
   <time name="dav">  227.78  228.62</time>
   <time name="total">  227.80  228.64</time>
   <energy>
    <i name="e_fr_energy">   -601.52946770 </i>
    <i name="e_wo_entrp">   -601.52946770 </i>
    <i name="e_0_energy">   -601.52946770 </i>
   </energy>
  </scstep>
  <scstep>
   <time name="dav">  228.74  229.57</time>
   <time name="total">  228.75  229.59</time>
   <energy>
    <i name="e_fr_energy">   -601.60620793 </i>
    <i name="e_wo_entrp">   -601.60620793 </i>
    <i name="e_0_energy">   -601.60620793 </i>
   </energy>
  </scstep>
  <scstep>
   <time name="dav">  244.64  245.56</time>
   <time name="total">  244.65  245.58</time>
   <energy>
    <i name="e_fr_energy">   -601.60917621 </i>
    <i name="e_wo_entrp">   -601.60917621 </i>
    <i name="e_0_energy">   -601.60917621 </i>
   </energy>
  </scstep>
  <scstep>
   <time name="dav">  232.14  232.99</time>
   <time name="total">  232.16  233.01</time>
   <energy>
    <i name="e_fr_energy">   -601.60926404 </i>
    <i name="e_wo_entrp">   -601.60926404 </i>
    <i name="e_0_energy">   -601.60926404 </i>
   </energy>
  </scstep>
  <scstep>
   <time name="dav">  245.16  246.08</time>
   <time name="total">  245.17  246.09</time>
   <energy>
    <i name="e_fr_energy">   -601.60926781 </i>
    <i name="e_wo_entrp">   -601.60926781 </i>
    <i name="e_0_energy">   -601.60926781 </i>
   </energy>
  </scstep>
  <scstep>
   <time name="dav">  203.48  204.21</time>
   <time name="total">  203.49  204.23</time>
   <energy>
    <i name="alphaZ">    257.24646823 </i>
    <i name="ewald">  -1430.02610980 </i>
    <i name="hartreedc">  -5702.46010706 </i>
    <i name="XCdc">    738.23501662 </i>
    <i name="pawpsdc">  18805.13405445 </i>
    <i name="pawaedc"> -18807.94850851 </i>
    <i name="eentropy">     -0.00000000 </i>
    <i name="bandstr">  -1820.97116937 </i>
    <i name="atom">   7359.18108745 </i>
    <i name="e_fr_energy">   -601.60926798 </i>
    <i name="e_wo_entrp">   -601.60926798 </i>
    <i name="e_0_energy">   -601.60926798 </i>
   </energy>
  </scstep>
  <structure>
   <crystal>
    <varray name="basis" >
     <v>       8.19647610       0.00000000       0.00000000 </v>
     <v>       0.74820596      16.99460085       0.00000000 </v>
     <v>       0.99639806       1.71691701       7.51016516 </v>
    </varray>
    <i name="volume">   1046.13476195 </i>
    <varray name="rec_basis" >
     <v>       0.12200365      -0.00537134      -0.01495867 </v>
     <v>       0.00000000       0.05884222      -0.01345206 </v>
     <v>       0.00000000       0.00000000       0.13315286 </v>
    </varray>
   </crystal>
   <varray name="positions" >
    <v>       0.32100233       0.27455248       0.05432399 </v>
    <v>       0.98154968       0.18437121       0.13316121 </v>
    <v>       0.32524606       0.09116212       0.25726297 </v>
    <v>       0.27981285       0.14151502       0.82975134 </v>
    <v>       0.37558496       0.34208670       0.04149184 </v>
    <v>       0.90871082       0.25172012       0.99687448 </v>
    <v>       0.94619164       0.19893472       0.32171233 </v>
    <v>       0.25061266       0.00748618       0.28952664 </v>
    <v>       0.51253428       0.08876618       0.21598945 </v>
    <v>       0.15662137       0.08063559       0.80686202 </v>
    <v>       0.29314024       0.21501054       0.67374322 </v>
    <v>       0.43808196       0.42019052       0.02225022 </v>
    <v>       0.54285351       0.45526223       0.86464533 </v>
    <v>       0.39475928       0.46392574       0.15843345 </v>
    <v>       0.58661152       0.41336956       0.72816915 </v>
    <v>       0.60524072       0.53607426       0.84156655 </v>
    <v>       0.45714649       0.54473777       0.13535467 </v>
    <v>       0.29342009       0.43049809       0.31662667 </v>
    <v>       0.68631287       0.44695845       0.57184611 </v>
    <v>       0.56191804       0.57980948       0.97774978 </v>
    <v>       0.70657991       0.56950191       0.68337333 </v>
    <v>       0.41338848       0.58663044       0.27183085 </v>
    <v>       0.25189892       0.47227512       0.45163421 </v>
    <v>       0.72879241       0.40461896       0.43259775 </v>
    <v>       0.74810108       0.52772488       0.54836579 </v>
    <v>       0.62441504       0.65791330       0.95850816 </v>
    <v>       0.31368713       0.55304155       0.42815389 </v>
    <v>       0.14977641       0.43865987       0.61267748 </v>
    <v>       0.82632374       0.43943123       0.27979718 </v>
    <v>       0.85022359       0.56134013       0.38732252 </v>
    <v>       0.67899767       0.72544752       0.94567601 </v>
    <v>       0.27120759       0.59538104       0.56740225 </v>
    <v>       0.11211255       0.48130730       0.74282526 </v>
    <v>       0.88788745       0.51869270       0.25717474 </v>
    <v>       0.17367626       0.56056877       0.72020282 </v>
    <v>       0.01845032       0.81562879       0.86683879 </v>
    <v>       0.67475394       0.90883788       0.74273703 </v>
    <v>       0.72018715       0.85848498       0.17024866 </v>
    <v>       0.09128918       0.74827988       0.00312552 </v>
    <v>       0.05380836       0.80106528       0.67828767 </v>
    <v>       0.74938734       0.99251382       0.71047336 </v>
    <v>       0.48746572       0.91123382       0.78401055 </v>
    <v>       0.84337863       0.91936441       0.19313798 </v>
    <v>       0.70685976       0.78498946       0.32625678 </v>
    <v>       0.22436781       0.17135061       0.06690831 </v>
    <v>       0.77563219       0.82864939       0.93309169 </v>
    <v>       0.92837651       0.12625823       0.13068387 </v>
    <v>       0.29303191       0.11531704       0.37756604 </v>
    <v>       0.40181838       0.11180538       0.83724386 </v>
    <v>       0.77623428       0.26057755       0.03589549 </v>
    <v>       0.92253618       0.23894141       0.86321657 </v>
    <v>       0.96912640       0.30944206       0.98565268 </v>
    <v>       0.81267660       0.20523286       0.35923649 </v>
    <v>       0.00310797       0.25490969       0.33146688 </v>
    <v>       0.99190921       0.14929074       0.42184557 </v>
    <v>       0.30067298       0.96539067       0.40106229 </v>
    <v>       0.27890460       0.98093871       0.17218146 </v>
    <v>       0.11605544       0.00870983       0.32160430 </v>
    <v>       0.56837522       0.04760163       0.32467140 </v>
    <v>       0.56585594       0.14870543       0.19727169 </v>
    <v>       0.55119164       0.06663699       0.09410933 </v>
    <v>       0.19161928       0.06064328       0.68155059 </v>
    <v>       0.03229793       0.10747376       0.80118273 </v>
    <v>       0.14838440       0.02632028       0.91540947 </v>
    <v>       0.34134808       0.19767248       0.54825869 </v>
    <v>       0.37399484       0.26118175       0.69320600 </v>
    <v>       0.17205015       0.24380887       0.65484084 </v>
    <v>       0.53906774       0.35282433       0.74594415 </v>
    <v>       0.24675760       0.36982489       0.33312516 </v>
    <v>       0.75324240       0.63017511       0.66687484 </v>
    <v>       0.46093226       0.64717567       0.25405585 </v>
    <v>       0.68028321       0.34423724       0.44979623 </v>
    <v>       0.10131658       0.37837620       0.62963995 </v>
    <v>       0.85646522       0.40673115       0.17399994 </v>
    <v>       0.89868342       0.62162380       0.37036005 </v>
    <v>       0.31971679       0.65576276       0.55020377 </v>
    <v>       0.03372616       0.45495236       0.86476749 </v>
    <v>       0.96627384       0.54504764       0.13523251 </v>
    <v>       0.14353478       0.59326885       0.82600006 </v>
    <v>       0.07162349       0.87374177       0.86931613 </v>
    <v>       0.70696809       0.88468296       0.62243396 </v>
    <v>       0.59818162       0.88819462       0.16275614 </v>
    <v>       0.22376572       0.73942245       0.96410451 </v>
    <v>       0.07746382       0.76105859       0.13678343 </v>
    <v>       0.03087360       0.69055794       0.01434732 </v>
    <v>       0.18732340       0.79476714       0.64076351 </v>
    <v>       0.99689203       0.74509031       0.66853312 </v>
    <v>       0.00809079       0.85070926       0.57815443 </v>
    <v>       0.69932702       0.03460933       0.59893771 </v>
    <v>       0.72109540       0.01906129       0.82781854 </v>
    <v>       0.88394456       0.99129017       0.67839570 </v>
    <v>       0.43162478       0.95239837       0.67532860 </v>
    <v>       0.43414406       0.85129457       0.80272831 </v>
    <v>       0.44880836       0.93336301       0.90589067 </v>
    <v>       0.80838072       0.93935672       0.31844941 </v>
    <v>       0.96770207       0.89252624       0.19881727 </v>
    <v>       0.85161560       0.97367972       0.08459053 </v>
    <v>       0.65865192       0.80232752       0.45174131 </v>
    <v>       0.62600516       0.73881825       0.30679400 </v>
    <v>       0.82794985       0.75619113       0.34515916 </v>
   </varray>
  </structure>
  <varray name="forces" >
   <v>      -0.01913110      -0.02557747       0.01024792 </v>
   <v>      -0.02195352       0.00454022       0.02431702 </v>
   <v>      -0.02480490       0.01581818      -0.05662622 </v>
   <v>      -0.01683537      -0.03602815      -0.01042930 </v>
   <v>       0.03452972       0.05592697      -0.00150632 </v>
   <v>      -0.00972983      -0.00076632      -0.00357427 </v>
   <v>       0.02649053      -0.01872655      -0.01532522 </v>
   <v>      -0.00656542      -0.02444968       0.00139592 </v>
   <v>       0.02171061       0.01260907      -0.00329516 </v>
   <v>       0.04174364       0.05121936       0.01065877 </v>
   <v>      -0.01138502      -0.00585154       0.03946280 </v>
   <v>      -0.04727063       0.03729466       0.15952265 </v>
   <v>       0.01727002       0.03806338      -0.09920859 </v>
   <v>       0.08065374      -0.03727307      -0.17615852 </v>
   <v>      -0.00774439       0.02491473       0.12252746 </v>
   <v>      -0.08065374       0.03727307       0.17615852 </v>
   <v>      -0.01727002      -0.03806338       0.09920859 </v>
   <v>      -0.07573241       0.03328723       0.10433394 </v>
   <v>       0.01352938       0.03986882      -0.02929960 </v>
   <v>       0.04727063      -0.03729466      -0.15952265 </v>
   <v>       0.07573241      -0.03328723      -0.10433394 </v>
   <v>       0.00774439      -0.02491473      -0.12252746 </v>
   <v>       0.01378368      -0.00845116      -0.09622860 </v>
   <v>      -0.00479351       0.00575454       0.03397482 </v>
   <v>      -0.01378368       0.00845116       0.09622860 </v>
   <v>      -0.03452972      -0.05592697       0.00150632 </v>
   <v>      -0.01352938      -0.03986882       0.02929960 </v>
   <v>      -0.03331611       0.01606902       0.03567435 </v>
   <v>      -0.01455646       0.03786062       0.01587944 </v>
   <v>       0.03331611      -0.01606902      -0.03567435 </v>
   <v>       0.01913110       0.02557747      -0.01024792 </v>
   <v>       0.00479351      -0.00575454      -0.03397482 </v>
   <v>      -0.01217869      -0.01959049      -0.01707581 </v>
   <v>       0.01217869       0.01959049       0.01707581 </v>
   <v>       0.01455646      -0.03786062      -0.01587944 </v>
   <v>       0.02195352      -0.00454022      -0.02431702 </v>
   <v>       0.02480490      -0.01581818       0.05662622 </v>
   <v>       0.01683537       0.03602815       0.01042930 </v>
   <v>       0.00972983       0.00076632       0.00357427 </v>
   <v>      -0.02649053       0.01872655       0.01532522 </v>
   <v>       0.00656542       0.02444968      -0.00139592 </v>
   <v>      -0.02171061      -0.01260907       0.00329516 </v>
   <v>      -0.04174364      -0.05121936      -0.01065877 </v>
   <v>       0.01138502       0.00585154      -0.03946280 </v>
   <v>       0.01524199      -0.04628664      -0.03415263 </v>
   <v>      -0.01524199       0.04628664       0.03415263 </v>
   <v>       0.00101521      -0.00234713      -0.00055868 </v>
   <v>      -0.01386635       0.05858633       0.05197626 </v>
   <v>       0.00297463       0.00121288      -0.00196690 </v>
   <v>       0.00242143      -0.00727870       0.00009137 </v>
   <v>       0.00004940       0.01108965       0.02628350 </v>
   <v>      -0.00557863      -0.00739385       0.00124183 </v>
   <v>       0.00427934       0.00324152      -0.00013073 </v>
   <v>      -0.00175048      -0.00111251      -0.00236745 </v>
   <v>      -0.00405892       0.00524372      -0.00447911 </v>
   <v>      -0.00425571       0.00066009      -0.00460361 </v>
   <v>      -0.00208134       0.00951211       0.00502605 </v>
   <v>      -0.00012466       0.00042165       0.00031560 </v>
   <v>       0.00196028       0.00756675      -0.00050135 </v>
   <v>       0.00130428       0.00505955       0.00086641 </v>
   <v>      -0.00624306       0.00285104       0.00396677 </v>
   <v>       0.01487148       0.00852149      -0.03608745 </v>
   <v>      -0.00411709       0.00161356      -0.00205734 </v>
   <v>      -0.00029982      -0.00492908       0.00154795 </v>
   <v>      -0.00030248      -0.04384554      -0.00446196 </v>
   <v>       0.00474901       0.00212889       0.00031620 </v>
   <v>      -0.00705079       0.00170897       0.00337225 </v>
   <v>      -0.00058864       0.00836775      -0.00007830 </v>
   <v>      -0.00002027       0.00127874       0.00671534 </v>
   <v>       0.00002027      -0.00127874      -0.00671534 </v>
   <v>       0.00058864      -0.00836775       0.00007830 </v>
   <v>      -0.00352047       0.00680272      -0.00100636 </v>
   <v>      -0.00159223      -0.00020011       0.00315073 </v>
   <v>      -0.00281903      -0.00374126      -0.01066939 </v>
   <v>       0.00159223       0.00020011      -0.00315073 </v>
   <v>       0.00352047      -0.00680272       0.00100636 </v>
   <v>      -0.00102765      -0.00059559       0.00031756 </v>
   <v>       0.00102765       0.00059559      -0.00031756 </v>
   <v>       0.00281903       0.00374126       0.01066939 </v>
   <v>      -0.00101521       0.00234713       0.00055868 </v>
   <v>       0.01386635      -0.05858633      -0.05197626 </v>
   <v>      -0.00297463      -0.00121288       0.00196690 </v>
   <v>      -0.00242143       0.00727870      -0.00009137 </v>
   <v>      -0.00004940      -0.01108965      -0.02628350 </v>
   <v>       0.00557863       0.00739385      -0.00124183 </v>
   <v>      -0.00427934      -0.00324152       0.00013073 </v>
   <v>       0.00175048       0.00111251       0.00236745 </v>
   <v>       0.00405892      -0.00524372       0.00447911 </v>
   <v>       0.00425571      -0.00066009       0.00460361 </v>
   <v>       0.00208134      -0.00951211      -0.00502605 </v>
   <v>       0.00012466      -0.00042165      -0.00031560 </v>
   <v>      -0.00196028      -0.00756675       0.00050135 </v>
   <v>      -0.00130428      -0.00505955      -0.00086641 </v>
   <v>       0.00624306      -0.00285104      -0.00396677 </v>
   <v>      -0.01487148      -0.00852149       0.03608745 </v>
   <v>       0.00411709      -0.00161356       0.00205734 </v>
   <v>       0.00029982       0.00492908      -0.00154795 </v>
   <v>       0.00030248       0.04384554       0.00446196 </v>
   <v>      -0.00474901      -0.00212889      -0.00031620 </v>
   <v>       0.00705079      -0.00170897      -0.00337225 </v>
  </varray>
  <varray name="stress" >
   <v>      -3.73123166       0.33579523       0.68497697 </v>
   <v>       0.33579522      -6.22614869      -0.33404075 </v>
   <v>       0.68497703      -0.33404070      -3.25228416 </v>
  </varray>
  <energy>
   <i name="e_fr_energy">   -607.92892794 </i>
   <i name="e_wo_entrp">   -607.92892794 </i>
   <i name="e_0_energy">     -0.00000000 </i>
  </energy>
  <time name="totalsc"> 2360.07 2371.07</time>
  <eigenvalues>
   <array>
    <dimension dim="1">band</dimension>
    <dimension dim="2">kpoint</dimension>
    <dimension dim="3">spin</dimension>
    <field>eigene</field>
    <field>occ</field>
    <set>
     <set comment="spin 1">
      <set comment="kpoint 1">
       <r>  -17.9652    1.0000 </r>
       <r>  -17.3940    1.0000 </r>
       <r>  -16.8619    1.0000 </r>
       <r>  -16.0907    1.0000 </r>
       <r>  -16.0385    1.0000 </r>
       <r>  -15.6066    1.0000 </r>
       <r>  -15.5859    1.0000 </r>
       <r>  -15.2265    1.0000 </r>
       <r>  -15.2182    1.0000 </r>
       <r>  -15.1630    1.0000 </r>
       <r>  -15.1410    1.0000 </r>
       <r>  -15.1378    1.0000 </r>
       <r>  -14.8747    1.0000 </r>
       <r>  -14.6247    1.0000 </r>
       <r>  -14.1120    1.0000 </r>
       <r>  -13.9405    1.0000 </r>
       <r>  -13.5731    1.0000 </r>
       <r>  -13.5456    1.0000 </r>
       <r>  -12.9790    1.0000 </r>
       <r>  -12.8500    1.0000 </r>
       <r>  -12.7843    1.0000 </r>
       <r>  -12.7601    1.0000 </r>
       <r>  -12.6906    1.0000 </r>
       <r>  -12.6874    1.0000 </r>
       <r>  -12.5943    1.0000 </r>
       <r>  -12.2578    1.0000 </r>
       <r>  -11.3028    1.0000 </r>
       <r>  -11.0524    1.0000 </r>
       <r>  -10.9481    1.0000 </r>
       <r>  -10.8709    1.0000 </r>
       <r>  -10.7074    1.0000 </r>
       <r>  -10.3157    1.0000 </r>
       <r>  -10.2864    1.0000 </r>
       <r>  -10.1477    1.0000 </r>
       <r>  -10.0530    1.0000 </r>
       <r>   -9.9202    1.0000 </r>
       <r>   -9.8853    1.0000 </r>
       <r>   -9.8680    1.0000 </r>
       <r>   -8.7922    1.0000 </r>
       <r>   -8.7261    1.0000 </r>
       <r>   -8.6238    1.0000 </r>
       <r>   -8.4271    1.0000 </r>
       <r>   -8.3609    1.0000 </r>
       <r>   -7.9834    1.0000 </r>
       <r>   -7.9358    1.0000 </r>
       <r>   -7.4862    1.0000 </r>
       <r>   -7.2986    1.0000 </r>
       <r>   -7.1805    1.0000 </r>
       <r>   -7.1357    1.0000 </r>
       <r>   -7.1038    1.0000 </r>
       <r>   -6.9230    1.0000 </r>
       <r>   -6.8952    1.0000 </r>
       <r>   -6.8090    1.0000 </r>
       <r>   -6.8005    1.0000 </r>
       <r>   -6.5940    1.0000 </r>
       <r>   -6.4755    1.0000 </r>
       <r>   -6.4202    1.0000 </r>
       <r>   -6.3513    1.0000 </r>
       <r>   -6.2856    1.0000 </r>
       <r>   -6.2700    1.0000 </r>
       <r>   -6.1906    1.0000 </r>
       <r>   -6.1304    1.0000 </r>
       <r>   -6.1264    1.0000 </r>
       <r>   -5.9698    1.0000 </r>
       <r>   -5.8990    1.0000 </r>
       <r>   -5.8750    1.0000 </r>
       <r>   -5.8608    1.0000 </r>
       <r>   -5.8051    1.0000 </r>
       <r>   -5.7536    1.0000 </r>
       <r>   -5.6661    1.0000 </r>
       <r>   -5.6268    1.0000 </r>
       <r>   -5.5830    1.0000 </r>
       <r>   -5.5455    1.0000 </r>
       <r>   -5.5077    1.0000 </r>
       <r>   -5.4543    1.0000 </r>
       <r>   -5.4280    1.0000 </r>
       <r>   -5.4164    1.0000 </r>
       <r>   -5.2151    1.0000 </r>
       <r>   -5.2022    1.0000 </r>
       <r>   -5.1273    1.0000 </r>
       <r>   -5.1068    1.0000 </r>
       <r>   -5.0596    1.0000 </r>
       <r>   -5.0549    1.0000 </r>
       <r>   -4.7942    1.0000 </r>
       <r>   -4.4430    1.0000 </r>
       <r>   -4.3840    1.0000 </r>
       <r>   -4.3615    1.0000 </r>
       <r>   -4.3147    1.0000 </r>
       <r>   -4.2540    1.0000 </r>
       <r>   -4.2417    1.0000 </r>
       <r>   -4.1798    1.0000 </r>
       <r>   -4.1601    1.0000 </r>
       <r>   -4.1455    1.0000 </r>
       <r>   -4.1373    1.0000 </r>
       <r>   -4.1005    1.0000 </r>
       <r>   -4.0407    1.0000 </r>
       <r>   -4.0314    1.0000 </r>
       <r>   -4.0202    1.0000 </r>
       <r>   -4.0031    1.0000 </r>
       <r>   -3.7594    1.0000 </r>
       <r>   -3.6008    1.0000 </r>
       <r>   -3.5576    1.0000 </r>
       <r>   -3.5494    1.0000 </r>
       <r>   -3.5402    1.0000 </r>
       <r>   -3.4445    1.0000 </r>
       <r>   -3.0558    1.0000 </r>
       <r>   -2.9903    1.0000 </r>
       <r>   -2.6736    1.0000 </r>
       <r>   -2.6152    1.0000 </r>
       <r>   -2.6126    1.0000 </r>
       <r>   -2.2286    1.0000 </r>
       <r>   -2.2050    1.0000 </r>
       <r>   -2.0137    1.0000 </r>
       <r>   -1.9883    1.0000 </r>
       <r>   -1.9110    1.0000 </r>
       <r>   -1.8109    1.0000 </r>
       <r>   -1.5446    1.0000 </r>
       <r>   -1.0584    1.0000 </r>
       <r>   -0.1007    1.0000 </r>
       <r>    0.5641    0.0000 </r>
       <r>    2.5212    0.0000 </r>
       <r>    2.5755    0.0000 </r>
       <r>    2.8292    0.0000 </r>
       <r>    3.2592    0.0000 </r>
       <r>    3.3086    0.0000 </r>
       <r>    3.4703    0.0000 </r>
       <r>    3.6152    0.0000 </r>
       <r>    3.7723    0.0000 </r>
       <r>    3.8074    0.0000 </r>
       <r>    3.8521    0.0000 </r>
       <r>    4.0797    0.0000 </r>
       <r>    4.0936    0.0000 </r>
       <r>    4.3695    0.0000 </r>
       <r>    4.3756    0.0000 </r>
       <r>    4.6903    0.0000 </r>
       <r>    4.7198    0.0000 </r>
       <r>    4.7503    0.0000 </r>
       <r>    4.8121    0.0000 </r>
       <r>    4.8900    0.0000 </r>
       <r>    5.1408    0.0000 </r>
       <r>    5.2472    0.0000 </r>
       <r>    5.2770    0.0000 </r>
       <r>    5.2828    0.0000 </r>
       <r>    5.4129    0.0000 </r>
       <r>    5.4453    0.0000 </r>
       <r>    5.4739    0.0000 </r>
       <r>    5.5901    0.0000 </r>
       <r>    5.6502    0.0000 </r>
       <r>    5.8597    0.0000 </r>
       <r>    5.8823    0.0000 </r>
       <r>    5.9240    0.0000 </r>
       <r>    5.9837    0.0000 </r>
       <r>    6.0106    0.0000 </r>
       <r>    6.1453    0.0000 </r>
       <r>    6.3063    0.0000 </r>
       <r>    6.3190    0.0000 </r>
       <r>    6.3760    0.0000 </r>
       <r>    6.3853    0.0000 </r>
       <r>    6.4272    0.0000 </r>
       <r>    6.5621    0.0000 </r>
       <r>    6.5857    0.0000 </r>
       <r>    6.6206    0.0000 </r>
       <r>    6.7082    0.0000 </r>
       <r>    6.8218    0.0000 </r>
       <r>    6.9981    0.0000 </r>
       <r>    7.0712    0.0000 </r>
       <r>    7.1086    0.0000 </r>
       <r>    7.2059    0.0000 </r>
       <r>    7.2199    0.0000 </r>
       <r>    7.2620    0.0000 </r>
       <r>    7.3645    0.0000 </r>
       <r>    7.3691    0.0000 </r>
       <r>    7.4292    0.0000 </r>
       <r>    7.5244    0.0000 </r>
      </set>
      <set comment="kpoint 2">
       <r>  -17.9653    1.0000 </r>
       <r>  -17.3935    1.0000 </r>
       <r>  -16.8624    1.0000 </r>
       <r>  -16.0905    1.0000 </r>
       <r>  -16.0386    1.0000 </r>
       <r>  -15.6073    1.0000 </r>
       <r>  -15.5855    1.0000 </r>
       <r>  -15.2262    1.0000 </r>
       <r>  -15.2182    1.0000 </r>
       <r>  -15.1628    1.0000 </r>
       <r>  -15.1409    1.0000 </r>
       <r>  -15.1376    1.0000 </r>
       <r>  -14.8748    1.0000 </r>
       <r>  -14.6245    1.0000 </r>
       <r>  -14.1120    1.0000 </r>
       <r>  -13.9406    1.0000 </r>
       <r>  -13.5731    1.0000 </r>
       <r>  -13.5456    1.0000 </r>
       <r>  -12.9787    1.0000 </r>
       <r>  -12.8502    1.0000 </r>
       <r>  -12.7845    1.0000 </r>
       <r>  -12.7601    1.0000 </r>
       <r>  -12.6905    1.0000 </r>
       <r>  -12.6873    1.0000 </r>
       <r>  -12.5944    1.0000 </r>
       <r>  -12.2581    1.0000 </r>
       <r>  -11.3032    1.0000 </r>
       <r>  -11.0521    1.0000 </r>
       <r>  -10.9473    1.0000 </r>
       <r>  -10.8706    1.0000 </r>
       <r>  -10.7076    1.0000 </r>
       <r>  -10.3158    1.0000 </r>
       <r>  -10.2863    1.0000 </r>
       <r>  -10.1474    1.0000 </r>
       <r>  -10.0532    1.0000 </r>
       <r>   -9.9204    1.0000 </r>
       <r>   -9.8868    1.0000 </r>
       <r>   -9.8670    1.0000 </r>
       <r>   -8.7918    1.0000 </r>
       <r>   -8.7266    1.0000 </r>
       <r>   -8.6238    1.0000 </r>
       <r>   -8.4267    1.0000 </r>
       <r>   -8.3610    1.0000 </r>
       <r>   -7.9835    1.0000 </r>
       <r>   -7.9361    1.0000 </r>
       <r>   -7.4848    1.0000 </r>
       <r>   -7.2986    1.0000 </r>
       <r>   -7.1794    1.0000 </r>
       <r>   -7.1358    1.0000 </r>
       <r>   -7.1036    1.0000 </r>
       <r>   -6.9239    1.0000 </r>
       <r>   -6.8956    1.0000 </r>
       <r>   -6.8094    1.0000 </r>
       <r>   -6.8004    1.0000 </r>
       <r>   -6.5943    1.0000 </r>
       <r>   -6.4756    1.0000 </r>
       <r>   -6.4199    1.0000 </r>
       <r>   -6.3527    1.0000 </r>
       <r>   -6.2857    1.0000 </r>
       <r>   -6.2702    1.0000 </r>
       <r>   -6.1899    1.0000 </r>
       <r>   -6.1323    1.0000 </r>
       <r>   -6.1257    1.0000 </r>
       <r>   -5.9694    1.0000 </r>
       <r>   -5.8997    1.0000 </r>
       <r>   -5.8752    1.0000 </r>
       <r>   -5.8615    1.0000 </r>
       <r>   -5.8048    1.0000 </r>
       <r>   -5.7536    1.0000 </r>
       <r>   -5.6651    1.0000 </r>
       <r>   -5.6267    1.0000 </r>
       <r>   -5.5829    1.0000 </r>
       <r>   -5.5458    1.0000 </r>
       <r>   -5.5120    1.0000 </r>
       <r>   -5.4536    1.0000 </r>
       <r>   -5.4295    1.0000 </r>
       <r>   -5.4149    1.0000 </r>
       <r>   -5.2157    1.0000 </r>
       <r>   -5.2006    1.0000 </r>
       <r>   -5.1273    1.0000 </r>
       <r>   -5.1011    1.0000 </r>
       <r>   -5.0601    1.0000 </r>
       <r>   -5.0533    1.0000 </r>
       <r>   -4.7936    1.0000 </r>
       <r>   -4.4436    1.0000 </r>
       <r>   -4.3846    1.0000 </r>
       <r>   -4.3606    1.0000 </r>
       <r>   -4.3144    1.0000 </r>
       <r>   -4.2541    1.0000 </r>
       <r>   -4.2415    1.0000 </r>
       <r>   -4.1810    1.0000 </r>
       <r>   -4.1598    1.0000 </r>
       <r>   -4.1455    1.0000 </r>
       <r>   -4.1378    1.0000 </r>
       <r>   -4.1008    1.0000 </r>
       <r>   -4.0427    1.0000 </r>
       <r>   -4.0294    1.0000 </r>
       <r>   -4.0198    1.0000 </r>
       <r>   -4.0029    1.0000 </r>
       <r>   -3.7587    1.0000 </r>
       <r>   -3.6021    1.0000 </r>
       <r>   -3.5567    1.0000 </r>
       <r>   -3.5503    1.0000 </r>
       <r>   -3.5388    1.0000 </r>
       <r>   -3.4450    1.0000 </r>
       <r>   -3.0553    1.0000 </r>
       <r>   -2.9899    1.0000 </r>
       <r>   -2.6734    1.0000 </r>
       <r>   -2.6158    1.0000 </r>
       <r>   -2.6129    1.0000 </r>
       <r>   -2.2290    1.0000 </r>
       <r>   -2.2082    1.0000 </r>
       <r>   -2.0134    1.0000 </r>
       <r>   -1.9867    1.0000 </r>
       <r>   -1.9112    1.0000 </r>
       <r>   -1.8118    1.0000 </r>
       <r>   -1.5449    1.0000 </r>
       <r>   -1.0578    1.0000 </r>
       <r>   -0.1004    1.0000 </r>
       <r>    0.5658    0.0000 </r>
       <r>    2.5171    0.0000 </r>
       <r>    2.5777    0.0000 </r>
       <r>    2.8284    0.0000 </r>
       <r>    3.2512    0.0000 </r>
       <r>    3.3174    0.0000 </r>
       <r>    3.4713    0.0000 </r>
       <r>    3.6154    0.0000 </r>
       <r>    3.7712    0.0000 </r>
       <r>    3.8059    0.0000 </r>
       <r>    3.8543    0.0000 </r>
       <r>    4.0540    0.0000 </r>
       <r>    4.1177    0.0000 </r>
       <r>    4.3581    0.0000 </r>
       <r>    4.3873    0.0000 </r>
       <r>    4.6894    0.0000 </r>
       <r>    4.7206    0.0000 </r>
       <r>    4.7457    0.0000 </r>
       <r>    4.8212    0.0000 </r>
       <r>    4.8906    0.0000 </r>
       <r>    5.1348    0.0000 </r>
       <r>    5.2490    0.0000 </r>
       <r>    5.2711    0.0000 </r>
       <r>    5.2869    0.0000 </r>
       <r>    5.4146    0.0000 </r>
       <r>    5.4456    0.0000 </r>
       <r>    5.4776    0.0000 </r>
       <r>    5.5891    0.0000 </r>
       <r>    5.6515    0.0000 </r>
       <r>    5.8537    0.0000 </r>
       <r>    5.8905    0.0000 </r>
       <r>    5.9186    0.0000 </r>
       <r>    5.9794    0.0000 </r>
       <r>    6.0174    0.0000 </r>
       <r>    6.1473    0.0000 </r>
       <r>    6.3008    0.0000 </r>
       <r>    6.3188    0.0000 </r>
       <r>    6.3585    0.0000 </r>
       <r>    6.4008    0.0000 </r>
       <r>    6.4270    0.0000 </r>
       <r>    6.5531    0.0000 </r>
       <r>    6.5879    0.0000 </r>
       <r>    6.6232    0.0000 </r>
       <r>    6.7106    0.0000 </r>
       <r>    6.8210    0.0000 </r>
       <r>    6.9953    0.0000 </r>
       <r>    7.0712    0.0000 </r>
       <r>    7.1104    0.0000 </r>
       <r>    7.1958    0.0000 </r>
       <r>    7.2198    0.0000 </r>
       <r>    7.2509    0.0000 </r>
       <r>    7.3628    0.0000 </r>
       <r>    7.3698    0.0000 </r>
       <r>    7.4334    0.0000 </r>
       <r>    7.4736    0.0000 </r>
      </set>
      <set comment="kpoint 3">
       <r>  -17.9657    1.0000 </r>
       <r>  -17.3920    1.0000 </r>
       <r>  -16.8640    1.0000 </r>
       <r>  -16.0900    1.0000 </r>
       <r>  -16.0390    1.0000 </r>
       <r>  -15.6090    1.0000 </r>
       <r>  -15.5844    1.0000 </r>
       <r>  -15.2257    1.0000 </r>
       <r>  -15.2181    1.0000 </r>
       <r>  -15.1623    1.0000 </r>
       <r>  -15.1407    1.0000 </r>
       <r>  -15.1372    1.0000 </r>
       <r>  -14.8753    1.0000 </r>
       <r>  -14.6241    1.0000 </r>
       <r>  -14.1119    1.0000 </r>
       <r>  -13.9410    1.0000 </r>
       <r>  -13.5730    1.0000 </r>
       <r>  -13.5454    1.0000 </r>
       <r>  -12.9777    1.0000 </r>
       <r>  -12.8509    1.0000 </r>
       <r>  -12.7850    1.0000 </r>
       <r>  -12.7603    1.0000 </r>
       <r>  -12.6905    1.0000 </r>
       <r>  -12.6871    1.0000 </r>
       <r>  -12.5949    1.0000 </r>
       <r>  -12.2592    1.0000 </r>
       <r>  -11.3042    1.0000 </r>
       <r>  -11.0515    1.0000 </r>
       <r>  -10.9448    1.0000 </r>
       <r>  -10.8698    1.0000 </r>
       <r>  -10.7083    1.0000 </r>
       <r>  -10.3161    1.0000 </r>
       <r>  -10.2863    1.0000 </r>
       <r>  -10.1467    1.0000 </r>
       <r>  -10.0540    1.0000 </r>
       <r>   -9.9210    1.0000 </r>
       <r>   -9.8905    1.0000 </r>
       <r>   -9.8647    1.0000 </r>
       <r>   -8.7905    1.0000 </r>
       <r>   -8.7282    1.0000 </r>
       <r>   -8.6238    1.0000 </r>
       <r>   -8.4255    1.0000 </r>
       <r>   -8.3612    1.0000 </r>
       <r>   -7.9839    1.0000 </r>
       <r>   -7.9369    1.0000 </r>
       <r>   -7.4807    1.0000 </r>
       <r>   -7.2987    1.0000 </r>
       <r>   -7.1761    1.0000 </r>
       <r>   -7.1360    1.0000 </r>
       <r>   -7.1030    1.0000 </r>
       <r>   -6.9265    1.0000 </r>
       <r>   -6.8965    1.0000 </r>
       <r>   -6.8105    1.0000 </r>
       <r>   -6.8000    1.0000 </r>
       <r>   -6.5951    1.0000 </r>
       <r>   -6.4761    1.0000 </r>
       <r>   -6.4191    1.0000 </r>
       <r>   -6.3567    1.0000 </r>
       <r>   -6.2859    1.0000 </r>
       <r>   -6.2711    1.0000 </r>
       <r>   -6.1879    1.0000 </r>
       <r>   -6.1367    1.0000 </r>
       <r>   -6.1250    1.0000 </r>
       <r>   -5.9684    1.0000 </r>
       <r>   -5.9017    1.0000 </r>
       <r>   -5.8760    1.0000 </r>
[...]
       <r>     5.2322    19.1429   282.4772 </r>
       <r>     5.2463    21.2084   282.7766 </r>
       <r>     5.2605    23.0956   283.1026 </r>
       <r>     5.2746    24.3528   283.4464 </r>
       <r>     5.2887    24.9506   283.7986 </r>
       <r>     5.3028    25.3093   284.1559 </r>
       <r>     5.3169    25.9728   284.5226 </r>
       <r>     5.3310    27.1635   284.9060 </r>
       <r>     5.3452    28.5944   285.3097 </r>
       <r>     5.3593    29.7018   285.7290 </r>
       <r>     5.3734    30.0828   286.1536 </r>
       <r>     5.3875    29.7595   286.5737 </r>
       <r>     5.4016    29.1028   286.9846 </r>
       <r>     5.4157    28.5901   287.3882 </r>
       <r>     5.4299    28.6354   287.7924 </r>
       <r>     5.4440    29.5212   288.2092 </r>
       <r>     5.4581    31.2993   288.6510 </r>
       <r>     5.4722    33.6476   289.1260 </r>
       <r>     5.4863    35.8563   289.6322 </r>
       <r>     5.5004    37.0940   290.1558 </r>
       <r>     5.5146    36.8430   290.6759 </r>
       <r>     5.5287    35.1989   291.1728 </r>
       <r>     5.5428    32.8078   291.6359 </r>
       <r>     5.5569    30.4918   292.0664 </r>
       <r>     5.5710    28.8266   292.4733 </r>
       <r>     5.5851    27.9132   292.8674 </r>
       <r>     5.5993    27.4349   293.2546 </r>
       <r>     5.6134    26.9352   293.6349 </r>
       <r>     5.6275    26.1495   294.0040 </r>
       <r>     5.6416    25.1868   294.3596 </r>
       <r>     5.6557    24.4388   294.7046 </r>
       <r>     5.6698    24.2807   295.0473 </r>
       <r>     5.6840    24.7837   295.3972 </r>
       <r>     5.6981    25.6434   295.7592 </r>
       <r>     5.7122    26.3519   296.1312 </r>
       <r>     5.7263    26.4694   296.5049 </r>
       <r>     5.7404    25.8281   296.8695 </r>
       <r>     5.7545    24.5984   297.2167 </r>
       <r>     5.7687    23.2286   297.5446 </r>
       <r>     5.7828    22.2723   297.8590 </r>
       <r>     5.7969    22.1317   298.1715 </r>
       <r>     5.8110    22.8422   298.4939 </r>
       <r>     5.8251    24.0591   298.8336 </r>
       <r>     5.8392    25.2864   299.1905 </r>
       <r>     5.8534    26.1877   299.5602 </r>
       <r>     5.8675    26.7484   299.9378 </r>
       <r>     5.8816    27.1981   300.3217 </r>
       <r>     5.8957    27.7985   300.7142 </r>
       <r>     5.9098    28.6818   301.1191 </r>
       <r>     5.9239    29.8200   301.5400 </r>
       <r>     5.9381    31.0623   301.9785 </r>
       <r>     5.9522    32.1573   302.4325 </r>
       <r>     5.9663    32.7779   302.8952 </r>
       <r>     5.9804    32.6261   303.3558 </r>
       <r>     5.9945    31.5968   303.8018 </r>
       <r>     6.0086    29.8734   304.2235 </r>
       <r>     6.0228    27.8735   304.6170 </r>
       <r>     6.0369    26.1040   304.9855 </r>
       <r>     6.0510    25.0163   305.3386 </r>
       <r>     6.0651    24.8796   305.6899 </r>
       <r>     6.0792    25.6736   306.0523 </r>
       <r>     6.0933    27.0590   306.4343 </r>
       <r>     6.1075    28.4888   306.8364 </r>
       <r>     6.1216    29.4359   307.2520 </r>
       <r>     6.1357    29.6305   307.6703 </r>
       <r>     6.1498    29.1984   308.0824 </r>
       <r>     6.1639    28.6260   308.4865 </r>
       <r>     6.1780    28.5267   308.8893 </r>
       <r>     6.1922    29.2959   309.3028 </r>
       <r>     6.2063    30.8485   309.7383 </r>
       <r>     6.2204    32.6261   310.1989 </r>
       <r>     6.2345    33.8852   310.6772 </r>
       <r>     6.2486    34.0843   311.1584 </r>
       <r>     6.2627    33.1448   311.6263 </r>
       <r>     6.2769    31.4631   312.0704 </r>
       <r>     6.2910    29.6921   312.4896 </r>
       <r>     6.3051    28.4152   312.8907 </r>
       <r>     6.3192    27.8899   313.2844 </r>
       <r>     6.3333    27.9997   313.6797 </r>
       <r>     6.3474    28.4115   314.0808 </r>
       <r>     6.3616    28.7969   314.4873 </r>
       <r>     6.3757    28.9646   314.8962 </r>
       <r>     6.3898    28.8620   315.3036 </r>
       <r>     6.4039    28.5105   315.7061 </r>
       <r>     6.4180    27.9606   316.1008 </r>
       <r>     6.4321    27.2892   316.4860 </r>
       <r>     6.4463    26.6057   316.8616 </r>
       <r>     6.4604    26.0315   317.2291 </r>
       <r>     6.4745    25.6540   317.5912 </r>
       <r>     6.4886    25.4831   317.9510 </r>
       <r>     6.5027    25.4431   318.3101 </r>
       <r>     6.5168    25.4153   318.6689 </r>
       <r>     6.5310    25.3172   319.0263 </r>
       <r>     6.5451    25.1562   319.3814 </r>
       <r>     6.5592    25.0039   319.7344 </r>
       <r>     6.5733    24.9157   320.0861 </r>
       <r>     6.5874    24.8859   320.4374 </r>
       <r>     6.6015    24.8783   320.7886 </r>
       <r>     6.6157    24.8678   321.1397 </r>
       <r>     6.6298    24.8157   321.4900 </r>
       <r>     6.6439    24.6170   321.8375 </r>
       <r>     6.6580    24.1246   322.1781 </r>
       <r>     6.6721    23.2765   322.5067 </r>
       <r>     6.6862    22.2099   322.8202 </r>
       <r>     6.7004    21.2397   323.1200 </r>
       <r>     6.7145    20.7089   323.4124 </r>
       <r>     6.7286    20.8230   323.7063 </r>
       <r>     6.7427    21.5613   324.0107 </r>
       <r>     6.7568    22.6861   324.3309 </r>
       <r>     6.7709    23.8407   324.6675 </r>
       <r>     6.7851    24.7157   325.0164 </r>
       <r>     6.7992    25.2136   325.3723 </r>
       <r>     6.8133    25.4905   325.7322 </r>
       <r>     6.8274    25.8080   326.0965 </r>
       <r>     6.8415    26.3059   326.4678 </r>
       <r>     6.8556    26.9139   326.8478 </r>
       <r>     6.8698    27.5016   327.2360 </r>
       <r>     6.8839    28.0935   327.6326 </r>
       <r>     6.8980    28.8731   328.0402 </r>
       <r>     6.9121    29.9299   328.4627 </r>
       <r>     6.9262    31.0363   328.9008 </r>
       <r>     6.9403    31.7533   329.3491 </r>
       <r>     6.9545    31.7980   329.7980 </r>
       <r>     6.9686    31.2912   330.2397 </r>
       <r>     6.9827    30.6136   330.6719 </r>
       <r>     6.9968    30.0247   331.0957 </r>
       <r>     7.0109    29.4272   331.5111 </r>
       <r>     7.0250    28.4845   331.9132 </r>
       <r>     7.0392    26.9469   332.2936 </r>
       <r>     7.0533    24.8862   332.6449 </r>
       <r>     7.0674    22.6686   332.9649 </r>
       <r>     7.0815    20.7292   333.2576 </r>
       <r>     7.0956    19.3398   333.5306 </r>
       <r>     7.1097    18.5379   333.7923 </r>
       <r>     7.1239    18.2456   334.0499 </r>
       <r>     7.1380    18.4610   334.3105 </r>
       <r>     7.1521    19.3487   334.5836 </r>
       <r>     7.1662    21.1334   334.8819 </r>
       <r>     7.1803    23.8590   335.2187 </r>
       <r>     7.1944    27.1945   335.6026 </r>
       <r>     7.2086    30.4624   336.0327 </r>
       <r>     7.2227    32.9180   336.4974 </r>
       <r>     7.2368    34.1230   336.9791 </r>
       <r>     7.2509    34.1592   337.4613 </r>
       <r>     7.2650    33.5367   337.9347 </r>
       <r>     7.2791    32.8771   338.3988 </r>
       <r>     7.2933    32.6004   338.8590 </r>
       <r>     7.3074    32.7979   339.3220 </r>
       <r>     7.3215    33.3050   339.7922 </r>
       <r>     7.3356    33.8573   340.2701 </r>
       <r>     7.3497    34.2101   340.7531 </r>
       <r>     7.3638    34.1821   341.2356 </r>
       <r>     7.3780    33.6766   341.7110 </r>
       <r>     7.3921    32.7329   342.1731 </r>
       <r>     7.4062    31.5660   342.6187 </r>
       <r>     7.4203    30.4961   343.0492 </r>
       <r>     7.4344    29.7661   343.4694 </r>
       <r>     7.4485    29.3964   343.8844 </r>
       <r>     7.4627    29.2050   344.2967 </r>
       <r>     7.4768    28.9452   344.7053 </r>
       <r>     7.4909    28.4196   345.1065 </r>
       <r>     7.5050    27.5045   345.4947 </r>
       <r>     7.5191    26.1404   345.8637 </r>
       <r>     7.5332    24.3461   346.2074 </r>
       <r>     7.5474    22.2362   346.5213 </r>
       <r>     7.5615    19.9831   346.8034 </r>
       <r>     7.5756    17.7242   347.0536 </r>
       <r>     7.5897    15.4932   347.2724 </r>
       <r>     7.6038    13.2447   347.4593 </r>
       <r>     7.6179    10.9486   347.6139 </r>
       <r>     7.6321     8.6621   347.7362 </r>
       <r>     7.6462     6.5174   347.8282 </r>
       <r>     7.6603     4.6498   347.8938 </r>
       <r>     7.6744     3.1388   347.9381 </r>
       <r>     7.6885     1.9953   347.9663 </r>
       <r>     7.7026     1.1842   347.9830 </r>
       <r>     7.7168     0.6486   347.9922 </r>
       <r>     7.7309     0.3235   347.9967 </r>
       <r>     7.7450     0.1452   347.9988 </r>
       <r>     7.7591     0.0580   347.9996 </r>
       <r>     7.7732     0.0204   347.9999 </r>
       <r>     7.7873     0.0063   348.0000 </r>
       <r>     7.8015     0.0017   348.0000 </r>
       <r>     7.8156     0.0004   348.0000 </r>
       <r>     7.8297     0.0001   348.0000 </r>
       <r>     7.8438     0.0000   348.0000 </r>
       <r>     7.8579     0.0000   348.0000 </r>
       <r>     7.8720     0.0000   348.0000 </r>
       <r>     7.8862     0.0000   348.0000 </r>
       <r>     7.9003     0.0000   348.0000 </r>
       <r>     7.9144     0.0000   348.0000 </r>
       <r>     7.9285     0.0000   348.0000 </r>
       <r>     7.9426     0.0000   348.0000 </r>
       <r>     7.9567     0.0000   348.0000 </r>
       <r>     7.9709     0.0000   348.0000 </r>
       <r>     7.9850     0.0000   348.0000 </r>
       <r>     7.9991     0.0000   348.0000 </r>
       <r>     8.0132     0.0000   348.0000 </r>
       <r>     8.0273     0.0000   348.0000 </r>
       <r>     8.0414     0.0000   348.0000 </r>
       <r>     8.0556     0.0000   348.0000 </r>
       <r>     8.0697     0.0000   348.0000 </r>
       <r>     8.0838     0.0000   348.0000 </r>
       <r>     8.0979     0.0000   348.0000 </r>
       <r>     8.1120     0.0000   348.0000 </r>
       <r>     8.1261     0.0000   348.0000 </r>
       <r>     8.1403     0.0000   348.0000 </r>
       <r>     8.1544     0.0000   348.0000 </r>
       <r>     8.1685     0.0000   348.0000 </r>
       <r>     8.1826     0.0000   348.0000 </r>
       <r>     8.1967     0.0000   348.0000 </r>
       <r>     8.2108     0.0000   348.0000 </r>
       <r>     8.2250     0.0000   348.0000 </r>
       <r>     8.2391     0.0000   348.0000 </r>
       <r>     8.2532     0.0000   348.0000 </r>
       <r>     8.2673     0.0000   348.0000 </r>
       <r>     8.2814     0.0000   348.0000 </r>
       <r>     8.2955     0.0000   348.0000 </r>
       <r>     8.3097     0.0000   348.0000 </r>
       <r>     8.3238     0.0000   348.0000 </r>
       <r>     8.3379     0.0000   348.0000 </r>
       <r>     8.3520     0.0000   348.0000 </r>
       <r>     8.3661     0.0000   348.0000 </r>
       <r>     8.3802     0.0000   348.0000 </r>
       <r>     8.3944     0.0000   348.0000 </r>
       <r>     8.4085     0.0000   348.0000 </r>
       <r>     8.4226     0.0000   348.0000 </r>
       <r>     8.4367     0.0000   348.0000 </r>
       <r>     8.4508     0.0000   348.0000 </r>
       <r>     8.4649     0.0000   348.0000 </r>
       <r>     8.4791     0.0000   348.0000 </r>
       <r>     8.4932     0.0000   348.0000 </r>
       <r>     8.5073     0.0000   348.0000 </r>
       <r>     8.5214     0.0000   348.0000 </r>
       <r>     8.5355     0.0000   348.0000 </r>
       <r>     8.5496     0.0000   348.0000 </r>
       <r>     8.5638     0.0000   348.0000 </r>
       <r>     8.5779     0.0000   348.0000 </r>
       <r>     8.5920     0.0000   348.0000 </r>
       <r>     8.6061     0.0000   348.0000 </r>
       <r>     8.6202     0.0000   348.0000 </r>
       <r>     8.6343     0.0000   348.0000 </r>
       <r>     8.6485     0.0000   348.0000 </r>
       <r>     8.6626     0.0000   348.0000 </r>
       <r>     8.6767     0.0000   348.0000 </r>
       <r>     8.6908     0.0000   348.0000 </r>
       <r>     8.7049     0.0000   348.0000 </r>
       <r>     8.7190     0.0000   348.0000 </r>
       <r>     8.7332     0.0000   348.0000 </r>
       <r>     8.7473     0.0000   348.0000 </r>
       <r>     8.7614     0.0000   348.0000 </r>
       <r>     8.7755     0.0000   348.0000 </r>
       <r>     8.7896     0.0000   348.0000 </r>
       <r>     8.8037     0.0000   348.0000 </r>
       <r>     8.8179     0.0000   348.0000 </r>
       <r>     8.8320     0.0000   348.0000 </r>
       <r>     8.8461     0.0000   348.0000 </r>
       <r>     8.8602     0.0000   348.0000 </r>
       <r>     8.8743     0.0000   348.0000 </r>
       <r>     8.8884     0.0000   348.0000 </r>
       <r>     8.9026     0.0000   348.0000 </r>
       <r>     8.9167     0.0000   348.0000 </r>
       <r>     8.9308     0.0000   348.0000 </r>
       <r>     8.9449     0.0000   348.0000 </r>
       <r>     8.9590     0.0000   348.0000 </r>
      </set>
     </set>
    </array>
   </total>
  </dos>
 </calculation>
 <structure name="finalpos" >
  <crystal>
   <varray name="basis" >
    <v>       8.19647610       0.00000000       0.00000000 </v>
    <v>       0.74820596      16.99460085       0.00000000 </v>
    <v>       0.99639806       1.71691701       7.51016516 </v>
   </varray>
   <i name="volume">   1046.13476195 </i>
   <varray name="rec_basis" >
    <v>       0.12200365      -0.00537134      -0.01495867 </v>
    <v>       0.00000000       0.05884222      -0.01345206 </v>
    <v>       0.00000000       0.00000000       0.13315286 </v>
   </varray>
  </crystal>
  <varray name="positions" >
   <v>       0.32100233       0.27455248       0.05432399 </v>
   <v>       0.98154968       0.18437121       0.13316121 </v>
   <v>       0.32524606       0.09116212       0.25726297 </v>
   <v>       0.27981285       0.14151502       0.82975134 </v>
   <v>       0.37558496       0.34208670       0.04149184 </v>
   <v>       0.90871082       0.25172012       0.99687448 </v>
   <v>       0.94619164       0.19893472       0.32171233 </v>
   <v>       0.25061266       0.00748618       0.28952664 </v>
   <v>       0.51253428       0.08876618       0.21598945 </v>
   <v>       0.15662137       0.08063559       0.80686202 </v>
   <v>       0.29314024       0.21501054       0.67374322 </v>
   <v>       0.43808196       0.42019052       0.02225022 </v>
   <v>       0.54285351       0.45526223       0.86464533 </v>
   <v>       0.39475928       0.46392574       0.15843345 </v>
   <v>       0.58661152       0.41336956       0.72816915 </v>
   <v>       0.60524072       0.53607426       0.84156655 </v>
   <v>       0.45714649       0.54473777       0.13535467 </v>
   <v>       0.29342009       0.43049809       0.31662667 </v>
   <v>       0.68631287       0.44695845       0.57184611 </v>
   <v>       0.56191804       0.57980948       0.97774978 </v>
   <v>       0.70657991       0.56950191       0.68337333 </v>
   <v>       0.41338848       0.58663044       0.27183085 </v>
   <v>       0.25189892       0.47227512       0.45163421 </v>
   <v>       0.72879241       0.40461896       0.43259775 </v>
   <v>       0.74810108       0.52772488       0.54836579 </v>
   <v>       0.62441504       0.65791330       0.95850816 </v>
   <v>       0.31368713       0.55304155       0.42815389 </v>
   <v>       0.14977641       0.43865987       0.61267748 </v>
   <v>       0.82632374       0.43943123       0.27979718 </v>
   <v>       0.85022359       0.56134013       0.38732252 </v>
   <v>       0.67899767       0.72544752       0.94567601 </v>
   <v>       0.27120759       0.59538104       0.56740225 </v>
   <v>       0.11211255       0.48130730       0.74282526 </v>
   <v>       0.88788745       0.51869270       0.25717474 </v>
   <v>       0.17367626       0.56056877       0.72020282 </v>
   <v>       0.01845032       0.81562879       0.86683879 </v>
   <v>       0.67475394       0.90883788       0.74273703 </v>
   <v>       0.72018715       0.85848498       0.17024866 </v>
   <v>       0.09128918       0.74827988       0.00312552 </v>
   <v>       0.05380836       0.80106528       0.67828767 </v>
   <v>       0.74938734       0.99251382       0.71047336 </v>
   <v>       0.48746572       0.91123382       0.78401055 </v>
   <v>       0.84337863       0.91936441       0.19313798 </v>
   <v>       0.70685976       0.78498946       0.32625678 </v>
   <v>       0.22436781       0.17135061       0.06690831 </v>
   <v>       0.77563219       0.82864939       0.93309169 </v>
   <v>       0.92837651       0.12625823       0.13068387 </v>
   <v>       0.29303191       0.11531704       0.37756604 </v>
   <v>       0.40181838       0.11180538       0.83724386 </v>
   <v>       0.77623428       0.26057755       0.03589549 </v>
   <v>       0.92253618       0.23894141       0.86321657 </v>
   <v>       0.96912640       0.30944206       0.98565268 </v>
   <v>       0.81267660       0.20523286       0.35923649 </v>
   <v>       0.00310797       0.25490969       0.33146688 </v>
   <v>       0.99190921       0.14929074       0.42184557 </v>
   <v>       0.30067298       0.96539067       0.40106229 </v>
   <v>       0.27890460       0.98093871       0.17218146 </v>
   <v>       0.11605544       0.00870983       0.32160430 </v>
   <v>       0.56837522       0.04760163       0.32467140 </v>
   <v>       0.56585594       0.14870543       0.19727169 </v>
   <v>       0.55119164       0.06663699       0.09410933 </v>
   <v>       0.19161928       0.06064328       0.68155059 </v>
   <v>       0.03229793       0.10747376       0.80118273 </v>
   <v>       0.14838440       0.02632028       0.91540947 </v>
   <v>       0.34134808       0.19767248       0.54825869 </v>
   <v>       0.37399484       0.26118175       0.69320600 </v>
   <v>       0.17205015       0.24380887       0.65484084 </v>
   <v>       0.53906774       0.35282433       0.74594415 </v>
   <v>       0.24675760       0.36982489       0.33312516 </v>
   <v>       0.75324240       0.63017511       0.66687484 </v>
   <v>       0.46093226       0.64717567       0.25405585 </v>
   <v>       0.68028321       0.34423724       0.44979623 </v>
   <v>       0.10131658       0.37837620       0.62963995 </v>
   <v>       0.85646522       0.40673115       0.17399994 </v>
   <v>       0.89868342       0.62162380       0.37036005 </v>
   <v>       0.31971679       0.65576276       0.55020377 </v>
   <v>       0.03372616       0.45495236       0.86476749 </v>
   <v>       0.96627384       0.54504764       0.13523251 </v>
   <v>       0.14353478       0.59326885       0.82600006 </v>
   <v>       0.07162349       0.87374177       0.86931613 </v>
   <v>       0.70696809       0.88468296       0.62243396 </v>
   <v>       0.59818162       0.88819462       0.16275614 </v>
   <v>       0.22376572       0.73942245       0.96410451 </v>
   <v>       0.07746382       0.76105859       0.13678343 </v>
   <v>       0.03087360       0.69055794       0.01434732 </v>
   <v>       0.18732340       0.79476714       0.64076351 </v>
   <v>       0.99689203       0.74509031       0.66853312 </v>
   <v>       0.00809079       0.85070926       0.57815443 </v>
   <v>       0.69932702       0.03460933       0.59893771 </v>
   <v>       0.72109540       0.01906129       0.82781854 </v>
   <v>       0.88394456       0.99129017       0.67839570 </v>
   <v>       0.43162478       0.95239837       0.67532860 </v>
   <v>       0.43414406       0.85129457       0.80272831 </v>
   <v>       0.44880836       0.93336301       0.90589067 </v>
   <v>       0.80838072       0.93935672       0.31844941 </v>
   <v>       0.96770207       0.89252624       0.19881727 </v>
   <v>       0.85161560       0.97367972       0.08459053 </v>
   <v>       0.65865192       0.80232752       0.45174131 </v>
   <v>       0.62600516       0.73881825       0.30679400 </v>
   <v>       0.82794985       0.75619113       0.34515916 </v>
  </varray>
 </structure>
</modeling>
