 Entering Gaussian System, Link 0=g16
 Input=1b_opt_0.gjf
 Output=1b_opt_0.log
 Initial command:
 /opt/ohpc/pub/libs/gaussian/g16-A.03/haswell/g16/l1.exe "/scratch/smgo234/Ocelot/test/1b/Gau-36631.inp" -scrdir="/scratch/smgo234/Ocelot/test/1b/"
 Entering Link 1 = /opt/ohpc/pub/libs/gaussian/g16-A.03/haswell/g16/l1.exe PID=     36632.
  
 Copyright (c) 1988,1990,1992,1993,1995,1998,2003,2009,2016,
            Gaussian, Inc.  All Rights Reserved.
  
 This is part of the Gaussian(R) 16 program.  It is based on
 the Gaussian(R) 09 system (copyright 2009, Gaussian, Inc.),
 the Gaussian(R) 03 system (copyright 2003, Gaussian, Inc.),
 the Gaussian(R) 98 system (copyright 1998, Gaussian, Inc.),
 the Gaussian(R) 94 system (copyright 1995, Gaussian, Inc.),
 the Gaussian 92(TM) system (copyright 1992, Gaussian, Inc.),
 the Gaussian 90(TM) system (copyright 1990, Gaussian, Inc.),
 the Gaussian 88(TM) system (copyright 1988, Gaussian, Inc.),
 the Gaussian 86(TM) system (copyright 1986, Carnegie Mellon
 University), and the Gaussian 82(TM) system (copyright 1983,
 Carnegie Mellon University). Gaussian is a federally registered
 trademark of Gaussian, Inc.
  
 This software contains proprietary and confidential information,
 including trade secrets, belonging to Gaussian, Inc.
  
 This software is provided under written license and may be
 used, copied, transmitted, or stored only in accord with that
 written license.
  
 The following legend is applicable only to US Government
 contracts under FAR:
  
                    RESTRICTED RIGHTS LEGEND
  
 Use, reproduction and disclosure by the US Government is
 subject to restrictions as set forth in subparagraphs (a)
 and (c) of the Commercial Computer Software - Restricted
 Rights clause in FAR 52.227-19.
  
 Gaussian, Inc.
 340 Quinnipiac St., Bldg. 40, Wallingford CT 06492
  
  
 ---------------------------------------------------------------
 Warning -- This program may not be used in any manner that
 competes with the business of Gaussian, Inc. or will provide
 assistance to any competitor of Gaussian, Inc.  The licensee
 of this program is prohibited from giving any competitor of
 Gaussian, Inc. access to this program.  By using this program,
 the user acknowledges that Gaussian, Inc. is engaged in the
 business of creating and licensing software in the field of
 computational chemistry and represents and warrants to the
 licensee that it is not a competitor of Gaussian, Inc. and that
 it will not use this program in any manner prohibited above.
 ---------------------------------------------------------------
  

 Cite this work as:
 Gaussian 16, Revision A.03,
 M. J. Frisch, G. W. Trucks, H. B. Schlegel, G. E. Scuseria, 
 M. A. Robb, J. R. Cheeseman, G. Scalmani, V. Barone, 
 G. A. Petersson, H. Nakatsuji, X. Li, M. Caricato, A. V. Marenich, 
 J. Bloino, B. G. Janesko, R. Gomperts, B. Mennucci, H. P. Hratchian, 
 J. V. Ortiz, A. F. Izmaylov, J. L. Sonnenberg, D. Williams-Young, 
 F. Ding, F. Lipparini, F. Egidi, J. Goings, B. Peng, A. Petrone, 
 T. Henderson, D. Ranasinghe, V. G. Zakrzewski, J. Gao, N. Rega, 
 G. Zheng, W. Liang, M. Hada, M. Ehara, K. Toyota, R. Fukuda, 
 J. Hasegawa, M. Ishida, T. Nakajima, Y. Honda, O. Kitao, H. Nakai, 
 T. Vreven, K. Throssell, J. A. Montgomery, Jr., J. E. Peralta, 
 F. Ogliaro, M. J. Bearpark, J. J. Heyd, E. N. Brothers, K. N. Kudin, 
 V. N. Staroverov, T. A. Keith, R. Kobayashi, J. Normand, 
 K. Raghavachari, A. P. Rendell, J. C. Burant, S. S. Iyengar, 
 J. Tomasi, M. Cossi, J. M. Millam, M. Klene, C. Adamo, R. Cammi, 
 J. W. Ochterski, R. L. Martin, K. Morokuma, O. Farkas, 
 J. B. Foresman, and D. J. Fox, Gaussian, Inc., Wallingford CT, 2016.
 
 ******************************************
 Gaussian 16:  ES64L-G16RevA.03 25-Dec-2016
                25-Feb-2020 
 ******************************************
 %mem=50GB
 %nproc=16
 Will use up to   16 processors via shared memory.
 --------------------------------------------------------------
 #P uLC-wHPBE/6-31G iop(3/107=0272500000, 3/108=0272500000) opt
 --------------------------------------------------------------
 1/18=20,19=15,26=3,38=1/1,3;
 2/9=110,12=2,17=6,18=5,40=1/2;
 3/5=1,6=6,11=2,25=1,30=1,71=1,74=-71,107=272500000,108=272500000,116=2/1,2,3;
 4//1;
 5/5=2,38=5/2;
 6/7=2,8=2,9=2,10=2,28=1/1;
 7//1,2,3,16;
 1/18=20,19=15,26=3/3(2);
 2/9=110/2;
 99//99;
 2/9=110/2;
 3/5=1,6=6,11=2,25=1,30=1,71=1,74=-71,107=272500000,108=272500000,116=2/1,2,3;
 4/5=5,16=3,69=1/1;
 5/5=2,38=5/2;
 7//1,2,3,16;
 1/18=20,19=15,26=3/3(-5);
 2/9=110/2;
 6/7=2,8=2,9=2,10=2,19=2,28=1/1;
 99/9=1/99;
 Leave Link    1 at Tue Feb 25 12:20:57 2020, MaxMem=  6710886400 cpu:               9.4 elap:               0.6
 (Enter /opt/ohpc/pub/libs/gaussian/g16-A.03/haswell/g16/l101.exe)
 -----
 H6 C5
 -----
 Symbolic Z-matrix:
 Charge =  0 Multiplicity = 1
 C                    -1.20651   0.69658   0. 
 C                    -1.20651  -0.69658   0. 
 C                     0.       -1.39316   0. 
 C                     1.20651  -0.69658   0. 
 C                     1.20651   0.69658   0. 
 H                     0.        2.48268   0. 
 H                    -2.15007   1.24134   0. 
 H                    -2.15007  -1.24134   0. 
 H                     0.       -2.48268   0. 
 H                     2.15007  -1.24134   0. 
 H                     2.15007   1.24134   0. 
 
 Add virtual bond connecting atoms H6         and C1         Dist= 4.07D+00.
 Add virtual bond connecting atoms H6         and C5         Dist= 4.07D+00.
 ITRead=  0  0  0  0  0  0  0  0  0  0  0
 MicOpt= -1 -1 -1 -1 -1 -1 -1 -1 -1 -1 -1
 NAtoms=     11 NQM=       11 NQMF=       0 NMMI=      0 NMMIF=      0
                NMic=       0 NMicF=      0.
                    Isotopes and Nuclear Properties:
 (Nuclear quadrupole moments (NQMom) in fm**2, nuclear magnetic moments (NMagM)
  in nuclear magnetons)

  Atom         1           2           3           4           5           6           7           8           9          10
 IAtWgt=          12          12          12          12          12           1           1           1           1           1
 AtmWgt=  12.0000000  12.0000000  12.0000000  12.0000000  12.0000000   1.0078250   1.0078250   1.0078250   1.0078250   1.0078250
 NucSpn=           0           0           0           0           0           1           1           1           1           1
 AtZEff=  -0.0000000  -0.0000000  -0.0000000  -0.0000000  -0.0000000  -0.0000000  -0.0000000  -0.0000000  -0.0000000  -0.0000000
 NQMom=    0.0000000   0.0000000   0.0000000   0.0000000   0.0000000   0.0000000   0.0000000   0.0000000   0.0000000   0.0000000
 NMagM=    0.0000000   0.0000000   0.0000000   0.0000000   0.0000000   2.7928460   2.7928460   2.7928460   2.7928460   2.7928460
 AtZNuc=   6.0000000   6.0000000   6.0000000   6.0000000   6.0000000   1.0000000   1.0000000   1.0000000   1.0000000   1.0000000

  Atom        11
 IAtWgt=           1
 AtmWgt=   1.0078250
 NucSpn=           1
 AtZEff=  -0.0000000
 NQMom=    0.0000000
 NMagM=    2.7928460
 AtZNuc=   1.0000000
 Leave Link  101 at Tue Feb 25 12:20:58 2020, MaxMem=  6710886400 cpu:               6.9 elap:               0.5
 (Enter /opt/ohpc/pub/libs/gaussian/g16-A.03/haswell/g16/l103.exe)

 GradGradGradGradGradGradGradGradGradGradGradGradGradGradGradGradGradGrad
 Berny optimization.
 Initialization pass.
                           ----------------------------
                           !    Initial Parameters    !
                           ! (Angstroms and Degrees)  !
 --------------------------                            --------------------------
 ! Name  Definition              Value          Derivative Info.                !
 --------------------------------------------------------------------------------
 ! R1    R(1,2)                  1.3932         estimate D2E/DX2                !
 ! R2    R(1,6)                  2.1554         estimate D2E/DX2                !
 ! R3    R(1,7)                  1.0895         estimate D2E/DX2                !
 ! R4    R(2,3)                  1.3932         estimate D2E/DX2                !
 ! R5    R(2,8)                  1.0895         estimate D2E/DX2                !
 ! R6    R(3,4)                  1.3932         estimate D2E/DX2                !
 ! R7    R(3,9)                  1.0895         estimate D2E/DX2                !
 ! R8    R(4,5)                  1.3932         estimate D2E/DX2                !
 ! R9    R(4,10)                 1.0895         estimate D2E/DX2                !
 ! R10   R(5,6)                  2.1554         estimate D2E/DX2                !
 ! R11   R(5,11)                 1.0895         estimate D2E/DX2                !
 ! A1    A(2,1,6)              145.961          estimate D2E/DX2                !
 ! A2    A(2,1,7)              120.0            estimate D2E/DX2                !
 ! A3    A(6,1,7)               94.0391         estimate D2E/DX2                !
 ! A4    A(1,2,3)              120.0            estimate D2E/DX2                !
 ! A5    A(1,2,8)              120.0            estimate D2E/DX2                !
 ! A6    A(3,2,8)              120.0            estimate D2E/DX2                !
 ! A7    A(2,3,4)              120.0            estimate D2E/DX2                !
 ! A8    A(2,3,9)              120.0            estimate D2E/DX2                !
 ! A9    A(4,3,9)              120.0            estimate D2E/DX2                !
 ! A10   A(3,4,5)              120.0            estimate D2E/DX2                !
 ! A11   A(3,4,10)             120.0            estimate D2E/DX2                !
 ! A12   A(5,4,10)             120.0            estimate D2E/DX2                !
 ! A13   A(4,5,6)              145.961          estimate D2E/DX2                !
 ! A14   A(4,5,11)             120.0            estimate D2E/DX2                !
 ! A15   A(6,5,11)              94.0391         estimate D2E/DX2                !
 ! A16   A(1,6,5)               68.0781         estimate D2E/DX2                !
 ! D1    D(6,1,2,3)              0.0            estimate D2E/DX2                !
 ! D2    D(6,1,2,8)            180.0            estimate D2E/DX2                !
 ! D3    D(7,1,2,3)            180.0            estimate D2E/DX2                !
 ! D4    D(7,1,2,8)              0.0            estimate D2E/DX2                !
 ! D5    D(2,1,6,5)              0.0            estimate D2E/DX2                !
 ! D6    D(7,1,6,5)            180.0            estimate D2E/DX2                !
 ! D7    D(1,2,3,4)              0.0            estimate D2E/DX2                !
 ! D8    D(1,2,3,9)            180.0            estimate D2E/DX2                !
 ! D9    D(8,2,3,4)            180.0            estimate D2E/DX2                !
 ! D10   D(8,2,3,9)              0.0            estimate D2E/DX2                !
 ! D11   D(2,3,4,5)              0.0            estimate D2E/DX2                !
 ! D12   D(2,3,4,10)           180.0            estimate D2E/DX2                !
 ! D13   D(9,3,4,5)            180.0            estimate D2E/DX2                !
 ! D14   D(9,3,4,10)             0.0            estimate D2E/DX2                !
 ! D15   D(3,4,5,6)              0.0            estimate D2E/DX2                !
 ! D16   D(3,4,5,11)           180.0            estimate D2E/DX2                !
 ! D17   D(10,4,5,6)           180.0            estimate D2E/DX2                !
 ! D18   D(10,4,5,11)            0.0            estimate D2E/DX2                !
 ! D19   D(4,5,6,1)              0.0            estimate D2E/DX2                !
 ! D20   D(11,5,6,1)           180.0            estimate D2E/DX2                !
 --------------------------------------------------------------------------------
 Trust Radius=3.00D-01 FncErr=1.00D-07 GrdErr=1.00D-06 EigMax=2.50D+02 EigMin=1.00D-04
 Number of steps in this run=     57 maximum allowed number of steps=    100.
 GradGradGradGradGradGradGradGradGradGradGradGradGradGradGradGradGradGrad

 Leave Link  103 at Tue Feb 25 12:20:58 2020, MaxMem=  6710886400 cpu:               0.2 elap:               0.0
 (Enter /opt/ohpc/pub/libs/gaussian/g16-A.03/haswell/g16/l202.exe)
                          Input orientation:                          
 ---------------------------------------------------------------------
 Center     Atomic      Atomic             Coordinates (Angstroms)
 Number     Number       Type             X           Y           Z
 ---------------------------------------------------------------------
      1          6           0       -1.206512    0.696580    0.000000
      2          6           0       -1.206512   -0.696580    0.000000
      3          6           0        0.000000   -1.393160    0.000000
      4          6           0        1.206512   -0.696580    0.000000
      5          6           0        1.206512    0.696580    0.000000
      6          1           0        0.000000    2.482681    0.000000
      7          1           0       -2.150065    1.241340    0.000000
      8          1           0       -2.150065   -1.241340    0.000000
      9          1           0        0.000000   -2.482681    0.000000
     10          1           0        2.150065   -1.241340    0.000000
     11          1           0        2.150065    1.241340    0.000000
 ---------------------------------------------------------------------
                    Distance matrix (angstroms):
                    1          2          3          4          5
     1  C    0.000000
     2  C    1.393160   0.000000
     3  C    2.413024   1.393160   0.000000
     4  C    2.786320   2.413024   1.393160   0.000000
     5  C    2.413024   2.786320   2.413024   1.393160   0.000000
     6  H    2.155418   3.400496   3.875841   3.400496   2.155418
     7  H    1.089521   2.155418   3.400496   3.875841   3.400496
     8  H    2.155418   1.089521   2.155418   3.400496   3.875841
     9  H    3.400496   2.155418   1.089521   2.155418   3.400496
    10  H    3.875841   3.400496   2.155418   1.089521   2.155418
    11  H    3.400496   3.875841   3.400496   2.155418   1.089521
                    6          7          8          9         10
     6  H    0.000000
     7  H    2.482681   0.000000
     8  H    4.300129   2.482680   0.000000
     9  H    4.965362   4.300129   2.482681   0.000000
    10  H    4.300129   4.965362   4.300130   2.482681   0.000000
    11  H    2.482681   4.300130   4.965362   4.300129   2.482680
                   11
    11  H    0.000000
 Stoichiometry    C5H6
 Framework group  C2V[C2(HCH),SGV(C4H4)]
 Deg. of freedom    10
 Full point group                 C2V     NOp   4
 Largest Abelian subgroup         C2V     NOp   4
 Largest concise Abelian subgroup C2      NOp   2
                         Standard orientation:                         
 ---------------------------------------------------------------------
 Center     Atomic      Atomic             Coordinates (Angstroms)
 Number     Number       Type             X           Y           Z
 ---------------------------------------------------------------------
      1          6           0       -0.000000    1.206512   -0.928773
      2          6           0       -0.000000    1.206512    0.464387
      3          6           0        0.000000    0.000000    1.160967
      4          6           0       -0.000000   -1.206512    0.464387
      5          6           0       -0.000000   -1.206512   -0.928773
      6          1           0       -0.000000   -0.000000   -2.714874
      7          1           0       -0.000000    2.150065   -1.473533
      8          1           0       -0.000000    2.150065    1.009147
      9          1           0        0.000000    0.000000    2.250488
     10          1           0       -0.000000   -2.150065    1.009147
     11          1           0       -0.000000   -2.150065   -1.473533
 ---------------------------------------------------------------------
 Rotational constants (GHZ):           8.2868568           5.7099792           3.3806054
 Leave Link  202 at Tue Feb 25 12:20:58 2020, MaxMem=  6710886400 cpu:               0.2 elap:               0.0
 (Enter /opt/ohpc/pub/libs/gaussian/g16-A.03/haswell/g16/l301.exe)
 Standard basis: 6-31G (6D, 7F)
 Ernie: Thresh=  0.10000D-02 Tol=  0.10000D-05 Strict=F.
 There are    27 symmetry adapted cartesian basis functions of A1  symmetry.
 There are     4 symmetry adapted cartesian basis functions of A2  symmetry.
 There are     6 symmetry adapted cartesian basis functions of B1  symmetry.
 There are    20 symmetry adapted cartesian basis functions of B2  symmetry.
 There are    27 symmetry adapted basis functions of A1  symmetry.
 There are     4 symmetry adapted basis functions of A2  symmetry.
 There are     6 symmetry adapted basis functions of B1  symmetry.
 There are    20 symmetry adapted basis functions of B2  symmetry.
    57 basis functions,   134 primitive gaussians,    57 cartesian basis functions
    18 alpha electrons       18 beta electrons
       nuclear repulsion energy       145.0218997931 Hartrees.
 IExCor=33909 DFT=T Ex+Corr=LC-wHPBE ExCW=0 ScaHFX=  1.000000
 ScaDFX=  1.000000  1.000000  1.000000  1.000000 ScalE2=  1.000000  1.000000
 IRadAn=      5 IRanWt=     -1 IRanGd=            0 ICorTp=0 IEmpDi=  4
 HFx  wShort=  0.000000 wLong=  0.272500 cFull=  0.000000 cShort=  0.000000 cLong=  1.000000
 DFx  wShort=  0.000000 wLong=  0.272500 cFull=  0.000000 cShort=  1.000000 cLong=  0.000000
 NAtoms=   11 NActive=   11 NUniq=    7 SFac= 2.47D+00 NAtFMM=   60 NAOKFM=F Big=F
 Integral buffers will be    131072 words long.
 Raffenetti 2 integral format.
 Two-electron integral symmetry is turned on.
 Leave Link  301 at Tue Feb 25 12:20:58 2020, MaxMem=  6710886400 cpu:               0.9 elap:               0.1
 (Enter /opt/ohpc/pub/libs/gaussian/g16-A.03/haswell/g16/l302.exe)
 NPDir=0 NMtPBC=     1 NCelOv=     1 NCel=       1 NClECP=     1 NCelD=      1
         NCelK=      1 NCelE2=     1 NClLst=     1 CellRange=     0.0.
 One-electron integrals computed using PRISM.
 One-electron integral symmetry used in STVInt
 NBasis=    57 RedAO= T EigKep=  2.88D-03  NBF=    27     4     6    20
 NBsUse=    57 1.00D-06 EigRej= -1.00D+00 NBFU=    27     4     6    20
 Precomputing XC quadrature grid using
 IXCGrd= 4 IRadAn=           5 IRanWt=          -1 IRanGd=           0 AccXCQ= 0.00D+00.
 Generated NRdTot=       0 NPtTot=           0 NUsed=           0 NTot=          32
 NSgBfM=    57    57    57    57    57 MxSgAt=    11 MxSgA2=    11.
 Leave Link  302 at Tue Feb 25 12:20:58 2020, MaxMem=  6710886400 cpu:               3.1 elap:               0.2
 (Enter /opt/ohpc/pub/libs/gaussian/g16-A.03/haswell/g16/l303.exe)
 DipDrv:  MaxL=1.
 Leave Link  303 at Tue Feb 25 12:20:58 2020, MaxMem=  6710886400 cpu:               0.5 elap:               0.1
 (Enter /opt/ohpc/pub/libs/gaussian/g16-A.03/haswell/g16/l401.exe)
 ExpMin= 1.61D-01 ExpMax= 3.05D+03 ExpMxC= 4.57D+02 IAcc=3 IRadAn=         5 AccDes= 0.00D+00
 Harris functional with IExCor=33909 and IRadAn=       5 diagonalized for initial guess.
 HarFok:  IExCor=33909 AccDes= 0.00D+00 IRadAn=         5 IDoV= 1 UseB2=F ITyADJ=14
 ICtDFT=  3500011 ScaDFX=  1.000000  1.000000  1.000000  1.000000
 FoFCou: FMM=F IPFlag=           0 FMFlag=      100000 FMFlg1=           0
         NFxFlg=           0 DoJE=T BraDBF=F KetDBF=T FulRan=T
         wScrn=  0.000000 ICntrl=       500 IOpCl=  0 I1Cent=   200000004 NGrid=           0
         NMat0=    1 NMatS0=      1 NMatT0=    0 NMatD0=    1 NMtDS0=    0 NMtDT0=    0
 Petite list used in FoFCou.
 Harris En= -188.562566954365    
 JPrj=0 DoOrth=F DoCkMO=F.
 Initial guess orbital symmetries:
 Alpha Orbitals:
       Occupied  (A1) (B2) (A1) (B2) (A1) (A1) (B2) (A1) (B2) (A1)
                 (A1) (B2) (B2) (A1) (B1) (A1) (A2) (B1)
       Virtual   (B2) (A1) (A2) (B1) (A1) (B2) (A1) (B2) (A1) (A1)
                 (B2) (A1) (B2) (B1) (B2) (A1) (B1) (A1) (A2) (B2)
                 (A1) (A2) (B1) (B2) (A1) (A1) (B2) (A1) (B2) (A1)
                 (A1) (B2) (A1) (A1) (B2) (B2) (A1) (A1) (B2)
 Beta  Orbitals:
       Occupied  (A1) (B2) (A1) (B2) (A1) (A1) (B2) (A1) (B2) (A1)
                 (A1) (B2) (B2) (A1) (B1) (A1) (A2) (B1)
       Virtual   (B2) (A1) (A2) (B1) (A1) (B2) (A1) (B2) (A1) (A1)
                 (B2) (A1) (B2) (B1) (B2) (A1) (B1) (A1) (A2) (B2)
                 (A1) (A2) (B1) (B2) (A1) (A1) (B2) (A1) (B2) (A1)
                 (A1) (B2) (A1) (A1) (B2) (B2) (A1) (A1) (B2)
 The electronic state of the initial guess is 1-A1.
 Initial guess <Sx>= 0.0000 <Sy>= 0.0000 <Sz>= 0.0000 <S**2>=-0.0000 S=-0.0000
 Leave Link  401 at Tue Feb 25 12:20:59 2020, MaxMem=  6710886400 cpu:               4.9 elap:               0.3
 (Enter /opt/ohpc/pub/libs/gaussian/g16-A.03/haswell/g16/l502.exe)
 Keep R1 and R2 ints in memory in symmetry-blocked form, NReq=16815659.
 FoFCou: FMM=F IPFlag=           0 FMFlag=           0 FMFlg1=           0
         NFxFlg=           0 DoJE=F BraDBF=F KetDBF=F FulRan=T
         wScrn=  0.000000 ICntrl=       600 IOpCl=  0 I1Cent=           0 NGrid=           0
         NMat0=    1 NMatS0=   1653 NMatT0=    0 NMatD0=    1 NMtDS0=    0 NMtDT0=    0
 Petite list used in FoFCou.
 UHF open shell SCF:
 Using DIIS extrapolation, IDIIS=  1040.
 NGot=  6710886400 LenX=  6710059583 LenY=  6710055893
 Requested convergence on RMS density matrix=1.00D-08 within 128 cycles.
 Requested convergence on MAX density matrix=1.00D-06.
 Requested convergence on             energy=1.00D-06.
 No special actions if energy rises.
 Integral accuracy reduced to 1.0D-05 until final iterations.

 Cycle   1  Pass 0  IDiag  1:
 E= -193.358607818811    
 DIIS: error= 4.77D-02 at cycle   1 NSaved=   1.
 NSaved= 1 IEnMin= 1 EnMin= -193.358607818811     IErMin= 1 ErrMin= 4.77D-02
 ErrMax= 4.77D-02  0.00D+00 EMaxC= 1.00D-01 BMatC= 4.79D-01 BMatP= 4.79D-01
 IDIUse=3 WtCom= 5.23D-01 WtEn= 4.77D-01
 Coeff-Com:  0.100D+01
 Coeff-En:   0.100D+01
 Coeff:      0.100D+01
 Gap=     0.039 Goal=   None    Shift=    0.000
 Gap=     0.039 Goal=   None    Shift=    0.000
 GapD=    0.039 DampG=0.250 DampE=0.500 DampFc=0.2500 IDamp=-1.
 Damping current iteration by 2.50D-01
 RMSDP=2.49D-02 MaxDP=4.96D-01              OVMax= 4.81D-01

 Cycle   2  Pass 0  IDiag  1:
 E= -193.393470843223     Delta-E=       -0.034863024412 Rises=F Damp=T
 DIIS: error= 1.71D-02 at cycle   2 NSaved=   2.
 NSaved= 2 IEnMin= 2 EnMin= -193.393470843223     IErMin= 2 ErrMin= 1.71D-02
 ErrMax= 1.71D-02  0.00D+00 EMaxC= 1.00D-01 BMatC= 6.37D-02 BMatP= 4.79D-01
 IDIUse=3 WtCom= 8.29D-01 WtEn= 1.71D-01
 Coeff-Com: -0.329D+00 0.133D+01
 Coeff-En:   0.233D+00 0.767D+00
 Coeff:     -0.232D+00 0.123D+01
 Gap=     0.084 Goal=   None    Shift=    0.000
 Gap=     0.084 Goal=   None    Shift=    0.000
 RMSDP=7.05D-03 MaxDP=7.30D-02 DE=-3.49D-02 OVMax= 2.34D-01

 Cycle   3  Pass 0  IDiag  1:
 E= -193.498775864482     Delta-E=       -0.105305021258 Rises=F Damp=F
 DIIS: error= 4.01D-02 at cycle   3 NSaved=   3.
 NSaved= 3 IEnMin= 3 EnMin= -193.498775864482     IErMin= 2 ErrMin= 1.71D-02
 ErrMax= 4.01D-02  0.00D+00 EMaxC= 1.00D-01 BMatC= 1.25D-01 BMatP= 6.37D-02
 IDIUse=2 WtCom= 0.00D+00 WtEn= 1.00D+00
 Coeff-En:   0.000D+00 0.000D+00 0.100D+01
 Coeff:      0.000D+00 0.000D+00 0.100D+01
 Gap=     0.072 Goal=   None    Shift=    0.000
 Gap=     0.072 Goal=   None    Shift=    0.000
 RMSDP=9.38D-03 MaxDP=8.65D-02 DE=-1.05D-01 OVMax= 1.70D-01

 Cycle   4  Pass 0  IDiag  1:
 E= -193.496175901585     Delta-E=        0.002599962897 Rises=F Damp=F
 DIIS: error= 3.56D-02 at cycle   4 NSaved=   4.
 NSaved= 4 IEnMin= 3 EnMin= -193.498775864482     IErMin= 2 ErrMin= 1.71D-02
 ErrMax= 3.56D-02  0.00D+00 EMaxC= 1.00D-01 BMatC= 1.88D-01 BMatP= 6.37D-02
 IDIUse=2 WtCom= 0.00D+00 WtEn= 1.00D+00
 Coeff-En:   0.000D+00 0.000D+00 0.514D+00 0.486D+00
 Coeff:      0.000D+00 0.000D+00 0.514D+00 0.486D+00
 Gap=     0.165 Goal=   None    Shift=    0.000
 Gap=     0.165 Goal=   None    Shift=    0.000
 RMSDP=4.72D-03 MaxDP=4.53D-02 DE= 2.60D-03 OVMax= 7.93D-02

 Cycle   5  Pass 0  IDiag  1:
 E= -193.547707404693     Delta-E=       -0.051531503109 Rises=F Damp=F
 DIIS: error= 5.56D-03 at cycle   5 NSaved=   5.
 NSaved= 5 IEnMin= 5 EnMin= -193.547707404693     IErMin= 5 ErrMin= 5.56D-03
 ErrMax= 5.56D-03  0.00D+00 EMaxC= 1.00D-01 BMatC= 3.98D-03 BMatP= 6.37D-02
 IDIUse=3 WtCom= 9.44D-01 WtEn= 5.56D-02
 Coeff-Com: -0.362D-01 0.116D+00 0.140D+00 0.150D+00 0.630D+00
 Coeff-En:   0.000D+00 0.000D+00 0.000D+00 0.000D+00 0.100D+01
 Coeff:     -0.342D-01 0.110D+00 0.132D+00 0.142D+00 0.651D+00
 Gap=     0.160 Goal=   None    Shift=    0.000
 Gap=     0.160 Goal=   None    Shift=    0.000
 RMSDP=6.73D-04 MaxDP=6.61D-03 DE=-5.15D-02 OVMax= 2.10D-02

 Cycle   6  Pass 0  IDiag  1:
 E= -193.548582208248     Delta-E=       -0.000874803555 Rises=F Damp=F
 DIIS: error= 2.82D-03 at cycle   6 NSaved=   6.
 NSaved= 6 IEnMin= 6 EnMin= -193.548582208248     IErMin= 6 ErrMin= 2.82D-03
 ErrMax= 2.82D-03  0.00D+00 EMaxC= 1.00D-01 BMatC= 6.09D-04 BMatP= 3.98D-03
 IDIUse=3 WtCom= 9.72D-01 WtEn= 2.82D-02
 Coeff-Com: -0.106D-01-0.260D-02-0.641D-01-0.106D-01 0.218D+00 0.870D+00
 Coeff-En:   0.000D+00 0.000D+00 0.000D+00 0.000D+00 0.000D+00 0.100D+01
 Coeff:     -0.103D-01-0.253D-02-0.623D-01-0.103D-01 0.211D+00 0.874D+00
 Gap=     0.171 Goal=   None    Shift=    0.000
 Gap=     0.171 Goal=   None    Shift=    0.000
 RMSDP=4.12D-04 MaxDP=6.34D-03 DE=-8.75D-04 OVMax= 1.30D-02

 Cycle   7  Pass 0  IDiag  1:
 E= -193.548936563858     Delta-E=       -0.000354355609 Rises=F Damp=F
 DIIS: error= 4.63D-04 at cycle   7 NSaved=   7.
 NSaved= 7 IEnMin= 7 EnMin= -193.548936563858     IErMin= 7 ErrMin= 4.63D-04
 ErrMax= 4.63D-04  0.00D+00 EMaxC= 1.00D-01 BMatC= 3.44D-05 BMatP= 6.09D-04
 IDIUse=3 WtCom= 9.95D-01 WtEn= 4.63D-03
 Coeff-Com: -0.339D-02-0.352D-02-0.275D-01-0.283D-01-0.621D-01 0.234D+00
 Coeff-Com:  0.891D+00
 Coeff-En:   0.000D+00 0.000D+00 0.000D+00 0.000D+00 0.000D+00 0.000D+00
 Coeff-En:   0.100D+01
 Coeff:     -0.337D-02-0.351D-02-0.274D-01-0.281D-01-0.618D-01 0.233D+00
 Coeff:      0.891D+00
 Gap=     0.171 Goal=   None    Shift=    0.000
 Gap=     0.171 Goal=   None    Shift=    0.000
 RMSDP=9.97D-05 MaxDP=8.00D-04 DE=-3.54D-04 OVMax= 1.69D-03

 Cycle   8  Pass 0  IDiag  1:
 E= -193.548951047310     Delta-E=       -0.000014483453 Rises=F Damp=F
 DIIS: error= 1.51D-04 at cycle   8 NSaved=   8.
 NSaved= 8 IEnMin= 8 EnMin= -193.548951047310     IErMin= 8 ErrMin= 1.51D-04
 ErrMax= 1.51D-04  0.00D+00 EMaxC= 1.00D-01 BMatC= 1.91D-06 BMatP= 3.44D-05
 IDIUse=3 WtCom= 9.98D-01 WtEn= 1.51D-03
 Coeff-Com:  0.185D-02-0.118D-02 0.408D-02-0.888D-03-0.170D-01-0.468D-01
 Coeff-Com:  0.260D-02 0.106D+01
 Coeff-En:   0.000D+00 0.000D+00 0.000D+00 0.000D+00 0.000D+00 0.000D+00
 Coeff-En:   0.000D+00 0.100D+01
 Coeff:      0.185D-02-0.118D-02 0.407D-02-0.887D-03-0.170D-01-0.467D-01
 Coeff:      0.259D-02 0.106D+01
 Gap=     0.171 Goal=   None    Shift=    0.000
 Gap=     0.171 Goal=   None    Shift=    0.000
 RMSDP=3.36D-05 MaxDP=2.07D-04 DE=-1.45D-05 OVMax= 7.58D-04

 Cycle   9  Pass 0  IDiag  1:
 E= -193.548952400597     Delta-E=       -0.000001353286 Rises=F Damp=F
 DIIS: error= 4.10D-05 at cycle   9 NSaved=   9.
 NSaved= 9 IEnMin= 9 EnMin= -193.548952400597     IErMin= 9 ErrMin= 4.10D-05
 ErrMax= 4.10D-05  0.00D+00 EMaxC= 1.00D-01 BMatC= 1.57D-07 BMatP= 1.91D-06
 IDIUse=1 WtCom= 1.00D+00 WtEn= 0.00D+00
 Coeff-Com: -0.296D-03 0.113D-03-0.447D-03 0.206D-03 0.616D-02 0.123D-01
 Coeff-Com: -0.429D-01-0.217D+00 0.124D+01
 Coeff:     -0.296D-03 0.113D-03-0.447D-03 0.206D-03 0.616D-02 0.123D-01
 Coeff:     -0.429D-01-0.217D+00 0.124D+01
 Gap=     0.171 Goal=   None    Shift=    0.000
 Gap=     0.171 Goal=   None    Shift=    0.000
 RMSDP=8.37D-06 MaxDP=6.38D-05 DE=-1.35D-06 OVMax= 2.35D-04

 Initial convergence to 1.0D-05 achieved.  Increase integral accuracy.
 Cycle  10  Pass 1  IDiag  1:
 E= -193.548949584789     Delta-E=        0.000002815808 Rises=F Damp=F
 DIIS: error= 7.91D-06 at cycle   1 NSaved=   1.
 NSaved= 1 IEnMin= 1 EnMin= -193.548949584789     IErMin= 1 ErrMin= 7.91D-06
 ErrMax= 7.91D-06  0.00D+00 EMaxC= 1.00D-01 BMatC= 5.10D-09 BMatP= 5.10D-09
 IDIUse=1 WtCom= 1.00D+00 WtEn= 0.00D+00
 Coeff-Com:  0.100D+01
 Coeff:      0.100D+01
 Gap=     0.171 Goal=   None    Shift=    0.000
 Gap=     0.171 Goal=   None    Shift=    0.000
 RMSDP=8.37D-06 MaxDP=6.38D-05 DE= 2.82D-06 OVMax= 3.74D-05

 Cycle  11  Pass 1  IDiag  1:
 E= -193.548949586975     Delta-E=       -0.000000002187 Rises=F Damp=F
 DIIS: error= 6.32D-06 at cycle   2 NSaved=   2.
 NSaved= 2 IEnMin= 2 EnMin= -193.548949586975     IErMin= 2 ErrMin= 6.32D-06
 ErrMax= 6.32D-06  0.00D+00 EMaxC= 1.00D-01 BMatC= 4.26D-09 BMatP= 5.10D-09
 IDIUse=1 WtCom= 1.00D+00 WtEn= 0.00D+00
 Coeff-Com:  0.469D+00 0.531D+00
 Coeff:      0.469D+00 0.531D+00
 Gap=     0.171 Goal=   None    Shift=    0.000
 Gap=     0.171 Goal=   None    Shift=    0.000
 RMSDP=6.67D-07 MaxDP=7.35D-06 DE=-2.19D-09 OVMax= 1.51D-05

 Cycle  12  Pass 1  IDiag  1:
 E= -193.548949588256     Delta-E=       -0.000000001281 Rises=F Damp=F
 DIIS: error= 2.29D-06 at cycle   3 NSaved=   3.
 NSaved= 3 IEnMin= 3 EnMin= -193.548949588256     IErMin= 3 ErrMin= 2.29D-06
 ErrMax= 2.29D-06  0.00D+00 EMaxC= 1.00D-01 BMatC= 3.44D-10 BMatP= 4.26D-09
 IDIUse=1 WtCom= 1.00D+00 WtEn= 0.00D+00
 Coeff-Com: -0.177D+00 0.115D+00 0.106D+01
 Coeff:     -0.177D+00 0.115D+00 0.106D+01
 Gap=     0.171 Goal=   None    Shift=    0.000
 Gap=     0.171 Goal=   None    Shift=    0.000
 RMSDP=4.07D-07 MaxDP=3.85D-06 DE=-1.28D-09 OVMax= 1.06D-05

 Cycle  13  Pass 1  IDiag  1:
 E= -193.548949588513     Delta-E=       -0.000000000256 Rises=F Damp=F
 DIIS: error= 4.54D-07 at cycle   4 NSaved=   4.
 NSaved= 4 IEnMin= 4 EnMin= -193.548949588513     IErMin= 4 ErrMin= 4.54D-07
 ErrMax= 4.54D-07  0.00D+00 EMaxC= 1.00D-01 BMatC= 1.16D-11 BMatP= 3.44D-10
 IDIUse=1 WtCom= 1.00D+00 WtEn= 0.00D+00
 Coeff-Com: -0.167D-01-0.273D-01-0.118D+00 0.116D+01
 Coeff:     -0.167D-01-0.273D-01-0.118D+00 0.116D+01
 Gap=     0.171 Goal=   None    Shift=    0.000
 Gap=     0.171 Goal=   None    Shift=    0.000
 RMSDP=1.27D-07 MaxDP=1.30D-06 DE=-2.56D-10 OVMax= 3.49D-06

 Cycle  14  Pass 1  IDiag  1:
 E= -193.548949588529     Delta-E=       -0.000000000016 Rises=F Damp=F
 DIIS: error= 9.64D-08 at cycle   5 NSaved=   5.
 NSaved= 5 IEnMin= 5 EnMin= -193.548949588529     IErMin= 5 ErrMin= 9.64D-08
 ErrMax= 9.64D-08  0.00D+00 EMaxC= 1.00D-01 BMatC= 7.19D-13 BMatP= 1.16D-11
 IDIUse=1 WtCom= 1.00D+00 WtEn= 0.00D+00
 Coeff-Com:  0.134D-01-0.927D-02-0.836D-01 0.759D-01 0.100D+01
 Coeff:      0.134D-01-0.927D-02-0.836D-01 0.759D-01 0.100D+01
 Gap=     0.171 Goal=   None    Shift=    0.000
 Gap=     0.171 Goal=   None    Shift=    0.000
 RMSDP=2.28D-08 MaxDP=2.53D-07 DE=-1.63D-11 OVMax= 6.84D-07

 Cycle  15  Pass 1  IDiag  1:
 E= -193.548949588529     Delta-E=       -0.000000000000 Rises=F Damp=F
 DIIS: error= 3.46D-08 at cycle   6 NSaved=   6.
 NSaved= 6 IEnMin= 6 EnMin= -193.548949588529     IErMin= 6 ErrMin= 3.46D-08
 ErrMax= 3.46D-08  0.00D+00 EMaxC= 1.00D-01 BMatC= 1.59D-13 BMatP= 7.19D-13
 IDIUse=1 WtCom= 1.00D+00 WtEn= 0.00D+00
 Coeff-Com:  0.627D-02-0.285D-02-0.262D-01-0.452D-01 0.368D+00 0.700D+00
 Coeff:      0.627D-02-0.285D-02-0.262D-01-0.452D-01 0.368D+00 0.700D+00
 Gap=     0.171 Goal=   None    Shift=    0.000
 Gap=     0.171 Goal=   None    Shift=    0.000
 RMSDP=5.72D-09 MaxDP=6.51D-08 DE=-3.41D-13 OVMax= 1.37D-07

 SCF Done:  E(ULC-wHPBE) =  -193.548949589     A.U. after   15 cycles
            NFock= 15  Conv=0.57D-08     -V/T= 2.0086
 <Sx>= 0.0000 <Sy>= 0.0000 <Sz>= 0.0000 <S**2>=-0.0000 S=-0.0000
 <L.S>= 0.000000000000E+00
 KE= 1.918939283852D+02 PE=-7.384303204709D+02 EE= 2.079655427041D+02
 Annihilation of the first spin contaminant:
 S**2 before annihilation    -0.0000,   after    -0.0000
 Leave Link  502 at Tue Feb 25 12:21:00 2020, MaxMem=  6710886400 cpu:              19.9 elap:               1.3
 (Enter /opt/ohpc/pub/libs/gaussian/g16-A.03/haswell/g16/l601.exe)
 Copying SCF densities to generalized density rwf, IOpCl= 1 IROHF=0.

 **********************************************************************

            Population analysis using the SCF density.

 **********************************************************************

 Orbital symmetries:
 Alpha Orbitals:
       Occupied  (B2) (A1) (B2) (A1) (A1) (A1) (B2) (A1) (B2) (A1)
                 (A1) (B2) (B2) (A1) (B1) (A1) (A2) (B1)
       Virtual   (A1) (B2) (A2) (A1) (B1) (B2) (A1) (B2) (A1) (A1)
                 (B2) (A1) (B2) (B2) (B1) (A2) (B1) (A1) (A1) (B2)
                 (A1) (A2) (A1) (B1) (B2) (A1) (B2) (A1) (B2) (A1)
                 (A1) (A1) (B2) (A1) (B2) (B2) (A1) (A1) (B2)
 Beta  Orbitals:
       Occupied  (B2) (A1) (B2) (A1) (A1) (A1) (B2) (A1) (B2) (A1)
                 (A1) (B2) (B2) (A1) (B1) (A1) (A2) (B1)
       Virtual   (A1) (B2) (A2) (A1) (B1) (B2) (A1) (B2) (A1) (A1)
                 (B2) (A1) (B2) (B2) (B1) (A2) (B1) (A1) (A1) (B2)
                 (A1) (A2) (A1) (B1) (B2) (A1) (B2) (A1) (B2) (A1)
                 (A1) (A1) (B2) (A1) (B2) (B2) (A1) (A1) (B2)
 The electronic state is 1-A1.
 Alpha  occ. eigenvalues --  -10.10483 -10.10481 -10.05883 -10.05882 -10.00529
 Alpha  occ. eigenvalues --   -0.89834  -0.82138  -0.74365  -0.65463  -0.59846
 Alpha  occ. eigenvalues --   -0.58108  -0.51286  -0.46782  -0.43896  -0.42593
 Alpha  occ. eigenvalues --   -0.41680  -0.33465  -0.23658
 Alpha virt. eigenvalues --   -0.06563  -0.02292   0.08437   0.18575   0.19386
 Alpha virt. eigenvalues --    0.22364   0.26214   0.27143   0.28746   0.39578
 Alpha virt. eigenvalues --    0.40789   0.48748   0.49926   0.60920   0.61082
 Alpha virt. eigenvalues --    0.69794   0.70036   0.70879   0.71767   0.73538
 Alpha virt. eigenvalues --    0.74175   0.75683   0.78822   0.79289   0.80268
 Alpha virt. eigenvalues --    0.87223   0.92644   0.94707   0.97223   0.99164
 Alpha virt. eigenvalues --    1.03858   1.06419   1.08758   1.14721   1.21039
 Alpha virt. eigenvalues --    1.26429   1.30476   1.54165   1.54853
  Beta  occ. eigenvalues --  -10.10483 -10.10481 -10.05883 -10.05882 -10.00529
  Beta  occ. eigenvalues --   -0.89834  -0.82138  -0.74365  -0.65463  -0.59846
  Beta  occ. eigenvalues --   -0.58108  -0.51286  -0.46782  -0.43896  -0.42593
  Beta  occ. eigenvalues --   -0.41680  -0.33465  -0.23658
  Beta virt. eigenvalues --   -0.06563  -0.02292   0.08437   0.18575   0.19386
  Beta virt. eigenvalues --    0.22364   0.26214   0.27143   0.28746   0.39578
  Beta virt. eigenvalues --    0.40789   0.48748   0.49926   0.60920   0.61082
  Beta virt. eigenvalues --    0.69794   0.70036   0.70879   0.71767   0.73538
  Beta virt. eigenvalues --    0.74175   0.75683   0.78822   0.79289   0.80268
  Beta virt. eigenvalues --    0.87223   0.92644   0.94707   0.97223   0.99164
  Beta virt. eigenvalues --    1.03858   1.06419   1.08758   1.14721   1.21039
  Beta virt. eigenvalues --    1.26429   1.30476   1.54165   1.54853
          Condensed to atoms (all electrons):
               1          2          3          4          5          6
     1  C    5.286165   0.513610  -0.077292  -0.042489   0.148141   0.116115
     2  C    0.513610   4.900750   0.548912  -0.050697  -0.042489  -0.002597
     3  C   -0.077292   0.548912   4.872053   0.548912  -0.077292  -0.000512
     4  C   -0.042489  -0.050697   0.548912   4.900750   0.513610  -0.002597
     5  C    0.148141  -0.042489  -0.077292   0.513610   5.286165   0.116115
     6  H    0.116115  -0.002597  -0.000512  -0.002597   0.116115   0.660444
     7  H    0.352427  -0.036788   0.003036   0.000939  -0.003893  -0.008459
     8  H   -0.035772   0.356781  -0.013806   0.004599   0.000522   0.000206
     9  H    0.005892  -0.040808   0.370532  -0.040808   0.005892  -0.000004
    10  H    0.000522   0.004599  -0.013806   0.356781  -0.035772   0.000206
    11  H   -0.003893   0.000939   0.003036  -0.036788   0.352427  -0.008459
               7          8          9         10         11
     1  C    0.352427  -0.035772   0.005892   0.000522  -0.003893
     2  C   -0.036788   0.356781  -0.040808   0.004599   0.000939
     3  C    0.003036  -0.013806   0.370532  -0.013806   0.003036
     4  C    0.000939   0.004599  -0.040808   0.356781  -0.036788
     5  C   -0.003893   0.000522   0.005892  -0.035772   0.352427
     6  H   -0.008459   0.000206  -0.000004   0.000206  -0.008459
     7  H    0.514119   0.000975  -0.000160  -0.000012   0.000039
     8  H    0.000975   0.494892  -0.004454  -0.000104  -0.000012
     9  H   -0.000160  -0.004454   0.590927  -0.004454  -0.000160
    10  H   -0.000012  -0.000104  -0.004454   0.494892   0.000975
    11  H    0.000039  -0.000012  -0.000160   0.000975   0.514119
          Atomic-Atomic Spin Densities.
               1          2          3          4          5          6
     1  C    0.000000   0.000000   0.000000   0.000000   0.000000   0.000000
     2  C    0.000000   0.000000   0.000000   0.000000   0.000000   0.000000
     3  C    0.000000   0.000000   0.000000   0.000000   0.000000   0.000000
     4  C    0.000000   0.000000   0.000000   0.000000   0.000000   0.000000
     5  C    0.000000   0.000000   0.000000   0.000000   0.000000   0.000000
     6  H    0.000000   0.000000   0.000000   0.000000   0.000000   0.000000
     7  H    0.000000   0.000000   0.000000   0.000000   0.000000   0.000000
     8  H    0.000000   0.000000   0.000000   0.000000   0.000000   0.000000
     9  H    0.000000   0.000000   0.000000   0.000000   0.000000   0.000000
    10  H    0.000000   0.000000   0.000000   0.000000   0.000000   0.000000
    11  H    0.000000   0.000000   0.000000   0.000000   0.000000   0.000000
               7          8          9         10         11
     1  C    0.000000   0.000000   0.000000   0.000000   0.000000
     2  C    0.000000   0.000000   0.000000   0.000000   0.000000
     3  C    0.000000   0.000000   0.000000   0.000000   0.000000
     4  C    0.000000   0.000000   0.000000   0.000000   0.000000
     5  C    0.000000   0.000000   0.000000   0.000000   0.000000
     6  H    0.000000   0.000000   0.000000   0.000000   0.000000
     7  H    0.000000   0.000000   0.000000   0.000000   0.000000
     8  H    0.000000   0.000000   0.000000   0.000000   0.000000
     9  H    0.000000   0.000000   0.000000   0.000000   0.000000
    10  H    0.000000   0.000000   0.000000   0.000000   0.000000
    11  H    0.000000   0.000000   0.000000   0.000000   0.000000
 Mulliken charges and spin densities:
               1          2
     1  C   -0.263426   0.000000
     2  C   -0.152212   0.000000
     3  C   -0.163773   0.000000
     4  C   -0.152212   0.000000
     5  C   -0.263426   0.000000
     6  H    0.129543   0.000000
     7  H    0.177777   0.000000
     8  H    0.196173   0.000000
     9  H    0.117606   0.000000
    10  H    0.196173   0.000000
    11  H    0.177777   0.000000
 Sum of Mulliken charges =  -0.00000   0.00000
 Mulliken charges and spin densities with hydrogens summed into heavy atoms:
               1          2
     1  C    0.043894   0.000000
     2  C    0.043961   0.000000
     3  C   -0.046167   0.000000
     4  C    0.043961   0.000000
     5  C   -0.085649   0.000000
 Electronic spatial extent (au):  <R**2>=            395.7100
 Charge=             -0.0000 electrons
 Dipole moment (field-independent basis, Debye):
    X=             -0.0000    Y=              0.0000    Z=             -1.2264  Tot=              1.2264
 Quadrupole moment (field-independent basis, Debye-Ang):
   XX=            -36.6368   YY=            -23.4434   ZZ=            -24.1771
   XY=              0.0000   XZ=             -0.0000   YZ=             -0.0000
 Traceless Quadrupole moment (field-independent basis, Debye-Ang):
   XX=             -8.5510   YY=              4.6423   ZZ=              3.9087
   XY=              0.0000   XZ=             -0.0000   YZ=             -0.0000
 Octapole moment (field-independent basis, Debye-Ang**2):
  XXX=              0.0000  YYY=              0.0000  ZZZ=            -11.6084  XYY=              0.0000
  XXY=             -0.0000  XXZ=              2.6359  XZZ=              0.0000  YZZ=              0.0000
  YYZ=              1.5773  XYZ=             -0.0000
 Hexadecapole moment (field-independent basis, Debye-Ang**3):
 XXXX=            -39.9384 YYYY=           -235.7042 ZZZZ=           -178.8942 XXXY=             -0.0000
 XXXZ=             -0.0000 YYYX=             -0.0000 YYYZ=              0.0000 ZZZX=             -0.0000
 ZZZY=              0.0000 XXYY=            -62.0749 XXZZ=            -52.7426 YYZZ=            -71.9720
 XXYZ=             -0.0000 YYXZ=             -0.0000 ZZXY=             -0.0000
 N-N= 1.450218997931D+02 E-N=-7.384303219189D+02  KE= 1.918939283852D+02
 Symmetry A1   KE= 1.102403115190D+02
 Symmetry A2   KE= 2.317839206180D+00
 Symmetry B1   KE= 4.314345999080D+00
 Symmetry B2   KE= 7.502143166095D+01
 Symmetry A1   SP= 0.000000000000D+00
 Symmetry A2   SP= 0.000000000000D+00
 Symmetry B1   SP= 0.000000000000D+00
 Symmetry B2   SP= 0.000000000000D+00
                          Isotropic Fermi Contact Couplings
        Atom                 a.u.       MegaHertz       Gauss      10(-4) cm-1
     1  C(13)              0.00000       0.00000       0.00000       0.00000
     2  C(13)              0.00000       0.00000       0.00000       0.00000
     3  C(13)              0.00000       0.00000       0.00000       0.00000
     4  C(13)              0.00000       0.00000       0.00000       0.00000
     5  C(13)              0.00000       0.00000       0.00000       0.00000
     6  H(1)               0.00000       0.00000       0.00000       0.00000
     7  H(1)               0.00000       0.00000       0.00000       0.00000
     8  H(1)               0.00000       0.00000       0.00000       0.00000
     9  H(1)               0.00000       0.00000       0.00000       0.00000
    10  H(1)               0.00000       0.00000       0.00000       0.00000
    11  H(1)               0.00000       0.00000       0.00000       0.00000
 --------------------------------------------------------
       Center         ----  Spin Dipole Couplings  ----
                      3XX-RR        3YY-RR        3ZZ-RR
 --------------------------------------------------------
     1   Atom        0.000000      0.000000      0.000000
     2   Atom        0.000000      0.000000      0.000000
     3   Atom        0.000000      0.000000      0.000000
     4   Atom        0.000000      0.000000      0.000000
     5   Atom        0.000000      0.000000      0.000000
     6   Atom        0.000000      0.000000      0.000000
     7   Atom        0.000000      0.000000      0.000000
     8   Atom        0.000000      0.000000      0.000000
     9   Atom        0.000000      0.000000      0.000000
    10   Atom        0.000000      0.000000      0.000000
    11   Atom        0.000000      0.000000      0.000000
 --------------------------------------------------------
                        XY            XZ            YZ
 --------------------------------------------------------
     1   Atom        0.000000      0.000000      0.000000
     2   Atom        0.000000      0.000000      0.000000
     3   Atom        0.000000      0.000000      0.000000
     4   Atom        0.000000      0.000000      0.000000
     5   Atom        0.000000      0.000000      0.000000
     6   Atom        0.000000      0.000000      0.000000
     7   Atom        0.000000      0.000000      0.000000
     8   Atom        0.000000      0.000000      0.000000
     9   Atom        0.000000      0.000000      0.000000
    10   Atom        0.000000      0.000000      0.000000
    11   Atom        0.000000      0.000000      0.000000
 --------------------------------------------------------


 ---------------------------------------------------------------------------------
              Anisotropic Spin Dipole Couplings in Principal Axis System
 ---------------------------------------------------------------------------------

       Atom             a.u.   MegaHertz   Gauss  10(-4) cm-1        Axes

              Baa     0.0000     0.000     0.000     0.000  1.0000  0.0000  0.0000
     1 C(13)  Bbb     0.0000     0.000     0.000     0.000 -0.0000  1.0000  0.0000
              Bcc     0.0000     0.000     0.000     0.000  0.0000  0.0000  1.0000
 
              Baa     0.0000     0.000     0.000     0.000  1.0000  0.0000  0.0000
     2 C(13)  Bbb     0.0000     0.000     0.000     0.000 -0.0000  1.0000  0.0000
              Bcc     0.0000     0.000     0.000     0.000  0.0000  0.0000  1.0000
 
              Baa     0.0000     0.000     0.000     0.000  1.0000  0.0000  0.0000
     3 C(13)  Bbb     0.0000     0.000     0.000     0.000 -0.0000  1.0000  0.0000
              Bcc     0.0000     0.000     0.000     0.000  0.0000  0.0000  1.0000
 
              Baa     0.0000     0.000     0.000     0.000  1.0000  0.0000  0.0000
     4 C(13)  Bbb     0.0000     0.000     0.000     0.000 -0.0000  1.0000  0.0000
              Bcc     0.0000     0.000     0.000     0.000  0.0000  0.0000  1.0000
 
              Baa     0.0000     0.000     0.000     0.000  1.0000  0.0000  0.0000
     5 C(13)  Bbb     0.0000     0.000     0.000     0.000 -0.0000  1.0000  0.0000
              Bcc     0.0000     0.000     0.000     0.000  0.0000  0.0000  1.0000
 
              Baa     0.0000     0.000     0.000     0.000  1.0000  0.0000  0.0000
     6 H(1)   Bbb     0.0000     0.000     0.000     0.000 -0.0000  1.0000  0.0000
              Bcc     0.0000     0.000     0.000     0.000  0.0000  0.0000  1.0000
 
              Baa     0.0000     0.000     0.000     0.000  1.0000  0.0000  0.0000
     7 H(1)   Bbb     0.0000     0.000     0.000     0.000 -0.0000  1.0000  0.0000
              Bcc     0.0000     0.000     0.000     0.000  0.0000  0.0000  1.0000
 
              Baa     0.0000     0.000     0.000     0.000  1.0000  0.0000  0.0000
     8 H(1)   Bbb     0.0000     0.000     0.000     0.000 -0.0000  1.0000  0.0000
              Bcc     0.0000     0.000     0.000     0.000  0.0000  0.0000  1.0000
 
              Baa     0.0000     0.000     0.000     0.000  1.0000  0.0000  0.0000
     9 H(1)   Bbb     0.0000     0.000     0.000     0.000 -0.0000  1.0000  0.0000
              Bcc     0.0000     0.000     0.000     0.000  0.0000  0.0000  1.0000
 
              Baa     0.0000     0.000     0.000     0.000  1.0000  0.0000  0.0000
    10 H(1)   Bbb     0.0000     0.000     0.000     0.000 -0.0000  1.0000  0.0000
              Bcc     0.0000     0.000     0.000     0.000  0.0000  0.0000  1.0000
 
              Baa     0.0000     0.000     0.000     0.000  1.0000  0.0000  0.0000
    11 H(1)   Bbb     0.0000     0.000     0.000     0.000 -0.0000  1.0000  0.0000
              Bcc     0.0000     0.000     0.000     0.000  0.0000  0.0000  1.0000
 

 ---------------------------------------------------------------------------------

 No NMR shielding tensors so no spin-rotation constants.
 Leave Link  601 at Tue Feb 25 12:21:00 2020, MaxMem=  6710886400 cpu:               3.5 elap:               0.4
 (Enter /opt/ohpc/pub/libs/gaussian/g16-A.03/haswell/g16/l701.exe)
 ... and contract with generalized density number  0.
 Compute integral first derivatives.
 Leave Link  701 at Tue Feb 25 12:21:01 2020, MaxMem=  6710886400 cpu:               2.6 elap:               0.2
 (Enter /opt/ohpc/pub/libs/gaussian/g16-A.03/haswell/g16/l702.exe)
 L702 exits ... SP integral derivatives will be done elsewhere.
 Leave Link  702 at Tue Feb 25 12:21:01 2020, MaxMem=  6710886400 cpu:               0.3 elap:               0.0
 (Enter /opt/ohpc/pub/libs/gaussian/g16-A.03/haswell/g16/l703.exe)
 Integral derivatives from FoFJK, PRISM(SPDF).
 Compute integral first derivatives, UseDBF=F ICtDFT=           0.
 Calling FoFJK, ICntrl=      2127 FMM=F ISym2X=1 I1Cent= 0 IOpClX= 1 NMat=1 NMatS=1 NMatT=0.
 FoFJK:  IHMeth= 1 ICntrl=    2127 DoSepK=T KAlg= 0 I1Cent=           0 FoldK=F
 IRaf=         1 NMat=       1 IRICut=       1 DoRegI=T DoRafI=F ISym2E= 1 IDoP0=0 IntGTp=1.
 FoFCou: FMM=F IPFlag=           0 FMFlag=      100000 FMFlg1=         800
         NFxFlg=           0 DoJE=F BraDBF=F KetDBF=F FulRan=T
         wScrn=  0.000000 ICntrl=      2527 IOpCl=  0 I1Cent=           0 NGrid=           0
         NMat0=    1 NMatS0=      1 NMatT0=    0 NMatD0=    1 NMtDS0=    0 NMtDT0=    0
 Petite list used in FoFCou.
 Leave Link  703 at Tue Feb 25 12:21:02 2020, MaxMem=  6710886400 cpu:               9.7 elap:               0.6
 (Enter /opt/ohpc/pub/libs/gaussian/g16-A.03/haswell/g16/l716.exe)
 Dipole        =-5.90406497D-17 0.00000000D+00-4.82496045D-01
 ***** Axes restored to original set *****
 -------------------------------------------------------------------
 Center     Atomic                   Forces (Hartrees/Bohr)
 Number     Number              X              Y              Z
 -------------------------------------------------------------------
      1        6          -0.014627309   -0.012356691   -0.000000000
      2        6           0.047897604    0.036943296    0.000000000
      3        6          -0.000000000   -0.042169676   -0.000000000
      4        6          -0.047897604    0.036943296    0.000000000
      5        6           0.014627309   -0.012356691   -0.000000000
      6        1          -0.000000000   -0.072205646   -0.000000000
      7        1           0.015813450    0.024484028    0.000000000
      8        1          -0.005243826    0.007851474    0.000000000
      9        1           0.000000000    0.000531108    0.000000000
     10        1           0.005243826    0.007851474    0.000000000
     11        1          -0.015813450    0.024484028    0.000000000
 -------------------------------------------------------------------
 Cartesian Forces:  Max     0.072205646 RMS     0.022644043
 Leave Link  716 at Tue Feb 25 12:21:02 2020, MaxMem=  6710886400 cpu:               0.7 elap:               0.1
 (Enter /opt/ohpc/pub/libs/gaussian/g16-A.03/haswell/g16/l103.exe)

 GradGradGradGradGradGradGradGradGradGradGradGradGradGradGradGradGradGrad
 Berny optimization.
 FormGI is forming the generalized inverse of G from B-inverse, IUseBI=4.
 Internal  Forces:  Max     0.046441414 RMS     0.016060524
 Search for a local minimum.
 Step number   1 out of a maximum of   57
 All quantities printed in internal units (Hartrees-Bohrs-Radians)
 RMS Force = .16061D-01 SwitMx=.10000D-02 MixMth= 1
 Mixed Optimization -- RFO/linear search
 Second derivative matrix not updated -- first step.
 ITU=  0
     Eigenvalues ---    0.01091   0.01583   0.01671   0.01881   0.02179
     Eigenvalues ---    0.02179   0.02179   0.02179   0.03775   0.04649
     Eigenvalues ---    0.16000   0.16000   0.16000   0.16000   0.16000
     Eigenvalues ---    0.18549   0.18999   0.22063   0.34868   0.34868
     Eigenvalues ---    0.34868   0.34868   0.34868   0.42786   0.45657
     Eigenvalues ---    0.46773   0.46773
 RFO step:  Lambda=-6.94731195D-02 EMin= 1.09063033D-02
 Linear search not attempted -- first point.
 Maximum step size (   0.300) exceeded in Quadratic search.
    -- Step size scaled by   0.427
 Iteration  1 RMS(Cart)=  0.05064411 RMS(Int)=  0.00102125
 Iteration  2 RMS(Cart)=  0.00137346 RMS(Int)=  0.00007454
 Iteration  3 RMS(Cart)=  0.00000021 RMS(Int)=  0.00007454
 ITry= 1 IFail=0 DXMaxC= 1.97D-01 DCOld= 1.00D+10 DXMaxT= 3.00D-01 DXLimC= 3.00D+00 Rises=F
 ClnCor:  largest displacement from symmetrization is 3.11D-11 for atom     9.
 Variable       Old X    -DE/DX   Delta X   Delta X   Delta X     New X
                                 (Linear)    (Quad)   (Total)
    R1        2.63269  -0.02398   0.00000  -0.01907  -0.01907   2.61362
    R2        4.07315  -0.04644   0.00000  -0.18489  -0.18484   3.88831
    R3        2.05890  -0.00145   0.00000  -0.00148  -0.00148   2.05741
    R4        2.63269  -0.00199   0.00000  -0.00383  -0.00391   2.62878
    R5        2.05890   0.00062   0.00000   0.00063   0.00063   2.05953
    R6        2.63269  -0.00199   0.00000  -0.00383  -0.00391   2.62878
    R7        2.05890  -0.00053   0.00000  -0.00054  -0.00054   2.05835
    R8        2.63269  -0.02398   0.00000  -0.01907  -0.01907   2.61362
    R9        2.05890   0.00062   0.00000   0.00063   0.00063   2.05953
   R10        4.07315  -0.04644   0.00000  -0.18489  -0.18484   3.88831
   R11        2.05890  -0.00145   0.00000  -0.00148  -0.00148   2.05741
    A1        2.54750  -0.00490   0.00000  -0.00557  -0.00553   2.54197
    A2        2.09439   0.03242   0.00000   0.05860   0.05857   2.15297
    A3        1.64129  -0.02752   0.00000  -0.05303  -0.05305   1.58824
    A4        2.09440   0.01839   0.00000   0.02152   0.02140   2.11579
    A5        2.09439  -0.01889   0.00000  -0.02882  -0.02876   2.06563
    A6        2.09440   0.00050   0.00000   0.00730   0.00736   2.10176
    A7        2.09440  -0.03229   0.00000  -0.05752  -0.05773   2.03667
    A8        2.09440   0.01614   0.00000   0.02876   0.02886   2.12326
    A9        2.09440   0.01614   0.00000   0.02876   0.02886   2.12326
   A10        2.09440   0.01839   0.00000   0.02152   0.02140   2.11579
   A11        2.09440   0.00050   0.00000   0.00730   0.00736   2.10176
   A12        2.09439  -0.01889   0.00000  -0.02882  -0.02876   2.06563
   A13        2.54750  -0.00490   0.00000  -0.00557  -0.00553   2.54197
   A14        2.09439   0.03242   0.00000   0.05860   0.05857   2.15297
   A15        1.64129  -0.02752   0.00000  -0.05303  -0.05305   1.58824
   A16        1.18819   0.00530   0.00000   0.02563   0.02599   1.21418
    D1       -0.00000  -0.00000   0.00000  -0.00000   0.00000   0.00000
    D2        3.14159  -0.00000   0.00000  -0.00000   0.00000   3.14159
    D3        3.14159   0.00000   0.00000   0.00000   0.00000   3.14159
    D4        0.00000   0.00000   0.00000   0.00000   0.00000   0.00000
    D5        0.00000  -0.00000   0.00000  -0.00000   0.00000   0.00000
    D6        3.14159  -0.00000   0.00000  -0.00000   0.00000   3.14159
    D7       -0.00000   0.00000   0.00000   0.00000   0.00000   0.00000
    D8        3.14159  -0.00000   0.00000  -0.00000   0.00000   3.14159
    D9        3.14159   0.00000   0.00000   0.00000   0.00000   3.14159
   D10       -0.00000  -0.00000   0.00000  -0.00000   0.00000   0.00000
   D11        0.00000  -0.00000   0.00000  -0.00000   0.00000   0.00000
   D12        3.14159  -0.00000   0.00000  -0.00000   0.00000   3.14159
   D13        3.14159   0.00000   0.00000   0.00000   0.00000   3.14159
   D14       -0.00000  -0.00000   0.00000  -0.00000   0.00000   0.00000
   D15        0.00000   0.00000   0.00000  -0.00000   0.00000   0.00000
   D16        3.14159  -0.00000   0.00000  -0.00000   0.00000   3.14159
   D17        3.14159   0.00000   0.00000   0.00000   0.00000   3.14159
   D18       -0.00000  -0.00000   0.00000  -0.00000   0.00000   0.00000
   D19       -0.00000   0.00000   0.00000   0.00000   0.00000   0.00000
   D20        3.14159   0.00000   0.00000   0.00000   0.00000   3.14159
         Item               Value     Threshold  Converged?
 Maximum Force            0.046441     0.000450     NO 
 RMS     Force            0.016061     0.000300     NO 
 Maximum Displacement     0.196852     0.001800     NO 
 RMS     Displacement     0.051182     0.001200     NO 
 Predicted change in Energy=-2.646800D-02
 Lowest energy point so far.  Saving SCF results.
 GradGradGradGradGradGradGradGradGradGradGradGradGradGradGradGradGradGrad

 Leave Link  103 at Tue Feb 25 12:21:02 2020, MaxMem=  6710886400 cpu:               0.9 elap:               0.1
 (Enter /opt/ohpc/pub/libs/gaussian/g16-A.03/haswell/g16/l202.exe)
                          Input orientation:                          
 ---------------------------------------------------------------------
 Center     Atomic      Atomic             Coordinates (Angstroms)
 Number     Number       Type             X           Y           Z
 ---------------------------------------------------------------------
      1          6           0       -1.173818    0.688574    0.000000
      2          6           0       -1.184145   -0.694455    0.000000
      3          6           0       -0.000000   -1.424479    0.000000
      4          6           0        1.184145   -0.694455   -0.000000
      5          6           0        1.173818    0.688574   -0.000000
      6          1           0        0.000000    2.378512   -0.000000
      7          1           0       -2.078711    1.293978    0.000000
      8          1           0       -2.147105   -1.204837    0.000000
      9          1           0       -0.000000   -2.513712    0.000000
     10          1           0        2.147105   -1.204837   -0.000000
     11          1           0        2.078711    1.293978   -0.000000
 ---------------------------------------------------------------------
                    Distance matrix (angstroms):
                    1          2          3          4          5
     1  C    0.000000
     2  C    1.383067   0.000000
     3  C    2.417197   1.391091   0.000000
     4  C    2.733635   2.368291   1.391091   0.000000
     5  C    2.347636   2.733635   2.417197   1.383067   0.000000
     6  H    2.057605   3.293224   3.802990   3.293224   2.057605
     7  H    1.088735   2.180392   3.422140   3.821007   3.308392
     8  H    2.128919   1.089854   2.158310   3.370121   3.822765
     9  H    3.410643   2.170691   1.089234   2.170691   3.410643
    10  H    3.822765   3.370121   2.158310   1.089854   2.128919
    11  H    3.308392   3.821007   3.422140   2.180392   1.088735
                    6          7          8          9         10
     6  H    0.000000
     7  H    2.344622   0.000000
     8  H    4.177373   2.499751   0.000000
     9  H    4.892224   4.338150   2.514600   0.000000
    10  H    4.177373   4.909337   4.294209   2.514600   0.000000
    11  H    2.344622   4.157422   4.909337   4.338150   2.499751
                   11
    11  H    0.000000
 Stoichiometry    C5H6
 Framework group  C2V[C2(HCH),SGV(C4H4)]
 Deg. of freedom    10
 Full point group                 C2V     NOp   4
 RotChk:  IX=0 Diff= 1.60D-16
 Largest Abelian subgroup         C2V     NOp   4
 Largest concise Abelian subgroup C2      NOp   2
                         Standard orientation:                         
 ---------------------------------------------------------------------
 Center     Atomic      Atomic             Coordinates (Angstroms)
 Number     Number       Type             X           Y           Z
 ---------------------------------------------------------------------
      1          6           0       -0.000000    1.173818   -0.926751
      2          6           0       -0.000000    1.184145    0.456278
      3          6           0       -0.000000   -0.000000    1.186302
      4          6           0       -0.000000   -1.184145    0.456278
      5          6           0       -0.000000   -1.173818   -0.926751
      6          1           0        0.000000    0.000000   -2.616688
      7          1           0       -0.000000    2.078711   -1.532154
      8          1           0       -0.000000    2.147105    0.966661
      9          1           0       -0.000000   -0.000000    2.275536
     10          1           0       -0.000000   -2.147105    0.966661
     11          1           0       -0.000000   -2.078711   -1.532154
 ---------------------------------------------------------------------
 Rotational constants (GHZ):           8.2579282           5.9650639           3.4633408
 Leave Link  202 at Tue Feb 25 12:21:02 2020, MaxMem=  6710886400 cpu:               0.3 elap:               0.0
 (Enter /opt/ohpc/pub/libs/gaussian/g16-A.03/haswell/g16/l301.exe)
 Standard basis: 6-31G (6D, 7F)
 Ernie: Thresh=  0.10000D-02 Tol=  0.10000D-05 Strict=F.
 There are    27 symmetry adapted cartesian basis functions of A1  symmetry.
 There are     4 symmetry adapted cartesian basis functions of A2  symmetry.
 There are     6 symmetry adapted cartesian basis functions of B1  symmetry.
 There are    20 symmetry adapted cartesian basis functions of B2  symmetry.
 There are    27 symmetry adapted basis functions of A1  symmetry.
 There are     4 symmetry adapted basis functions of A2  symmetry.
 There are     6 symmetry adapted basis functions of B1  symmetry.
 There are    20 symmetry adapted basis functions of B2  symmetry.
    57 basis functions,   134 primitive gaussians,    57 cartesian basis functions
    18 alpha electrons       18 beta electrons
       nuclear repulsion energy       146.1934335827 Hartrees.
 IExCor=33909 DFT=T Ex+Corr=LC-wHPBE ExCW=0 ScaHFX=  1.000000
 ScaDFX=  1.000000  1.000000  1.000000  1.000000 ScalE2=  1.000000  1.000000
 IRadAn=      5 IRanWt=     -1 IRanGd=            0 ICorTp=0 IEmpDi=  4
 HFx  wShort=  0.000000 wLong=  0.272500 cFull=  0.000000 cShort=  0.000000 cLong=  1.000000
 DFx  wShort=  0.000000 wLong=  0.272500 cFull=  0.000000 cShort=  1.000000 cLong=  0.000000
 NAtoms=   11 NActive=   11 NUniq=    7 SFac= 2.47D+00 NAtFMM=   60 NAOKFM=F Big=F
 Integral buffers will be    131072 words long.
 Raffenetti 2 integral format.
 Two-electron integral symmetry is turned on.
 Leave Link  301 at Tue Feb 25 12:21:02 2020, MaxMem=  6710886400 cpu:               1.0 elap:               0.1
 (Enter /opt/ohpc/pub/libs/gaussian/g16-A.03/haswell/g16/l302.exe)
 NPDir=0 NMtPBC=     1 NCelOv=     1 NCel=       1 NClECP=     1 NCelD=      1
         NCelK=      1 NCelE2=     1 NClLst=     1 CellRange=     0.0.
 One-electron integrals computed using PRISM.
 One-electron integral symmetry used in STVInt
 NBasis=    57 RedAO= T EigKep=  2.78D-03  NBF=    27     4     6    20
 NBsUse=    57 1.00D-06 EigRej= -1.00D+00 NBFU=    27     4     6    20
 Precomputing XC quadrature grid using
 IXCGrd= 4 IRadAn=           5 IRanWt=          -1 IRanGd=           0 AccXCQ= 0.00D+00.
 Generated NRdTot=       0 NPtTot=           0 NUsed=           0 NTot=          32
 NSgBfM=    57    57    57    57    57 MxSgAt=    11 MxSgA2=    11.
 Leave Link  302 at Tue Feb 25 12:21:02 2020, MaxMem=  6710886400 cpu:               3.2 elap:               0.2
 (Enter /opt/ohpc/pub/libs/gaussian/g16-A.03/haswell/g16/l303.exe)
 DipDrv:  MaxL=1.
 Leave Link  303 at Tue Feb 25 12:21:02 2020, MaxMem=  6710886400 cpu:               0.6 elap:               0.1
 (Enter /opt/ohpc/pub/libs/gaussian/g16-A.03/haswell/g16/l401.exe)
 Initial guess from the checkpoint file:  "/scratch/smgo234/Ocelot/test/1b/Gau-36632.chk"
 B after Tr=     0.000000    0.000000   -0.000000
         Rot=    1.000000   -0.000000    0.000000    0.000000 Ang=   0.00 deg.
 Guess basis will be translated and rotated to current coordinates.
 JPrj=2 DoOrth=T DoCkMO=T.
 Initial guess orbital symmetries:
 Alpha Orbitals:
       Occupied  (B2) (A1) (B2) (A1) (A1) (A1) (B2) (A1) (B2) (A1)
                 (A1) (B2) (B2) (A1) (B1) (A1) (A2) (B1)
       Virtual   (A1) (B2) (A2) (A1) (B1) (B2) (A1) (B2) (A1) (A1)
                 (B2) (A1) (B2) (B2) (B1) (A2) (B1) (A1) (A1) (B2)
                 (A1) (A2) (A1) (B1) (B2) (A1) (B2) (A1) (B2) (A1)
                 (A1) (A1) (B2) (A1) (B2) (B2) (A1) (A1) (B2)
 Beta  Orbitals:
       Occupied  (B2) (A1) (B2) (A1) (A1) (A1) (B2) (A1) (B2) (A1)
                 (A1) (B2) (B2) (A1) (B1) (A1) (A2) (B1)
       Virtual   (A1) (B2) (A2) (A1) (B1) (B2) (A1) (B2) (A1) (A1)
                 (B2) (A1) (B2) (B2) (B1) (A2) (B1) (A1) (A1) (B2)
                 (A1) (A2) (A1) (B1) (B2) (A1) (B2) (A1) (B2) (A1)
                 (A1) (A1) (B2) (A1) (B2) (B2) (A1) (A1) (B2)
 The electronic state of the initial guess is 1-A1.
 Initial guess <Sx>= 0.0000 <Sy>= 0.0000 <Sz>= 0.0000 <S**2>=-0.0000 S=-0.0000
 Generating alternative initial guess.
 ExpMin= 1.61D-01 ExpMax= 3.05D+03 ExpMxC= 4.57D+02 IAcc=2 IRadAn=         4 AccDes= 0.00D+00
 Harris functional with IExCor=33909 and IRadAn=       4 diagonalized for initial guess.
 HarFok:  IExCor=33909 AccDes= 0.00D+00 IRadAn=         4 IDoV= 1 UseB2=F ITyADJ=14
 ICtDFT=  3500011 ScaDFX=  1.000000  1.000000  1.000000  1.000000
 FoFCou: FMM=F IPFlag=           0 FMFlag=      100000 FMFlg1=           0
         NFxFlg=           0 DoJE=T BraDBF=F KetDBF=T FulRan=T
         wScrn=  0.000000 ICntrl=       500 IOpCl=  0 I1Cent=   200000004 NGrid=           0
         NMat0=    1 NMatS0=      1 NMatT0=    0 NMatD0=    1 NMtDS0=    0 NMtDT0=    0
 Petite list used in FoFCou.
 Harris En= -188.584868795813    
 Leave Link  401 at Tue Feb 25 12:21:03 2020, MaxMem=  6710886400 cpu:               6.5 elap:               0.4
 (Enter /opt/ohpc/pub/libs/gaussian/g16-A.03/haswell/g16/l502.exe)
 Keep R1 and R2 ints in memory in symmetry-blocked form, NReq=16815659.
 FoFCou: FMM=F IPFlag=           0 FMFlag=           0 FMFlg1=           0
         NFxFlg=           0 DoJE=F BraDBF=F KetDBF=F FulRan=T
         wScrn=  0.000000 ICntrl=       600 IOpCl=  0 I1Cent=           0 NGrid=           0
         NMat0=    1 NMatS0=   1653 NMatT0=    0 NMatD0=    1 NMtDS0=    0 NMtDT0=    0
 Petite list used in FoFCou.
 UHF open shell SCF:
 Using DIIS extrapolation, IDIIS=  1040.
 NGot=  6710886400 LenX=  6710059583 LenY=  6710055893
 Requested convergence on RMS density matrix=1.00D-08 within 128 cycles.
 Requested convergence on MAX density matrix=1.00D-06.
 Requested convergence on             energy=1.00D-06.
 No special actions if energy rises.
 Integral accuracy reduced to 1.0D-05 until final iterations.

 Cycle   1  Pass 0  IDiag  1:
 E= -193.576243213574    
 DIIS: error= 3.34D-03 at cycle   1 NSaved=   1.
 NSaved= 1 IEnMin= 1 EnMin= -193.576243213574     IErMin= 1 ErrMin= 3.34D-03
 ErrMax= 3.34D-03  0.00D+00 EMaxC= 1.00D-01 BMatC= 2.33D-03 BMatP= 2.33D-03
 IDIUse=3 WtCom= 9.67D-01 WtEn= 3.34D-02
 Coeff-Com:  0.100D+01
 Coeff-En:   0.100D+01
 Coeff:      0.100D+01
 Gap=     0.188 Goal=   None    Shift=    0.000
 Gap=     0.188 Goal=   None    Shift=    0.000
 GapD=    0.188 DampG=1.000 DampE=1.000 DampFc=1.0000 IDamp=-1.
 RMSDP=7.72D-04 MaxDP=5.86D-03              OVMax= 9.47D-03

 Cycle   2  Pass 0  IDiag  1:
 E= -193.577218496303     Delta-E=       -0.000975282729 Rises=F Damp=F
 DIIS: error= 1.29D-03 at cycle   2 NSaved=   2.
 NSaved= 2 IEnMin= 2 EnMin= -193.577218496303     IErMin= 2 ErrMin= 1.29D-03
 ErrMax= 1.29D-03  0.00D+00 EMaxC= 1.00D-01 BMatC= 2.99D-04 BMatP= 2.33D-03
 IDIUse=3 WtCom= 9.87D-01 WtEn= 1.29D-02
 Coeff-Com:  0.507D-01 0.949D+00
 Coeff-En:   0.000D+00 0.100D+01
 Coeff:      0.501D-01 0.950D+00
 Gap=     0.187 Goal=   None    Shift=    0.000
 Gap=     0.187 Goal=   None    Shift=    0.000
 RMSDP=2.83D-04 MaxDP=3.73D-03 DE=-9.75D-04 OVMax= 5.46D-03

 Cycle   3  Pass 0  IDiag  1:
 E= -193.577258682005     Delta-E=       -0.000040185702 Rises=F Damp=F
 DIIS: error= 1.35D-03 at cycle   3 NSaved=   3.
 NSaved= 3 IEnMin= 3 EnMin= -193.577258682005     IErMin= 2 ErrMin= 1.29D-03
 ErrMax= 1.35D-03  0.00D+00 EMaxC= 1.00D-01 BMatC= 2.59D-04 BMatP= 2.99D-04
 IDIUse=3 WtCom= 9.86D-01 WtEn= 1.35D-02
 Coeff-Com: -0.101D+00 0.519D+00 0.582D+00
 Coeff-En:   0.000D+00 0.345D+00 0.655D+00
 Coeff:     -0.998D-01 0.517D+00 0.583D+00
 Gap=     0.186 Goal=   None    Shift=    0.000
 Gap=     0.186 Goal=   None    Shift=    0.000
 RMSDP=1.55D-04 MaxDP=1.64D-03 DE=-4.02D-05 OVMax= 2.80D-03

 Cycle   4  Pass 0  IDiag  1:
 E= -193.577333420638     Delta-E=       -0.000074738634 Rises=F Damp=F
 DIIS: error= 1.73D-04 at cycle   4 NSaved=   4.
 NSaved= 4 IEnMin= 4 EnMin= -193.577333420638     IErMin= 4 ErrMin= 1.73D-04
 ErrMax= 1.73D-04  0.00D+00 EMaxC= 1.00D-01 BMatC= 5.01D-06 BMatP= 2.59D-04
 IDIUse=3 WtCom= 9.98D-01 WtEn= 1.73D-03
 Coeff-Com: -0.310D-01 0.948D-01 0.168D+00 0.769D+00
 Coeff-En:   0.000D+00 0.000D+00 0.000D+00 0.100D+01
 Coeff:     -0.309D-01 0.946D-01 0.167D+00 0.769D+00
 Gap=     0.187 Goal=   None    Shift=    0.000
 Gap=     0.187 Goal=   None    Shift=    0.000
 RMSDP=2.76D-05 MaxDP=3.11D-04 DE=-7.47D-05 OVMax= 5.91D-04

 Cycle   5  Pass 0  IDiag  1:
 E= -193.577335303351     Delta-E=       -0.000001882713 Rises=F Damp=F
 DIIS: error= 6.72D-05 at cycle   5 NSaved=   5.
 NSaved= 5 IEnMin= 5 EnMin= -193.577335303351     IErMin= 5 ErrMin= 6.72D-05
 ErrMax= 6.72D-05  0.00D+00 EMaxC= 1.00D-01 BMatC= 6.97D-07 BMatP= 5.01D-06
 IDIUse=1 WtCom= 1.00D+00 WtEn= 0.00D+00
 Coeff-Com:  0.925D-02-0.636D-01-0.537D-01 0.198D+00 0.910D+00
 Coeff:      0.925D-02-0.636D-01-0.537D-01 0.198D+00 0.910D+00
 Gap=     0.186 Goal=   None    Shift=    0.000
 Gap=     0.186 Goal=   None    Shift=    0.000
 RMSDP=1.46D-05 MaxDP=8.17D-05 DE=-1.88D-06 OVMax= 3.87D-04

 Cycle   6  Pass 0  IDiag  1:
 E= -193.577335670423     Delta-E=       -0.000000367071 Rises=F Damp=F
 DIIS: error= 1.87D-05 at cycle   6 NSaved=   6.
 NSaved= 6 IEnMin= 6 EnMin= -193.577335670423     IErMin= 6 ErrMin= 1.87D-05
 ErrMax= 1.87D-05  0.00D+00 EMaxC= 1.00D-01 BMatC= 2.07D-08 BMatP= 6.97D-07
 IDIUse=1 WtCom= 1.00D+00 WtEn= 0.00D+00
 Coeff-Com:  0.208D-02-0.574D-02-0.112D-01-0.585D-01 0.225D-01 0.105D+01
 Coeff:      0.208D-02-0.574D-02-0.112D-01-0.585D-01 0.225D-01 0.105D+01
 Gap=     0.186 Goal=   None    Shift=    0.000
 Gap=     0.186 Goal=   None    Shift=    0.000
 RMSDP=3.26D-06 MaxDP=2.25D-05 DE=-3.67D-07 OVMax= 1.11D-04

 Initial convergence to 1.0D-05 achieved.  Increase integral accuracy.
 Cycle   7  Pass 1  IDiag  1:
 E= -193.577331954208     Delta-E=        0.000003716215 Rises=F Damp=F
 DIIS: error= 3.58D-06 at cycle   1 NSaved=   1.
 NSaved= 1 IEnMin= 1 EnMin= -193.577331954208     IErMin= 1 ErrMin= 3.58D-06
 ErrMax= 3.58D-06  0.00D+00 EMaxC= 1.00D-01 BMatC= 1.67D-09 BMatP= 1.67D-09
 IDIUse=1 WtCom= 1.00D+00 WtEn= 0.00D+00
 Coeff-Com:  0.100D+01
 Coeff:      0.100D+01
 Gap=     0.186 Goal=   None    Shift=    0.000
 Gap=     0.186 Goal=   None    Shift=    0.000
 RMSDP=3.26D-06 MaxDP=2.25D-05 DE= 3.72D-06 OVMax= 1.74D-05

 Cycle   8  Pass 1  IDiag  1:
 E= -193.577331955351     Delta-E=       -0.000000001143 Rises=F Damp=F
 DIIS: error= 1.49D-06 at cycle   2 NSaved=   2.
 NSaved= 2 IEnMin= 2 EnMin= -193.577331955351     IErMin= 2 ErrMin= 1.49D-06
 ErrMax= 1.49D-06  0.00D+00 EMaxC= 1.00D-01 BMatC= 2.36D-10 BMatP= 1.67D-09
 IDIUse=1 WtCom= 1.00D+00 WtEn= 0.00D+00
 Coeff-Com:  0.183D-01 0.982D+00
 Coeff:      0.183D-01 0.982D+00
 Gap=     0.186 Goal=   None    Shift=    0.000
 Gap=     0.186 Goal=   None    Shift=    0.000
 RMSDP=3.60D-07 MaxDP=3.96D-06 DE=-1.14D-09 OVMax= 6.58D-06

 Cycle   9  Pass 1  IDiag  1:
 E= -193.577331955494     Delta-E=       -0.000000000142 Rises=F Damp=F
 DIIS: error= 9.02D-07 at cycle   3 NSaved=   3.
 NSaved= 3 IEnMin= 3 EnMin= -193.577331955494     IErMin= 3 ErrMin= 9.02D-07
 ErrMax= 9.02D-07  0.00D+00 EMaxC= 1.00D-01 BMatC= 1.43D-10 BMatP= 2.36D-10
 IDIUse=1 WtCom= 1.00D+00 WtEn= 0.00D+00
 Coeff-Com: -0.130D+00 0.461D+00 0.670D+00
 Coeff:     -0.130D+00 0.461D+00 0.670D+00
 Gap=     0.186 Goal=   None    Shift=    0.000
 Gap=     0.186 Goal=   None    Shift=    0.000
 RMSDP=1.49D-07 MaxDP=1.36D-06 DE=-1.42D-10 OVMax= 2.90D-06

 Cycle  10  Pass 1  IDiag  1:
 E= -193.577331955550     Delta-E=       -0.000000000056 Rises=F Damp=F
 DIIS: error= 2.82D-07 at cycle   4 NSaved=   4.
 NSaved= 4 IEnMin= 4 EnMin= -193.577331955550     IErMin= 4 ErrMin= 2.82D-07
 ErrMax= 2.82D-07  0.00D+00 EMaxC= 1.00D-01 BMatC= 1.04D-11 BMatP= 1.43D-10
 IDIUse=1 WtCom= 1.00D+00 WtEn= 0.00D+00
 Coeff-Com: -0.480D-01 0.246D-01 0.180D+00 0.843D+00
 Coeff:     -0.480D-01 0.246D-01 0.180D+00 0.843D+00
 Gap=     0.186 Goal=   None    Shift=    0.000
 Gap=     0.186 Goal=   None    Shift=    0.000
 RMSDP=5.30D-08 MaxDP=4.37D-07 DE=-5.63D-11 OVMax= 1.47D-06

 Cycle  11  Pass 1  IDiag  1:
 E= -193.577331955556     Delta-E=       -0.000000000006 Rises=F Damp=F
 DIIS: error= 1.42D-07 at cycle   5 NSaved=   5.
 NSaved= 5 IEnMin= 5 EnMin= -193.577331955556     IErMin= 5 ErrMin= 1.42D-07
 ErrMax= 1.42D-07  0.00D+00 EMaxC= 1.00D-01 BMatC= 2.46D-12 BMatP= 1.04D-11
 IDIUse=1 WtCom= 1.00D+00 WtEn= 0.00D+00
 Coeff-Com:  0.387D-02-0.657D-01-0.447D-01 0.345D+00 0.762D+00
 Coeff:      0.387D-02-0.657D-01-0.447D-01 0.345D+00 0.762D+00
 Gap=     0.186 Goal=   None    Shift=    0.000
 Gap=     0.186 Goal=   None    Shift=    0.000
 RMSDP=2.27D-08 MaxDP=2.10D-07 DE=-6.20D-12 OVMax= 4.92D-07

 Cycle  12  Pass 1  IDiag  1:
 E= -193.577331955558     Delta-E=       -0.000000000001 Rises=F Damp=F
 DIIS: error= 2.79D-08 at cycle   6 NSaved=   6.
 NSaved= 6 IEnMin= 6 EnMin= -193.577331955558     IErMin= 6 ErrMin= 2.79D-08
 ErrMax= 2.79D-08  0.00D+00 EMaxC= 1.00D-01 BMatC= 1.34D-13 BMatP= 2.46D-12
 IDIUse=1 WtCom= 1.00D+00 WtEn= 0.00D+00
 Coeff-Com:  0.638D-02-0.166D-01-0.284D-01-0.426D-01 0.158D+00 0.923D+00
 Coeff:      0.638D-02-0.166D-01-0.284D-01-0.426D-01 0.158D+00 0.923D+00
 Gap=     0.186 Goal=   None    Shift=    0.000
 Gap=     0.186 Goal=   None    Shift=    0.000
 RMSDP=8.51D-09 MaxDP=6.22D-08 DE=-1.08D-12 OVMax= 1.85D-07

 SCF Done:  E(ULC-wHPBE) =  -193.577331956     A.U. after   12 cycles
            NFock= 12  Conv=0.85D-08     -V/T= 2.0084
 <Sx>= 0.0000 <Sy>= 0.0000 <Sz>= 0.0000 <S**2>=-0.0000 S=-0.0000
 <L.S>= 0.000000000000E+00
 KE= 1.919639699073D+02 PE=-7.408473524609D+02 EE= 2.091126170154D+02
 Annihilation of the first spin contaminant:
 S**2 before annihilation    -0.0000,   after     0.0000
 Leave Link  502 at Tue Feb 25 12:21:04 2020, MaxMem=  6710886400 cpu:              15.6 elap:               1.0
 (Enter /opt/ohpc/pub/libs/gaussian/g16-A.03/haswell/g16/l701.exe)
 ... and contract with generalized density number  0.
 Compute integral first derivatives.
 Leave Link  701 at Tue Feb 25 12:21:04 2020, MaxMem=  6710886400 cpu:               2.7 elap:               0.2
 (Enter /opt/ohpc/pub/libs/gaussian/g16-A.03/haswell/g16/l702.exe)
 L702 exits ... SP integral derivatives will be done elsewhere.
 Leave Link  702 at Tue Feb 25 12:21:04 2020, MaxMem=  6710886400 cpu:               0.3 elap:               0.0
 (Enter /opt/ohpc/pub/libs/gaussian/g16-A.03/haswell/g16/l703.exe)
 Integral derivatives from FoFJK, PRISM(SPDF).
 Compute integral first derivatives, UseDBF=F ICtDFT=           0.
 Calling FoFJK, ICntrl=      2127 FMM=F ISym2X=1 I1Cent= 0 IOpClX= 1 NMat=1 NMatS=1 NMatT=0.
 FoFJK:  IHMeth= 1 ICntrl=    2127 DoSepK=T KAlg= 0 I1Cent=           0 FoldK=F
 IRaf=         1 NMat=       1 IRICut=       1 DoRegI=T DoRafI=F ISym2E= 1 IDoP0=0 IntGTp=1.
 FoFCou: FMM=F IPFlag=           0 FMFlag=      100000 FMFlg1=         800
         NFxFlg=           0 DoJE=F BraDBF=F KetDBF=F FulRan=T
         wScrn=  0.000000 ICntrl=      2527 IOpCl=  0 I1Cent=           0 NGrid=           0
         NMat0=    1 NMatS0=      1 NMatT0=    0 NMatD0=    1 NMtDS0=    0 NMtDT0=    0
 Petite list used in FoFCou.
 Leave Link  703 at Tue Feb 25 12:21:05 2020, MaxMem=  6710886400 cpu:               8.0 elap:               0.5
 (Enter /opt/ohpc/pub/libs/gaussian/g16-A.03/haswell/g16/l716.exe)
 Dipole        =-5.57965403D-17 1.33226763D-15-5.36438388D-01
 ***** Axes restored to original set *****
 -------------------------------------------------------------------
 Center     Atomic                   Forces (Hartrees/Bohr)
 Number     Number              X              Y              Z
 -------------------------------------------------------------------
      1        6          -0.005672733    0.004033349   -0.000000000
      2        6           0.032933584    0.025288718    0.000000000
      3        6           0.000000000   -0.031477946   -0.000000000
      4        6          -0.032933584    0.025288718    0.000000000
      5        6           0.005672733    0.004033349   -0.000000000
      6        1          -0.000000000   -0.075962096   -0.000000000
      7        1           0.014279390    0.017061833    0.000000000
      8        1          -0.004519992    0.006394378    0.000000000
      9        1           0.000000000    0.001883487    0.000000000
     10        1           0.004519992    0.006394378    0.000000000
     11        1          -0.014279390    0.017061833    0.000000000
 -------------------------------------------------------------------
 Cartesian Forces:  Max     0.075962096 RMS     0.018604721
 Leave Link  716 at Tue Feb 25 12:21:05 2020, MaxMem=  6710886400 cpu:               1.6 elap:               0.2
 (Enter /opt/ohpc/pub/libs/gaussian/g16-A.03/haswell/g16/l103.exe)

 GradGradGradGradGradGradGradGradGradGradGradGradGradGradGradGradGradGrad
 Berny optimization.
 Using GEDIIS/GDIIS optimizer.
 FormGI is forming the generalized inverse of G from B-inverse, IUseBI=4.
 Internal  Forces:  Max     0.047897168 RMS     0.013692754
 Search for a local minimum.
 Step number   2 out of a maximum of   57
 All quantities printed in internal units (Hartrees-Bohrs-Radians)
 RMS Force = .13693D-01 SwitMx=.10000D-02 MixMth= 1
 Mixed Optimization -- RFO/linear search
 Update second derivatives using D2CorX and points    1    2
 DE= -2.84D-02 DEPred=-2.65D-02 R= 1.07D+00
 TightC=F SS=  1.41D+00  RLast= 3.00D-01 DXNew= 5.0454D-01 9.0000D-01
 Trust test= 1.07D+00 RLast= 3.00D-01 DXMaxT set to 5.05D-01
 ITU=  1  0
 Use linear search instead of GDIIS.
 Linear search step of   0.600 exceeds DXMaxT=   0.505 but not scaled.
 Quartic linear search produced a step of  2.00000.
 Iteration  1 RMS(Cart)=  0.07589531 RMS(Int)=  0.03485093
 Iteration  2 RMS(Cart)=  0.03315555 RMS(Int)=  0.00053355
 Iteration  3 RMS(Cart)=  0.00042365 RMS(Int)=  0.00047733
 Iteration  4 RMS(Cart)=  0.00000008 RMS(Int)=  0.00047733
 ITry= 1 IFail=0 DXMaxC= 3.89D-01 DCOld= 1.00D+10 DXMaxT= 5.05D-01 DXLimC= 3.00D+00 Rises=F
 ClnCor:  largest displacement from symmetrization is 1.26D-10 for atom     9.
 Variable       Old X    -DE/DX   Delta X   Delta X   Delta X     New X
                                 (Linear)    (Quad)   (Total)
    R1        2.61362  -0.01704  -0.03814   0.00000  -0.03813   2.57549
    R2        3.88831  -0.04790  -0.36968   0.00000  -0.36931   3.51900
    R3        2.05741  -0.00238  -0.00297   0.00000  -0.00297   2.05444
    R4        2.62878   0.00118  -0.00782   0.00000  -0.00833   2.62045
    R5        2.05953   0.00100   0.00126   0.00000   0.00126   2.06078
    R6        2.62878   0.00118  -0.00782   0.00000  -0.00833   2.62045
    R7        2.05835  -0.00188  -0.00109   0.00000  -0.00109   2.05727
    R8        2.61362  -0.01704  -0.03814   0.00000  -0.03813   2.57549
    R9        2.05953   0.00100   0.00126   0.00000   0.00126   2.06078
   R10        3.88831  -0.04790  -0.36968   0.00000  -0.36931   3.51900
   R11        2.05741  -0.00238  -0.00297   0.00000  -0.00297   2.05444
    A1        2.54197  -0.00383  -0.01105   0.00000  -0.01074   2.53124
    A2        2.15297   0.02467   0.11715   0.00000   0.11699   2.26996
    A3        1.58824  -0.02084  -0.10609   0.00000  -0.10625   1.48199
    A4        2.11579   0.01147   0.04279   0.00000   0.04204   2.15783
    A5        2.06563  -0.01373  -0.05752   0.00000  -0.05715   2.00849
    A6        2.10176   0.00226   0.01473   0.00000   0.01511   2.11687
    A7        2.03667  -0.02306  -0.11546   0.00000  -0.11683   1.91983
    A8        2.12326   0.01153   0.05773   0.00000   0.05842   2.18168
    A9        2.12326   0.01153   0.05773   0.00000   0.05842   2.18168
   A10        2.11579   0.01147   0.04279   0.00000   0.04204   2.15783
   A11        2.10176   0.00226   0.01473   0.00000   0.01511   2.11687
   A12        2.06563  -0.01373  -0.05752   0.00000  -0.05715   2.00849
   A13        2.54197  -0.00383  -0.01105   0.00000  -0.01074   2.53124
   A14        2.15297   0.02467   0.11715   0.00000   0.11699   2.26996
   A15        1.58824  -0.02084  -0.10609   0.00000  -0.10625   1.48199
   A16        1.21418   0.00777   0.05198   0.00000   0.05423   1.26840
    D1       -0.00000  -0.00000   0.00000   0.00000   0.00000   0.00000
    D2        3.14159  -0.00000   0.00000   0.00000   0.00000   3.14159
    D3        3.14159   0.00000   0.00000   0.00000   0.00000   3.14159
    D4        0.00000   0.00000   0.00000   0.00000  -0.00000   0.00000
[...]
      1          6           0       -0.897082    0.707088   -0.000000
      2          6           0       -1.134094   -0.653532   -0.000000
      3          6           0        0.000000   -1.471208   -0.000000
      4          6           0        1.134094   -0.653532   -0.000000
      5          6           0        0.897082    0.707088   -0.000000
      6          1           0       -0.000000    1.495199   -0.000000
      7          1           0       -1.622537    1.517580   -0.000000
      8          1           0       -2.164126   -1.002486   -0.000000
      9          1           0        0.000000   -2.554450   -0.000000
     10          1           0        2.164126   -1.002486   -0.000000
     11          1           0        1.622537    1.517580   -0.000000
 ---------------------------------------------------------------------
                    Distance matrix (angstroms):
                    1          2          3          4          5
     1  C    0.000000
     2  C    1.381109   0.000000
     3  C    2.355786   1.398128   0.000000
     4  C    2.444782   2.268188   1.398128   0.000000
     5  C    1.794163   2.444782   2.355786   1.381109   0.000000
     6  H    1.194100   2.429653   2.966407   2.429653   1.194100
     7  H    1.087743   2.225378   3.400806   3.508952   2.646767
     8  H    2.127920   1.087536   2.214304   3.316628   3.506228
     9  H    3.382660   2.213517   1.083242   2.213517   3.382660
    10  H    3.506228   3.316628   2.214304   1.087536   2.127920
    11  H    2.646767   3.508952   3.400806   2.225378   1.087743
                    6          7          8          9         10
     6  H    0.000000
     7  H    1.622692   0.000000
     8  H    3.304826   2.577606   0.000000
     9  H    4.049649   4.383385   2.663087   0.000000
    10  H    3.304826   4.548577   4.328252   2.663087   0.000000
    11  H    1.622692   3.245075   4.548577   4.383385   2.577606
                   11
    11  H    0.000000
 Stoichiometry    C5H6
 Framework group  C2V[C2(HCH),SGV(C4H4)]
 Deg. of freedom    10
 Full point group                 C2V     NOp   4
 RotChk:  IX=0 Diff= 1.94D-15
 Largest Abelian subgroup         C2V     NOp   4
 Largest concise Abelian subgroup C2      NOp   2
                         Standard orientation:                         
 ---------------------------------------------------------------------
 Center     Atomic      Atomic             Coordinates (Angstroms)
 Number     Number       Type             X           Y           Z
 ---------------------------------------------------------------------
      1          6           0        0.000000    0.897082   -0.935245
      2          6           0        0.000000    1.134094    0.425375
      3          6           0       -0.000000    0.000000    1.243051
      4          6           0       -0.000000   -1.134094    0.425375
      5          6           0       -0.000000   -0.897082   -0.935245
      6          1           0        0.000000   -0.000000   -1.723356
      7          1           0        0.000000    1.622537   -1.745737
      8          1           0        0.000000    2.164126    0.774330
      9          1           0       -0.000000    0.000000    2.326294
     10          1           0       -0.000000   -2.164126    0.774330
     11          1           0       -0.000000   -1.622537   -1.745737
 ---------------------------------------------------------------------
 Rotational constants (GHZ):           8.4725426           7.7835850           4.0567322
 Leave Link  202 at Tue Feb 25 12:21:34 2020, MaxMem=  6710886400 cpu:               0.2 elap:               0.0
 (Enter /opt/ohpc/pub/libs/gaussian/g16-A.03/haswell/g16/l601.exe)
 Copying SCF densities to generalized density rwf, IOpCl= 1 IROHF=0.

 **********************************************************************

            Population analysis using the SCF density.

 **********************************************************************

 Orbital symmetries:
 Alpha Orbitals:
       Occupied  (B2) (A1) (A1) (B2) (A1) (A1) (A1) (B2) (A1) (B2)
                 (A1) (B2) (A1) (A1) (B2) (B1) (A2) (B1)
       Virtual   (B2) (A2) (A1) (B1) (A1) (B2) (A1) (B2) (A1) (A1)
                 (B2) (A1) (B2) (B2) (B1) (A2) (B1) (A1) (A1) (B2)
                 (A1) (A2) (B1) (B2) (B2) (A1) (B2) (A1) (A1) (A1)
                 (B2) (A1) (A1) (B2) (A1) (B2) (A1) (A1) (B2)
 Beta  Orbitals:
       Occupied  (B2) (A1) (A1) (B2) (A1) (A1) (A1) (B2) (A1) (B2)
                 (A1) (B2) (A1) (A1) (B2) (B1) (A2) (B1)
       Virtual   (B2) (A2) (A1) (B1) (A1) (B2) (A1) (B2) (A1) (A1)
                 (B2) (A1) (B2) (B2) (B1) (A2) (B1) (A1) (A1) (B2)
                 (A1) (A2) (B1) (B2) (B2) (A1) (B2) (A1) (A1) (A1)
                 (B2) (A1) (A1) (B2) (A1) (B2) (A1) (A1) (B2)
 The electronic state is 1-A1.
 Alpha  occ. eigenvalues --  -10.08391 -10.08386 -10.04507 -10.04507 -10.01222
 Alpha  occ. eigenvalues --   -0.95009  -0.82634  -0.80026  -0.66010  -0.64827
 Alpha  occ. eigenvalues --   -0.60749  -0.50525  -0.49532  -0.46463  -0.45261
 Alpha  occ. eigenvalues --   -0.44537  -0.31440  -0.27120
 Alpha virt. eigenvalues --    0.09986   0.10799   0.15841   0.18054   0.18995
 Alpha virt. eigenvalues --    0.23508   0.25404   0.26997   0.27879   0.40813
 Alpha virt. eigenvalues --    0.41617   0.51226   0.52535   0.60945   0.62772
 Alpha virt. eigenvalues --    0.69448   0.70250   0.70508   0.72149   0.73615
 Alpha virt. eigenvalues --    0.74770   0.75781   0.78275   0.85337   0.91159
 Alpha virt. eigenvalues --    0.93967   0.95694   0.95796   0.98015   1.04599
 Alpha virt. eigenvalues --    1.04682   1.08638   1.12308   1.18673   1.26725
 Alpha virt. eigenvalues --    1.28556   1.34563   1.56254   1.57240
  Beta  occ. eigenvalues --  -10.08391 -10.08386 -10.04507 -10.04507 -10.01222
  Beta  occ. eigenvalues --   -0.95009  -0.82634  -0.80026  -0.66010  -0.64827
  Beta  occ. eigenvalues --   -0.60749  -0.50525  -0.49532  -0.46463  -0.45261
  Beta  occ. eigenvalues --   -0.44537  -0.31440  -0.27120
  Beta virt. eigenvalues --    0.09986   0.10799   0.15841   0.18054   0.18995
  Beta virt. eigenvalues --    0.23508   0.25404   0.26997   0.27879   0.40813
  Beta virt. eigenvalues --    0.41617   0.51226   0.52535   0.60945   0.62772
  Beta virt. eigenvalues --    0.69448   0.70250   0.70508   0.72149   0.73615
  Beta virt. eigenvalues --    0.74770   0.75781   0.78275   0.85337   0.91159
  Beta virt. eigenvalues --    0.93967   0.95694   0.95796   0.98015   1.04599
  Beta virt. eigenvalues --    1.04682   1.08638   1.12308   1.18673   1.26725
  Beta virt. eigenvalues --    1.28556   1.34563   1.56254   1.57240
          Condensed to atoms (all electrons):
               1          2          3          4          5          6
     1  C    5.419646   0.474134  -0.052155  -0.127603   0.250331   0.168803
     2  C    0.474134   4.898485   0.559809  -0.011441  -0.127603  -0.020537
     3  C   -0.052155   0.559809   4.799823   0.559809  -0.052155   0.004106
     4  C   -0.127603  -0.011441   0.559809   4.898485   0.474134  -0.020537
     5  C    0.250331  -0.127603  -0.052155   0.474134   5.419646   0.168803
     6  H    0.168803  -0.020537   0.004106  -0.020537   0.168803   0.407812
     7  H    0.344209  -0.002141   0.000306   0.004088  -0.024876  -0.010543
     8  H   -0.039085   0.362433  -0.017620   0.004786   0.001981   0.001045
     9  H    0.007070  -0.041923   0.373837  -0.041923   0.007070  -0.000116
    10  H    0.001981   0.004786  -0.017620   0.362433  -0.039085   0.001045
    11  H   -0.024876   0.004088   0.000306  -0.002141   0.344209  -0.010543
               7          8          9         10         11
     1  C    0.344209  -0.039085   0.007070   0.001981  -0.024876
     2  C   -0.002141   0.362433  -0.041923   0.004786   0.004088
     3  C    0.000306  -0.017620   0.373837  -0.017620   0.000306
     4  C    0.004088   0.004786  -0.041923   0.362433  -0.002141
     5  C   -0.024876   0.001981   0.007070  -0.039085   0.344209
     6  H   -0.010543   0.001045  -0.000116   0.001045  -0.010543
     7  H    0.474465  -0.000493  -0.000108  -0.000039   0.000777
     8  H   -0.000493   0.524701  -0.002668  -0.000177  -0.000039
     9  H   -0.000108  -0.002668   0.567651  -0.002668  -0.000108
    10  H   -0.000039  -0.000177  -0.002668   0.524701  -0.000493
    11  H    0.000777  -0.000039  -0.000108  -0.000493   0.474465
          Atomic-Atomic Spin Densities.
               1          2          3          4          5          6
     1  C   -0.000000  -0.000000   0.000000  -0.000000   0.000000   0.000000
     2  C   -0.000000   0.000000   0.000000   0.000000  -0.000000  -0.000000
     3  C    0.000000   0.000000  -0.000000   0.000000   0.000000   0.000000
     4  C   -0.000000   0.000000   0.000000   0.000000  -0.000000  -0.000000
     5  C    0.000000  -0.000000   0.000000  -0.000000  -0.000000   0.000000
     6  H    0.000000  -0.000000   0.000000  -0.000000   0.000000   0.000000
     7  H   -0.000000   0.000000  -0.000000   0.000000   0.000000  -0.000000
     8  H    0.000000  -0.000000   0.000000  -0.000000  -0.000000   0.000000
     9  H    0.000000  -0.000000  -0.000000  -0.000000   0.000000   0.000000
    10  H   -0.000000  -0.000000   0.000000  -0.000000   0.000000   0.000000
    11  H    0.000000   0.000000  -0.000000   0.000000  -0.000000  -0.000000
               7          8          9         10         11
     1  C   -0.000000   0.000000   0.000000  -0.000000   0.000000
     2  C    0.000000  -0.000000  -0.000000  -0.000000   0.000000
     3  C   -0.000000   0.000000  -0.000000   0.000000  -0.000000
     4  C    0.000000  -0.000000  -0.000000  -0.000000   0.000000
     5  C    0.000000  -0.000000   0.000000   0.000000  -0.000000
     6  H   -0.000000   0.000000   0.000000   0.000000  -0.000000
     7  H   -0.000000   0.000000  -0.000000  -0.000000   0.000000
     8  H    0.000000  -0.000000   0.000000   0.000000  -0.000000
     9  H   -0.000000   0.000000  -0.000000   0.000000  -0.000000
    10  H   -0.000000   0.000000   0.000000  -0.000000   0.000000
    11  H    0.000000  -0.000000  -0.000000   0.000000  -0.000000
 Mulliken charges and spin densities:
               1          2
     1  C   -0.422453  -0.000000
     2  C   -0.100090   0.000000
     3  C   -0.158447  -0.000000
     4  C   -0.100090   0.000000
     5  C   -0.422453  -0.000000
     6  H    0.310662   0.000000
     7  H    0.214356  -0.000000
     8  H    0.165136  -0.000000
     9  H    0.133888  -0.000000
    10  H    0.165136  -0.000000
    11  H    0.214356  -0.000000
 Sum of Mulliken charges =  -0.00000  -0.00000
 Mulliken charges and spin densities with hydrogens summed into heavy atoms:
               1          2
     1  C    0.102565   0.000000
     2  C    0.065046  -0.000000
     3  C   -0.024559  -0.000000
     4  C    0.065046  -0.000000
     5  C   -0.208097  -0.000000
 Electronic spatial extent (au):  <R**2>=            340.0323
 Charge=              0.0000 electrons
 Dipole moment (field-independent basis, Debye):
    X=             -0.0000    Y=             -0.0000    Z=             -1.9407  Tot=              1.9407
 Quadrupole moment (field-independent basis, Debye-Ang):
   XX=            -35.6156   YY=            -26.1039   ZZ=            -24.1664
   XY=              0.0000   XZ=              0.0000   YZ=             -0.0000
 Traceless Quadrupole moment (field-independent basis, Debye-Ang):
   XX=             -6.9870   YY=              2.5247   ZZ=              4.4622
   XY=              0.0000   XZ=              0.0000   YZ=             -0.0000
 Octapole moment (field-independent basis, Debye-Ang**2):
  XXX=              0.0000  YYY=              0.0000  ZZZ=             -8.6888  XYY=              0.0000
  XXY=             -0.0000  XXZ=              0.8803  XZZ=              0.0000  YZZ=             -0.0000
  YYZ=             -1.1176  XYZ=             -0.0000
 Hexadecapole moment (field-independent basis, Debye-Ang**3):
 XXXX=            -38.3729 YYYY=           -191.4015 ZZZZ=           -176.7576 XXXY=             -0.0000
 XXXZ=             -0.0000 YYYX=             -0.0000 YYYZ=             -0.0000 ZZZX=             -0.0000
 ZZZY=             -0.0000 XXYY=            -48.3540 XXZZ=            -46.8376 YYZZ=            -60.1147
 XXYZ=             -0.0000 YYXZ=             -0.0000 ZZXY=             -0.0000
 N-N= 1.551468643452D+02 E-N=-7.591248843141D+02  KE= 1.926196923041D+02
 Symmetry A1   KE= 1.108339219593D+02
 Symmetry A2   KE= 2.402585068718D+00
 Symmetry B1   KE= 4.208324152593D+00
 Symmetry B2   KE= 7.517486112352D+01
 Symmetry A1   SP=-1.614363551580D-14
 Symmetry A2   SP=-1.434904680104D-15
 Symmetry B1   SP= 6.698368997607D-15
 Symmetry B2   SP=-2.355338452163D-14
                          Isotropic Fermi Contact Couplings
        Atom                 a.u.       MegaHertz       Gauss      10(-4) cm-1
     1  C(13)             -0.00000      -0.00000      -0.00000      -0.00000
     2  C(13)             -0.00000      -0.00000      -0.00000      -0.00000
     3  C(13)             -0.00000      -0.00000      -0.00000      -0.00000
     4  C(13)             -0.00000      -0.00000      -0.00000      -0.00000
     5  C(13)             -0.00000      -0.00000      -0.00000      -0.00000
     6  H(1)              -0.00000      -0.00000      -0.00000      -0.00000
     7  H(1)              -0.00000      -0.00000      -0.00000      -0.00000
     8  H(1)              -0.00000      -0.00000      -0.00000      -0.00000
     9  H(1)              -0.00000      -0.00000      -0.00000      -0.00000
    10  H(1)              -0.00000      -0.00000      -0.00000      -0.00000
    11  H(1)              -0.00000      -0.00000      -0.00000      -0.00000
 --------------------------------------------------------
       Center         ----  Spin Dipole Couplings  ----
                      3XX-RR        3YY-RR        3ZZ-RR
 --------------------------------------------------------
     1   Atom        0.000000      0.000000      0.000000
     2   Atom        0.000000      0.000000      0.000000
     3   Atom        0.000000      0.000000      0.000000
     4   Atom        0.000000      0.000000      0.000000
     5   Atom        0.000000      0.000000      0.000000
     6   Atom        0.000000      0.000000      0.000000
     7   Atom        0.000000      0.000000      0.000000
     8   Atom        0.000000      0.000000      0.000000
     9   Atom        0.000000      0.000000      0.000000
    10   Atom        0.000000      0.000000      0.000000
    11   Atom        0.000000      0.000000      0.000000
 --------------------------------------------------------
                        XY            XZ            YZ
 --------------------------------------------------------
     1   Atom        0.000000      0.000000      0.000000
     2   Atom        0.000000      0.000000      0.000000
     3   Atom        0.000000      0.000000      0.000000
     4   Atom        0.000000      0.000000      0.000000
     5   Atom        0.000000      0.000000      0.000000
     6   Atom        0.000000      0.000000      0.000000
     7   Atom        0.000000      0.000000      0.000000
     8   Atom        0.000000      0.000000      0.000000
     9   Atom        0.000000      0.000000      0.000000
    10   Atom        0.000000      0.000000      0.000000
    11   Atom        0.000000      0.000000      0.000000
 --------------------------------------------------------


 ---------------------------------------------------------------------------------
              Anisotropic Spin Dipole Couplings in Principal Axis System
 ---------------------------------------------------------------------------------

       Atom             a.u.   MegaHertz   Gauss  10(-4) cm-1        Axes

              Baa     0.0000     0.000     0.000     0.000  1.0000  0.0000  0.0000
     1 C(13)  Bbb     0.0000     0.000     0.000     0.000 -0.0000  1.0000  0.0000
              Bcc     0.0000     0.000     0.000     0.000  0.0000  0.0000  1.0000
 
              Baa     0.0000     0.000     0.000     0.000  1.0000  0.0000  0.0000
     2 C(13)  Bbb     0.0000     0.000     0.000     0.000 -0.0000  1.0000  0.0000
              Bcc     0.0000     0.000     0.000     0.000  0.0000  0.0000  1.0000
 
              Baa     0.0000     0.000     0.000     0.000  1.0000  0.0000  0.0000
     3 C(13)  Bbb     0.0000     0.000     0.000     0.000 -0.0000  1.0000  0.0000
              Bcc     0.0000     0.000     0.000     0.000  0.0000  0.0000  1.0000
 
              Baa     0.0000     0.000     0.000     0.000  1.0000  0.0000  0.0000
     4 C(13)  Bbb     0.0000     0.000     0.000     0.000 -0.0000  1.0000  0.0000
              Bcc     0.0000     0.000     0.000     0.000  0.0000  0.0000  1.0000
 
              Baa     0.0000     0.000     0.000     0.000  1.0000  0.0000  0.0000
     5 C(13)  Bbb     0.0000     0.000     0.000     0.000 -0.0000  1.0000  0.0000
              Bcc     0.0000     0.000     0.000     0.000  0.0000  0.0000  1.0000
 
              Baa     0.0000     0.000     0.000     0.000  1.0000  0.0000  0.0000
     6 H(1)   Bbb     0.0000     0.000     0.000     0.000 -0.0000  1.0000  0.0000
              Bcc     0.0000     0.000     0.000     0.000  0.0000  0.0000  1.0000
 
              Baa     0.0000     0.000     0.000     0.000  1.0000  0.0000  0.0000
     7 H(1)   Bbb     0.0000     0.000     0.000     0.000 -0.0000  1.0000  0.0000
              Bcc     0.0000     0.000     0.000     0.000  0.0000  0.0000  1.0000
 
              Baa     0.0000     0.000     0.000     0.000  1.0000  0.0000  0.0000
     8 H(1)   Bbb     0.0000     0.000     0.000     0.000 -0.0000  1.0000  0.0000
              Bcc     0.0000     0.000     0.000     0.000  0.0000  0.0000  1.0000
 
              Baa     0.0000     0.000     0.000     0.000  1.0000  0.0000  0.0000
     9 H(1)   Bbb     0.0000     0.000     0.000     0.000 -0.0000  1.0000  0.0000
              Bcc     0.0000     0.000     0.000     0.000  0.0000  0.0000  1.0000
 
              Baa     0.0000     0.000     0.000     0.000  1.0000  0.0000  0.0000
    10 H(1)   Bbb     0.0000     0.000     0.000     0.000 -0.0000  1.0000  0.0000
              Bcc     0.0000     0.000     0.000     0.000  0.0000  0.0000  1.0000
 
              Baa     0.0000     0.000     0.000     0.000  1.0000  0.0000  0.0000
    11 H(1)   Bbb     0.0000     0.000     0.000     0.000 -0.0000  1.0000  0.0000
              Bcc     0.0000     0.000     0.000     0.000  0.0000  0.0000  1.0000
 

 ---------------------------------------------------------------------------------

 No NMR shielding tensors so no spin-rotation constants.
 Leave Link  601 at Tue Feb 25 12:21:34 2020, MaxMem=  6710886400 cpu:               3.0 elap:               0.2
 (Enter /opt/ohpc/pub/libs/gaussian/g16-A.03/haswell/g16/l9999.exe)

 Test job not archived.
 1\1\GINC-HASWELL008\FOpt\ULC-wHPBE\6-31G\C5H6\SMGO234\25-Feb-2020\0\\#
 P uLC-wHPBE/6-31G iop(3/107=0272500000, 3/108=0272500000) opt\\H6 C5\\
 0,1\C,-0.8970816581,0.7070878151,0.\C,-1.1340938883,-0.6535322946,0.\C
 ,0.,-1.471208155,0.\C,1.1340938883,-0.6535322946,0.\C,0.8970816581,0.7
 070878151,0.\H,0.,1.4951991625,0.\H,-1.6225372806,1.5175804673,0.\H,-2
 .1641261806,-1.0024863262,0.\H,0.,-2.5544503309,0.\H,2.1641261806,-1.0
 024863262,0.\H,1.6225372806,1.5175804673,0.\\Version=ES64L-G16RevA.03\
 State=1-A1\HF=-193.7401283\S2=0.\S2-1=0.\S2A=0.\RMSD=2.434e-09\RMSF=1.
 906e-05\Dipole=0.,0.7635209,0.\Quadrupole=1.8770673,3.3175718,-5.19463
 91,0.,0.,0.\PG=C02V [C2(H1C1H1),SGV(C4H4)]\\@


 BE LIKE A POSTAGE STAMP.  STICK TO ONE THING UNTIL
 YOU GET THERE -- JOSH BILLINGS
 Job cpu time:       0 days  0 hours  8 minutes 24.3 seconds.
 Elapsed time:       0 days  0 hours  0 minutes 35.8 seconds.
 File lengths (MBytes):  RWF=    272 Int=      0 D2E=      0 Chk=     32 Scr=     32
 Normal termination of Gaussian 16 at Tue Feb 25 12:21:34 2020.
