 Entering Gaussian System, Link 0=g16
 Input=1b_opt_0.gjf
 Output=1b_opt_0.log
 Initial command:
 /opt/ohpc/pub/libs/gaussian/g16-A.03/sandybridge/g16/l1.exe "/pscratch/cmri235_uksr/ocelot/fw/dev/ocelot_api/tests/wtuning_test/1b/Gau-62686.inp" -scrdir="/pscratch/cmri235_uksr/ocelot/fw/dev/ocelot_api/tests/wtuning_test/1b/"
 Entering Link 1 = /opt/ohpc/pub/libs/gaussian/g16-A.03/sandybridge/g16/l1.exe PID=     62687.
  
 Copyright (c) 1988,1990,1992,1993,1995,1998,2003,2009,2016,
            Gaussian, Inc.  All Rights Reserved.
  
 This is part of the Gaussian(R) 16 program.  It is based on
 the Gaussian(R) 09 system (copyright 2009, Gaussian, Inc.),
 the Gaussian(R) 03 system (copyright 2003, Gaussian, Inc.),
 the Gaussian(R) 98 system (copyright 1998, Gaussian, Inc.),
 the Gaussian(R) 94 system (copyright 1995, Gaussian, Inc.),
 the Gaussian 92(TM) system (copyright 1992, Gaussian, Inc.),
 the Gaussian 90(TM) system (copyright 1990, Gaussian, Inc.),
 the Gaussian 88(TM) system (copyright 1988, Gaussian, Inc.),
 the Gaussian 86(TM) system (copyright 1986, Carnegie Mellon
 University), and the Gaussian 82(TM) system (copyright 1983,
 Carnegie Mellon University). Gaussian is a federally registered
 trademark of Gaussian, Inc.
  
 This software contains proprietary and confidential information,
 including trade secrets, belonging to Gaussian, Inc.
  
 This software is provided under written license and may be
 used, copied, transmitted, or stored only in accord with that
 written license.
  
 The following legend is applicable only to US Government
 contracts under FAR:
  
                    RESTRICTED RIGHTS LEGEND
  
 Use, reproduction and disclosure by the US Government is
 subject to restrictions as set forth in subparagraphs (a)
 and (c) of the Commercial Computer Software - Restricted
 Rights clause in FAR 52.227-19.
  
 Gaussian, Inc.
 340 Quinnipiac St., Bldg. 40, Wallingford CT 06492
  
  
 ---------------------------------------------------------------
 Warning -- This program may not be used in any manner that
 competes with the business of Gaussian, Inc. or will provide
 assistance to any competitor of Gaussian, Inc.  The licensee
 of this program is prohibited from giving any competitor of
 Gaussian, Inc. access to this program.  By using this program,
 the user acknowledges that Gaussian, Inc. is engaged in the
 business of creating and licensing software in the field of
 computational chemistry and represents and warrants to the
 licensee that it is not a competitor of Gaussian, Inc. and that
 it will not use this program in any manner prohibited above.
 ---------------------------------------------------------------
  

 Cite this work as:
 Gaussian 16, Revision A.03,
 M. J. Frisch, G. W. Trucks, H. B. Schlegel, G. E. Scuseria, 
 M. A. Robb, J. R. Cheeseman, G. Scalmani, V. Barone, 
 G. A. Petersson, H. Nakatsuji, X. Li, M. Caricato, A. V. Marenich, 
 J. Bloino, B. G. Janesko, R. Gomperts, B. Mennucci, H. P. Hratchian, 
 J. V. Ortiz, A. F. Izmaylov, J. L. Sonnenberg, D. Williams-Young, 
 F. Ding, F. Lipparini, F. Egidi, J. Goings, B. Peng, A. Petrone, 
 T. Henderson, D. Ranasinghe, V. G. Zakrzewski, J. Gao, N. Rega, 
 G. Zheng, W. Liang, M. Hada, M. Ehara, K. Toyota, R. Fukuda, 
 J. Hasegawa, M. Ishida, T. Nakajima, Y. Honda, O. Kitao, H. Nakai, 
 T. Vreven, K. Throssell, J. A. Montgomery, Jr., J. E. Peralta, 
 F. Ogliaro, M. J. Bearpark, J. J. Heyd, E. N. Brothers, K. N. Kudin, 
 V. N. Staroverov, T. A. Keith, R. Kobayashi, J. Normand, 
 K. Raghavachari, A. P. Rendell, J. C. Burant, S. S. Iyengar, 
 J. Tomasi, M. Cossi, J. M. Millam, M. Klene, C. Adamo, R. Cammi, 
 J. W. Ochterski, R. L. Martin, K. Morokuma, O. Farkas, 
 J. B. Foresman, and D. J. Fox, Gaussian, Inc., Wallingford CT, 2016.
 
 ******************************************
 Gaussian 16:  EM64L-G16RevA.03 25-Dec-2016
                16-Mar-2020 
 ******************************************
 %mem=50GB
 %nproc=16
 Will use up to   16 processors via shared memory.
 --------------------------------------------------------------
 #P uLC-wHPBE/6-31G iop(3/107=0314100000, 3/108=0314100000) opt
 --------------------------------------------------------------
 1/18=20,19=15,26=3,38=1/1,3;
 2/9=110,12=2,17=6,18=5,40=1/2;
 3/5=1,6=6,11=2,25=1,30=1,71=1,74=-71,107=314100000,108=314100000,116=2/1,2,3;
 4//1;
 5/5=2,38=5/2;
 6/7=2,8=2,9=2,10=2,28=1/1;
 7//1,2,3,16;
 1/18=20,19=15,26=3/3(2);
 2/9=110/2;
 99//99;
 2/9=110/2;
 3/5=1,6=6,11=2,25=1,30=1,71=1,74=-71,107=314100000,108=314100000,116=2/1,2,3;
 4/5=5,16=3,69=1/1;
 5/5=2,38=5/2;
 7//1,2,3,16;
 1/18=20,19=15,26=3/3(-5);
 2/9=110/2;
 6/7=2,8=2,9=2,10=2,19=2,28=1/1;
 99/9=1/99;
 Leave Link    1 at Mon Mar 16 03:50:17 2020, MaxMem=  6710886400 cpu:              12.7 elap:               0.8
 (Enter /opt/ohpc/pub/libs/gaussian/g16-A.03/sandybridge/g16/l101.exe)
 -----
 H6 C6
 -----
 Symbolic Z-matrix:
 Charge =  0 Multiplicity = 1
 C                     0.        1.39316   0. 
 C                    -1.20651   0.69658   0. 
 C                    -1.20651  -0.69658   0. 
 C                     0.       -1.39316   0. 
 C                     1.20651  -0.69658   0. 
 C                     1.20651   0.69658   0. 
 H                     0.        2.48268   0. 
 H                    -2.15007   1.24134   0. 
 H                    -2.15007  -1.24134   0. 
 H                     0.       -2.48268   0. 
 H                     2.15007  -1.24134   0. 
 H                     2.15007   1.24134   0. 
 
 ITRead=  0  0  0  0  0  0  0  0  0  0  0  0
 MicOpt= -1 -1 -1 -1 -1 -1 -1 -1 -1 -1 -1 -1
 NAtoms=     12 NQM=       12 NQMF=       0 NMMI=      0 NMMIF=      0
                NMic=       0 NMicF=      0.
                    Isotopes and Nuclear Properties:
 (Nuclear quadrupole moments (NQMom) in fm**2, nuclear magnetic moments (NMagM)
  in nuclear magnetons)

  Atom         1           2           3           4           5           6           7           8           9          10
 IAtWgt=          12          12          12          12          12          12           1           1           1           1
 AtmWgt=  12.0000000  12.0000000  12.0000000  12.0000000  12.0000000  12.0000000   1.0078250   1.0078250   1.0078250   1.0078250
 NucSpn=           0           0           0           0           0           0           1           1           1           1
 AtZEff=  -0.0000000  -0.0000000  -0.0000000  -0.0000000  -0.0000000  -0.0000000  -0.0000000  -0.0000000  -0.0000000  -0.0000000
 NQMom=    0.0000000   0.0000000   0.0000000   0.0000000   0.0000000   0.0000000   0.0000000   0.0000000   0.0000000   0.0000000
 NMagM=    0.0000000   0.0000000   0.0000000   0.0000000   0.0000000   0.0000000   2.7928460   2.7928460   2.7928460   2.7928460
 AtZNuc=   6.0000000   6.0000000   6.0000000   6.0000000   6.0000000   6.0000000   1.0000000   1.0000000   1.0000000   1.0000000

  Atom        11          12
 IAtWgt=           1           1
 AtmWgt=   1.0078250   1.0078250
 NucSpn=           1           1
 AtZEff=  -0.0000000  -0.0000000
 NQMom=    0.0000000   0.0000000
 NMagM=    2.7928460   2.7928460
 AtZNuc=   1.0000000   1.0000000
 Leave Link  101 at Mon Mar 16 03:50:18 2020, MaxMem=  6710886400 cpu:               7.2 elap:               0.5
 (Enter /opt/ohpc/pub/libs/gaussian/g16-A.03/sandybridge/g16/l103.exe)

 GradGradGradGradGradGradGradGradGradGradGradGradGradGradGradGradGradGrad
 Berny optimization.
 Initialization pass.
                           ----------------------------
                           !    Initial Parameters    !
                           ! (Angstroms and Degrees)  !
 --------------------------                            --------------------------
 ! Name  Definition              Value          Derivative Info.                !
 --------------------------------------------------------------------------------
 ! R1    R(1,2)                  1.3932         estimate D2E/DX2                !
 ! R2    R(1,6)                  1.3932         estimate D2E/DX2                !
 ! R3    R(1,7)                  1.0895         estimate D2E/DX2                !
 ! R4    R(2,3)                  1.3932         estimate D2E/DX2                !
 ! R5    R(2,8)                  1.0895         estimate D2E/DX2                !
 ! R6    R(3,4)                  1.3932         estimate D2E/DX2                !
 ! R7    R(3,9)                  1.0895         estimate D2E/DX2                !
 ! R8    R(4,5)                  1.3932         estimate D2E/DX2                !
 ! R9    R(4,10)                 1.0895         estimate D2E/DX2                !
 ! R10   R(5,6)                  1.3932         estimate D2E/DX2                !
 ! R11   R(5,11)                 1.0895         estimate D2E/DX2                !
 ! R12   R(6,12)                 1.0895         estimate D2E/DX2                !
 ! A1    A(2,1,6)              120.0            estimate D2E/DX2                !
 ! A2    A(2,1,7)              120.0            estimate D2E/DX2                !
 ! A3    A(6,1,7)              120.0            estimate D2E/DX2                !
 ! A4    A(1,2,3)              120.0            estimate D2E/DX2                !
 ! A5    A(1,2,8)              120.0            estimate D2E/DX2                !
 ! A6    A(3,2,8)              120.0            estimate D2E/DX2                !
 ! A7    A(2,3,4)              120.0            estimate D2E/DX2                !
 ! A8    A(2,3,9)              120.0            estimate D2E/DX2                !
 ! A9    A(4,3,9)              120.0            estimate D2E/DX2                !
 ! A10   A(3,4,5)              120.0            estimate D2E/DX2                !
 ! A11   A(3,4,10)             120.0            estimate D2E/DX2                !
 ! A12   A(5,4,10)             120.0            estimate D2E/DX2                !
 ! A13   A(4,5,6)              120.0            estimate D2E/DX2                !
 ! A14   A(4,5,11)             120.0            estimate D2E/DX2                !
 ! A15   A(6,5,11)             120.0            estimate D2E/DX2                !
 ! A16   A(1,6,5)              120.0            estimate D2E/DX2                !
 ! A17   A(1,6,12)             120.0            estimate D2E/DX2                !
 ! A18   A(5,6,12)             120.0            estimate D2E/DX2                !
 ! D1    D(6,1,2,3)              0.0            estimate D2E/DX2                !
 ! D2    D(6,1,2,8)            180.0            estimate D2E/DX2                !
 ! D3    D(7,1,2,3)            180.0            estimate D2E/DX2                !
 ! D4    D(7,1,2,8)              0.0            estimate D2E/DX2                !
 ! D5    D(2,1,6,5)              0.0            estimate D2E/DX2                !
 ! D6    D(2,1,6,12)           180.0            estimate D2E/DX2                !
 ! D7    D(7,1,6,5)            180.0            estimate D2E/DX2                !
 ! D8    D(7,1,6,12)             0.0            estimate D2E/DX2                !
 ! D9    D(1,2,3,4)              0.0            estimate D2E/DX2                !
 ! D10   D(1,2,3,9)            180.0            estimate D2E/DX2                !
 ! D11   D(8,2,3,4)            180.0            estimate D2E/DX2                !
 ! D12   D(8,2,3,9)              0.0            estimate D2E/DX2                !
 ! D13   D(2,3,4,5)              0.0            estimate D2E/DX2                !
 ! D14   D(2,3,4,10)           180.0            estimate D2E/DX2                !
 ! D15   D(9,3,4,5)            180.0            estimate D2E/DX2                !
 ! D16   D(9,3,4,10)             0.0            estimate D2E/DX2                !
 ! D17   D(3,4,5,6)              0.0            estimate D2E/DX2                !
 ! D18   D(3,4,5,11)           180.0            estimate D2E/DX2                !
 ! D19   D(10,4,5,6)           180.0            estimate D2E/DX2                !
 ! D20   D(10,4,5,11)            0.0            estimate D2E/DX2                !
 ! D21   D(4,5,6,1)              0.0            estimate D2E/DX2                !
 ! D22   D(4,5,6,12)           180.0            estimate D2E/DX2                !
 ! D23   D(11,5,6,1)           180.0            estimate D2E/DX2                !
 ! D24   D(11,5,6,12)            0.0            estimate D2E/DX2                !
 --------------------------------------------------------------------------------
 Trust Radius=3.00D-01 FncErr=1.00D-07 GrdErr=1.00D-06 EigMax=2.50D+02 EigMin=1.00D-04
 Number of steps in this run=     64 maximum allowed number of steps=    100.
 GradGradGradGradGradGradGradGradGradGradGradGradGradGradGradGradGradGrad

 Leave Link  103 at Mon Mar 16 03:50:18 2020, MaxMem=  6710886400 cpu:               0.3 elap:               0.1
 (Enter /opt/ohpc/pub/libs/gaussian/g16-A.03/sandybridge/g16/l202.exe)
                          Input orientation:                          
 ---------------------------------------------------------------------
 Center     Atomic      Atomic             Coordinates (Angstroms)
 Number     Number       Type             X           Y           Z
 ---------------------------------------------------------------------
      1          6           0        0.000000    1.393160    0.000000
      2          6           0       -1.206512    0.696580    0.000000
      3          6           0       -1.206512   -0.696580    0.000000
      4          6           0        0.000000   -1.393160    0.000000
      5          6           0        1.206512   -0.696580    0.000000
      6          6           0        1.206512    0.696580    0.000000
      7          1           0        0.000000    2.482681    0.000000
      8          1           0       -2.150065    1.241340    0.000000
      9          1           0       -2.150065   -1.241340    0.000000
     10          1           0        0.000000   -2.482681    0.000000
     11          1           0        2.150065   -1.241340    0.000000
     12          1           0        2.150065    1.241340    0.000000
 ---------------------------------------------------------------------
                    Distance matrix (angstroms):
                    1          2          3          4          5
     1  C    0.000000
     2  C    1.393160   0.000000
     3  C    2.413024   1.393160   0.000000
     4  C    2.786320   2.413024   1.393160   0.000000
     5  C    2.413024   2.786320   2.413024   1.393160   0.000000
     6  C    1.393160   2.413024   2.786320   2.413024   1.393160
     7  H    1.089521   2.155418   3.400496   3.875841   3.400496
     8  H    2.155418   1.089521   2.155418   3.400496   3.875841
     9  H    3.400496   2.155418   1.089521   2.155418   3.400496
    10  H    3.875841   3.400496   2.155418   1.089521   2.155418
    11  H    3.400496   3.875841   3.400496   2.155418   1.089521
    12  H    2.155418   3.400496   3.875841   3.400496   2.155418
                    6          7          8          9         10
     6  C    0.000000
     7  H    2.155418   0.000000
     8  H    3.400496   2.482681   0.000000
     9  H    3.875841   4.300129   2.482680   0.000000
    10  H    3.400496   4.965362   4.300129   2.482681   0.000000
    11  H    2.155418   4.300129   4.965362   4.300130   2.482681
    12  H    1.089521   2.482681   4.300130   4.965362   4.300129
                   11         12
    11  H    0.000000
    12  H    2.482680   0.000000
 Stoichiometry    C6H6
 Framework group  D6H[3C2'(HC.CH)]
 Deg. of freedom     2
 Full point group                 D6H     NOp  24
 Largest Abelian subgroup         D2H     NOp   8
 Largest concise Abelian subgroup D2      NOp   4
                         Standard orientation:                         
 ---------------------------------------------------------------------
 Center     Atomic      Atomic             Coordinates (Angstroms)
 Number     Number       Type             X           Y           Z
 ---------------------------------------------------------------------
      1          6           0       -0.000000    1.393160   -0.000000
      2          6           0       -1.206512    0.696580   -0.000000
      3          6           0       -1.206512   -0.696580   -0.000000
      4          6           0       -0.000000   -1.393160   -0.000000
      5          6           0        1.206512   -0.696580   -0.000000
      6          6           0        1.206512    0.696580   -0.000000
      7          1           0        0.000000    2.482681   -0.000000
      8          1           0       -2.150065    1.241341   -0.000000
      9          1           0       -2.150065   -1.241340   -0.000000
     10          1           0       -0.000000   -2.482681   -0.000000
     11          1           0        2.150065   -1.241341   -0.000000
     12          1           0        2.150065    1.241340   -0.000000
 ---------------------------------------------------------------------
 Rotational constants (GHZ):           5.7099798           5.7099798           2.8549899
 Leave Link  202 at Mon Mar 16 03:50:18 2020, MaxMem=  6710886400 cpu:               1.2 elap:               0.1
 (Enter /opt/ohpc/pub/libs/gaussian/g16-A.03/sandybridge/g16/l301.exe)
 Standard basis: 6-31G (6D, 7F)
 Ernie: Thresh=  0.10000D-02 Tol=  0.10000D-05 Strict=F.
 There are    16 symmetry adapted cartesian basis functions of AG  symmetry.
 There are    11 symmetry adapted cartesian basis functions of B1G symmetry.
 There are     2 symmetry adapted cartesian basis functions of B2G symmetry.
 There are     4 symmetry adapted cartesian basis functions of B3G symmetry.
 There are     2 symmetry adapted cartesian basis functions of AU  symmetry.
 There are     4 symmetry adapted cartesian basis functions of B1U symmetry.
 There are    16 symmetry adapted cartesian basis functions of B2U symmetry.
 There are    11 symmetry adapted cartesian basis functions of B3U symmetry.
 There are    16 symmetry adapted basis functions of AG  symmetry.
 There are    11 symmetry adapted basis functions of B1G symmetry.
 There are     2 symmetry adapted basis functions of B2G symmetry.
 There are     4 symmetry adapted basis functions of B3G symmetry.
 There are     2 symmetry adapted basis functions of AU  symmetry.
 There are     4 symmetry adapted basis functions of B1U symmetry.
 There are    16 symmetry adapted basis functions of B2U symmetry.
 There are    11 symmetry adapted basis functions of B3U symmetry.
    66 basis functions,   156 primitive gaussians,    66 cartesian basis functions
    21 alpha electrons       21 beta electrons
       nuclear repulsion energy       203.5439980921 Hartrees.
 IExCor=33909 DFT=T Ex+Corr=LC-wHPBE ExCW=0 ScaHFX=  1.000000
 ScaDFX=  1.000000  1.000000  1.000000  1.000000 ScalE2=  1.000000  1.000000
 IRadAn=      5 IRanWt=     -1 IRanGd=            0 ICorTp=0 IEmpDi=  4
 HFx  wShort=  0.000000 wLong=  0.314100 cFull=  0.000000 cShort=  0.000000 cLong=  1.000000
 DFx  wShort=  0.000000 wLong=  0.314100 cFull=  0.000000 cShort=  1.000000 cLong=  0.000000
 NAtoms=   12 NActive=   12 NUniq=    2 SFac= 4.00D+00 NAtFMM=   60 NAOKFM=F Big=F
 Integral buffers will be    131072 words long.
 Raffenetti 2 integral format.
 Two-electron integral symmetry is turned on.
 Leave Link  301 at Mon Mar 16 03:50:18 2020, MaxMem=  6710886400 cpu:               1.0 elap:               0.1
 (Enter /opt/ohpc/pub/libs/gaussian/g16-A.03/sandybridge/g16/l302.exe)
 NPDir=0 NMtPBC=     1 NCelOv=     1 NCel=       1 NClECP=     1 NCelD=      1
         NCelK=      1 NCelE2=     1 NClLst=     1 CellRange=     0.0.
 One-electron integrals computed using PRISM.
 One-electron integral symmetry used in STVInt
 NBasis=    66 RedAO= T EigKep=  6.87D-04  NBF=    16    11     2     4     2     4    16    11
 NBsUse=    66 1.00D-06 EigRej= -1.00D+00 NBFU=    16    11     2     4     2     4    16    11
 Precomputing XC quadrature grid using
 IXCGrd= 4 IRadAn=           5 IRanWt=          -1 IRanGd=           0 AccXCQ= 0.00D+00.
 Generated NRdTot=       0 NPtTot=           0 NUsed=           0 NTot=          32
 NSgBfM=    66    66    66    66    66 MxSgAt=    12 MxSgA2=    12.
 Leave Link  302 at Mon Mar 16 03:50:18 2020, MaxMem=  6710886400 cpu:               2.3 elap:               0.2
 (Enter /opt/ohpc/pub/libs/gaussian/g16-A.03/sandybridge/g16/l303.exe)
 DipDrv:  MaxL=1.
 Leave Link  303 at Mon Mar 16 03:50:18 2020, MaxMem=  6710886400 cpu:               0.5 elap:               0.0
 (Enter /opt/ohpc/pub/libs/gaussian/g16-A.03/sandybridge/g16/l401.exe)
 ExpMin= 1.61D-01 ExpMax= 3.05D+03 ExpMxC= 4.57D+02 IAcc=3 IRadAn=         5 AccDes= 0.00D+00
 Harris functional with IExCor=33909 and IRadAn=       5 diagonalized for initial guess.
 HarFok:  IExCor=33909 AccDes= 0.00D+00 IRadAn=         5 IDoV= 1 UseB2=F ITyADJ=14
 ICtDFT=  3500011 ScaDFX=  1.000000  1.000000  1.000000  1.000000
 FoFCou: FMM=F IPFlag=           0 FMFlag=      100000 FMFlg1=           0
         NFxFlg=           0 DoJE=T BraDBF=F KetDBF=T FulRan=T
         wScrn=  0.000000 ICntrl=       500 IOpCl=  0 I1Cent=   200000004 NGrid=           0
         NMat0=    1 NMatS0=      1 NMatT0=    0 NMatD0=    1 NMtDS0=    0 NMtDT0=    0
 Petite list used in FoFCou.
 Harris En= -225.299781014529    
 JPrj=0 DoOrth=F DoCkMO=F.
 Initial guess orbital symmetries:
 Alpha Orbitals:
       Occupied  (A1G) (E1U) (E1U) (E2G) (E2G) (B1U) (A1G) (E1U)
                 (E1U) (E2G) (E2G) (A1G) (B2U) (B1U) (E1U) (E1U)
                 (A2U) (E2G) (E2G) (E1G) (E1G)
       Virtual   (E2U) (E2U) (A1G) (B2G) (E1U) (E1U) (E2G) (E2G)
                 (B1U) (E2G) (E2G) (E1U) (E1U) (B2U) (A2U) (B1U)
                 (A2G) (A1G) (E2G) (E2G) (E1G) (E1G) (A1G) (E1U)
                 (E1U) (E2U) (E2U) (B2G) (B1U) (E2G) (E2G) (E1U)
                 (E1U) (A2G) (A1G) (E1U) (E1U) (E2G) (E2G) (E1U)
                 (E1U) (B1U) (E2G) (E2G) (B1U)
 Beta  Orbitals:
       Occupied  (A1G) (E1U) (E1U) (E2G) (E2G) (B1U) (A1G) (E1U)
                 (E1U) (E2G) (E2G) (A1G) (B2U) (B1U) (E1U) (E1U)
                 (A2U) (E2G) (E2G) (E1G) (E1G)
       Virtual   (E2U) (E2U) (A1G) (B2G) (E1U) (E1U) (E2G) (E2G)
                 (B1U) (E2G) (E2G) (E1U) (E1U) (B2U) (A2U) (B1U)
                 (A2G) (A1G) (E2G) (E2G) (E1G) (E1G) (A1G) (E1U)
                 (E1U) (E2U) (E2U) (B2G) (B1U) (E2G) (E2G) (E1U)
                 (E1U) (A2G) (A1G) (E1U) (E1U) (E2G) (E2G) (E1U)
                 (E1U) (B1U) (E2G) (E2G) (B1U)
 The electronic state of the initial guess is 1-A1G.
 Initial guess <Sx>= 0.0000 <Sy>= 0.0000 <Sz>= 0.0000 <S**2>= 0.0000 S= 0.0000
 Leave Link  401 at Mon Mar 16 03:50:19 2020, MaxMem=  6710886400 cpu:               2.9 elap:               0.2
 (Enter /opt/ohpc/pub/libs/gaussian/g16-A.03/sandybridge/g16/l502.exe)
 Keep R1 and R2 ints in memory in symmetry-blocked form, NReq=19109854.
 FoFCou: FMM=F IPFlag=           0 FMFlag=           0 FMFlg1=           0
         NFxFlg=           0 DoJE=F BraDBF=F KetDBF=F FulRan=T
         wScrn=  0.000000 ICntrl=       600 IOpCl=  0 I1Cent=           0 NGrid=           0
         NMat0=    1 NMatS0=   2211 NMatT0=    0 NMatD0=    1 NMtDS0=    0 NMtDT0=    0
 Petite list used in FoFCou.
 UHF open shell SCF:
 Using DIIS extrapolation, IDIIS=  1040.
 NGot=  6710886400 LenX=  6710146038 LenY=  6710141241
 Requested convergence on RMS density matrix=1.00D-08 within 128 cycles.
 Requested convergence on MAX density matrix=1.00D-06.
 Requested convergence on             energy=1.00D-06.
 No special actions if energy rises.
 Integral accuracy reduced to 1.0D-05 until final iterations.

 Cycle   1  Pass 0  IDiag  1:
 E= -231.938136741903    
 DIIS: error= 3.59D-02 at cycle   1 NSaved=   1.
 NSaved= 1 IEnMin= 1 EnMin= -231.938136741903     IErMin= 1 ErrMin= 3.59D-02
 ErrMax= 3.59D-02  0.00D+00 EMaxC= 1.00D-01 BMatC= 2.33D-01 BMatP= 2.33D-01
 IDIUse=3 WtCom= 6.41D-01 WtEn= 3.59D-01
 Coeff-Com:  0.100D+01
 Coeff-En:   0.100D+01
 Coeff:      0.100D+01
 Gap=     0.424 Goal=   None    Shift=    0.000
 Gap=     0.424 Goal=   None    Shift=    0.000
 GapD=    0.424 DampG=2.000 DampE=0.500 DampFc=1.0000 IDamp=-1.
 RMSDP=6.23D-03 MaxDP=5.50D-02              OVMax= 8.04D-02

 Cycle   2  Pass 0  IDiag  1:
 E= -231.985833744551     Delta-E=       -0.047697002648 Rises=F Damp=F
 DIIS: error= 2.03D-02 at cycle   2 NSaved=   2.
 NSaved= 2 IEnMin= 2 EnMin= -231.985833744551     IErMin= 2 ErrMin= 2.03D-02
 ErrMax= 2.03D-02  0.00D+00 EMaxC= 1.00D-01 BMatC= 8.28D-02 BMatP= 2.33D-01
 IDIUse=3 WtCom= 7.97D-01 WtEn= 2.03D-01
 Coeff-Com:  0.370D+00 0.630D+00
 Coeff-En:   0.108D+00 0.892D+00
 Coeff:      0.317D+00 0.683D+00
 Gap=     0.427 Goal=   None    Shift=    0.000
 Gap=     0.427 Goal=   None    Shift=    0.000
 RMSDP=2.60D-03 MaxDP=2.09D-02 DE=-4.77D-02 OVMax= 3.30D-02

 Cycle   3  Pass 0  IDiag  1:
 E= -232.008754186406     Delta-E=       -0.022920441855 Rises=F Damp=F
 DIIS: error= 2.14D-03 at cycle   3 NSaved=   3.
 NSaved= 3 IEnMin= 3 EnMin= -232.008754186406     IErMin= 3 ErrMin= 2.14D-03
 ErrMax= 2.14D-03  0.00D+00 EMaxC= 1.00D-01 BMatC= 6.75D-04 BMatP= 8.28D-02
 IDIUse=3 WtCom= 9.79D-01 WtEn= 2.14D-02
 Coeff-Com: -0.191D-01 0.536D-01 0.965D+00
 Coeff-En:   0.000D+00 0.000D+00 0.100D+01
 Coeff:     -0.187D-01 0.525D-01 0.966D+00
 Gap=     0.425 Goal=   None    Shift=    0.000
 Gap=     0.425 Goal=   None    Shift=    0.000
 RMSDP=2.83D-04 MaxDP=1.95D-03 DE=-2.29D-02 OVMax= 3.88D-03

 Cycle   4  Pass 0  IDiag  1:
 E= -232.008965363234     Delta-E=       -0.000211176828 Rises=F Damp=F
 DIIS: error= 1.24D-04 at cycle   4 NSaved=   4.
 NSaved= 4 IEnMin= 4 EnMin= -232.008965363234     IErMin= 4 ErrMin= 1.24D-04
 ErrMax= 1.24D-04  0.00D+00 EMaxC= 1.00D-01 BMatC= 1.92D-06 BMatP= 6.75D-04
 IDIUse=3 WtCom= 9.99D-01 WtEn= 1.24D-03
 Coeff-Com: -0.588D-03-0.153D-01-0.126D+00 0.114D+01
 Coeff-En:   0.000D+00 0.000D+00 0.000D+00 0.100D+01
 Coeff:     -0.587D-03-0.153D-01-0.125D+00 0.114D+01
 Gap=     0.425 Goal=   None    Shift=    0.000
 Gap=     0.425 Goal=   None    Shift=    0.000
 RMSDP=3.90D-05 MaxDP=1.78D-04 DE=-2.11D-04 OVMax= 2.83D-04

 Cycle   5  Pass 0  IDiag  1:
 E= -232.008966292505     Delta-E=       -0.000000929270 Rises=F Damp=F
 DIIS: error= 8.38D-06 at cycle   5 NSaved=   5.
 NSaved= 5 IEnMin= 5 EnMin= -232.008966292505     IErMin= 5 ErrMin= 8.38D-06
 ErrMax= 8.38D-06  0.00D+00 EMaxC= 1.00D-01 BMatC= 1.13D-08 BMatP= 1.92D-06
 IDIUse=1 WtCom= 1.00D+00 WtEn= 0.00D+00
 Coeff-Com:  0.132D-03 0.574D-03 0.161D-02-0.106D+00 0.110D+01
 Coeff:      0.132D-03 0.574D-03 0.161D-02-0.106D+00 0.110D+01
 Gap=     0.425 Goal=   None    Shift=    0.000
 Gap=     0.425 Goal=   None    Shift=    0.000
 RMSDP=3.99D-06 MaxDP=2.28D-05 DE=-9.29D-07 OVMax= 3.20D-05

 Initial convergence to 1.0D-05 achieved.  Increase integral accuracy.
 Cycle   6  Pass 1  IDiag  1:
 E= -232.008973381081     Delta-E=       -0.000007088577 Rises=F Damp=F
 DIIS: error= 7.45D-06 at cycle   1 NSaved=   1.
 NSaved= 1 IEnMin= 1 EnMin= -232.008973381081     IErMin= 1 ErrMin= 7.45D-06
 ErrMax= 7.45D-06  0.00D+00 EMaxC= 1.00D-01 BMatC= 1.50D-09 BMatP= 1.50D-09
 IDIUse=1 WtCom= 1.00D+00 WtEn= 0.00D+00
 Coeff-Com:  0.100D+01
 Coeff:      0.100D+01
 Gap=     0.425 Goal=   None    Shift=    0.000
 Gap=     0.425 Goal=   None    Shift=    0.000
 RMSDP=3.99D-06 MaxDP=2.28D-05 DE=-7.09D-06 OVMax= 1.36D-05

 Cycle   7  Pass 1  IDiag  1:
 E= -232.008973381746     Delta-E=       -0.000000000665 Rises=F Damp=F
 DIIS: error= 9.35D-07 at cycle   2 NSaved=   2.
 NSaved= 2 IEnMin= 2 EnMin= -232.008973381746     IErMin= 2 ErrMin= 9.35D-07
 ErrMax= 9.35D-07  0.00D+00 EMaxC= 1.00D-01 BMatC= 8.52D-11 BMatP= 1.50D-09
 IDIUse=1 WtCom= 1.00D+00 WtEn= 0.00D+00
 Coeff-Com: -0.616D-01 0.106D+01
 Coeff:     -0.616D-01 0.106D+01
 Gap=     0.425 Goal=   None    Shift=    0.000
 Gap=     0.425 Goal=   None    Shift=    0.000
 RMSDP=1.54D-07 MaxDP=1.08D-06 DE=-6.65D-10 OVMax= 1.81D-06

 Cycle   8  Pass 1  IDiag  1:
 E= -232.008973381774     Delta-E=       -0.000000000028 Rises=F Damp=F
 DIIS: error= 4.03D-07 at cycle   3 NSaved=   3.
 NSaved= 3 IEnMin= 3 EnMin= -232.008973381774     IErMin= 3 ErrMin= 4.03D-07
 ErrMax= 4.03D-07  0.00D+00 EMaxC= 1.00D-01 BMatC= 2.15D-11 BMatP= 8.52D-11
 IDIUse=1 WtCom= 1.00D+00 WtEn= 0.00D+00
 Coeff-Com: -0.745D-01 0.357D+00 0.717D+00
 Coeff:     -0.745D-01 0.357D+00 0.717D+00
 Gap=     0.425 Goal=   None    Shift=    0.000
 Gap=     0.425 Goal=   None    Shift=    0.000
 RMSDP=4.55D-08 MaxDP=2.92D-07 DE=-2.85D-11 OVMax= 6.24D-07

 Cycle   9  Pass 1  IDiag  1:
 E= -232.008973381779     Delta-E=       -0.000000000004 Rises=F Damp=F
 DIIS: error= 1.90D-08 at cycle   4 NSaved=   4.
 NSaved= 4 IEnMin= 4 EnMin= -232.008973381779     IErMin= 4 ErrMin= 1.90D-08
 ErrMax= 1.90D-08  0.00D+00 EMaxC= 1.00D-01 BMatC= 3.83D-14 BMatP= 2.15D-11
 IDIUse=1 WtCom= 1.00D+00 WtEn= 0.00D+00
 Coeff-Com:  0.751D-02-0.462D-01-0.837D-01 0.112D+01
 Coeff:      0.751D-02-0.462D-01-0.837D-01 0.112D+01
 Gap=     0.425 Goal=   None    Shift=    0.000
 Gap=     0.425 Goal=   None    Shift=    0.000
 RMSDP=8.44D-09 MaxDP=6.31D-08 DE=-4.49D-12 OVMax= 5.01D-08

 SCF Done:  E(ULC-wHPBE) =  -232.008973382     A.U. after    9 cycles
            NFock=  9  Conv=0.84D-08     -V/T= 2.0058
 <Sx>= 0.0000 <Sy>= 0.0000 <Sz>= 0.0000 <S**2>= 0.0000 S= 0.0000
 <L.S>= 0.000000000000E+00
 KE= 2.306777340627D+02 PE=-9.450188660326D+02 EE= 2.787881604960D+02
 Annihilation of the first spin contaminant:
 S**2 before annihilation    -0.0000,   after    -0.0000
 Leave Link  502 at Mon Mar 16 03:50:19 2020, MaxMem=  6710886400 cpu:               9.3 elap:               0.6
 (Enter /opt/ohpc/pub/libs/gaussian/g16-A.03/sandybridge/g16/l601.exe)
 Copying SCF densities to generalized density rwf, IOpCl= 1 IROHF=0.

 **********************************************************************

            Population analysis using the SCF density.

 **********************************************************************

 Orbital symmetries:
 Alpha Orbitals:
       Occupied  (A1G) (E1U) (E1U) (E2G) (E2G) (B1U) (A1G) (E1U)
                 (E1U) (E2G) (E2G) (A1G) (B1U) (B2U) (E1U) (E1U)
                 (A2U) (E2G) (E2G) (E1G) (E1G)
       Virtual   (E2U) (E2U) (A1G) (E1U) (E1U) (B2G) (E2G) (E2G)
                 (B1U) (E2G) (E2G) (E1U) (E1U) (B2U) (A2U) (B1U)
                 (A2G) (A1G) (E1G) (E1G) (E2G) (E2G) (A1G) (E1U)
                 (E1U) (E2U) (E2U) (B2G) (B1U) (E2G) (E2G) (E1U)
                 (E1U) (A1G) (A2G) (E1U) (E1U) (E2G) (E2G) (E1U)
                 (E1U) (B1U) (E2G) (E2G) (B1U)
 Beta  Orbitals:
       Occupied  (A1G) (E1U) (E1U) (E2G) (E2G) (B1U) (A1G) (E1U)
                 (E1U) (E2G) (E2G) (A1G) (B1U) (B2U) (E1U) (E1U)
                 (A2U) (E2G) (E2G) (E1G) (E1G)
       Virtual   (E2U) (E2U) (A1G) (E1U) (E1U) (B2G) (E2G) (E2G)
                 (B1U) (E2G) (E2G) (E1U) (E1U) (B2U) (A2U) (B1U)
                 (A2G) (A1G) (E1G) (E1G) (E2G) (E2G) (A1G) (E1U)
                 (E1U) (E2U) (E2U) (B2G) (B1U) (E2G) (E2G) (E1U)
                 (E1U) (A1G) (A2G) (E1U) (E1U) (E2G) (E2G) (E1U)
                 (E1U) (B1U) (E2G) (E2G) (B1U)
 The electronic state is 1-A1G.
 Alpha  occ. eigenvalues --  -10.07122 -10.07111 -10.07111 -10.07079 -10.07079
 Alpha  occ. eigenvalues --  -10.07069  -0.96141  -0.85056  -0.85056  -0.70435
 Alpha  occ. eigenvalues --   -0.70435  -0.62949  -0.55617  -0.54467  -0.51856
 Alpha  occ. eigenvalues --   -0.51856  -0.47668  -0.43256  -0.43256  -0.34178
 Alpha  occ. eigenvalues --   -0.34178
 Alpha virt. eigenvalues --    0.08279   0.08279   0.18196   0.23706   0.23706
 Alpha virt. eigenvalues --    0.26016   0.27742   0.27742   0.28632   0.39732
 Alpha virt. eigenvalues --    0.39732   0.41464   0.41464   0.59039   0.62200
 Alpha virt. eigenvalues --    0.64490   0.66028   0.68152   0.70774   0.70774
 Alpha virt. eigenvalues --    0.72553   0.72553   0.73537   0.76622   0.76622
 Alpha virt. eigenvalues --    0.76668   0.76668   0.84212   0.94499   0.95395
 Alpha virt. eigenvalues --    0.95395   0.99678   0.99678   1.06356   1.07966
 Alpha virt. eigenvalues --    1.10679   1.10679   1.22995   1.22995   1.29047
 Alpha virt. eigenvalues --    1.29047   1.32702   1.56025   1.56025   2.00753
  Beta  occ. eigenvalues --  -10.07122 -10.07111 -10.07111 -10.07079 -10.07079
  Beta  occ. eigenvalues --  -10.07069  -0.96141  -0.85056  -0.85056  -0.70435
  Beta  occ. eigenvalues --   -0.70435  -0.62949  -0.55617  -0.54467  -0.51856
  Beta  occ. eigenvalues --   -0.51856  -0.47668  -0.43256  -0.43256  -0.34178
  Beta  occ. eigenvalues --   -0.34178
  Beta virt. eigenvalues --    0.08279   0.08279   0.18196   0.23706   0.23706
  Beta virt. eigenvalues --    0.26016   0.27742   0.27742   0.28632   0.39732
  Beta virt. eigenvalues --    0.39732   0.41464   0.41464   0.59039   0.62200
  Beta virt. eigenvalues --    0.64490   0.66028   0.68152   0.70774   0.70774
  Beta virt. eigenvalues --    0.72553   0.72553   0.73537   0.76622   0.76622
  Beta virt. eigenvalues --    0.76668   0.76668   0.84212   0.94499   0.95395
  Beta virt. eigenvalues --    0.95395   0.99678   0.99678   1.06356   1.07966
  Beta virt. eigenvalues --    1.10679   1.10679   1.22995   1.22995   1.29047
  Beta virt. eigenvalues --    1.29047   1.32702   1.56025   1.56025   2.00753
          Condensed to atoms (all electrons):
               1          2          3          4          5          6
     1  C    4.902045   0.540640  -0.051090  -0.035613  -0.051090   0.540640
     2  C    0.540640   4.902045   0.540640  -0.051090  -0.035613  -0.051090
     3  C   -0.051090   0.540640   4.902045   0.540640  -0.051090  -0.035613
     4  C   -0.035613  -0.051090   0.540640   4.902045   0.540640  -0.051090
     5  C   -0.051090  -0.035613  -0.051090   0.540640   4.902045   0.540640
     6  C    0.540640  -0.051090  -0.035613  -0.051090   0.540640   4.902045
     7  H    0.368040  -0.033409   0.003950   0.000361   0.003950  -0.033409
     8  H   -0.033409   0.368040  -0.033409   0.003950   0.000361   0.003950
     9  H    0.003950  -0.033409   0.368040  -0.033409   0.003950   0.000361
    10  H    0.000361   0.003950  -0.033409   0.368040  -0.033409   0.003950
    11  H    0.003950   0.000361   0.003950  -0.033409   0.368040  -0.033409
    12  H   -0.033409   0.003950   0.000361   0.003950  -0.033409   0.368040
               7          8          9         10         11         12
     1  C    0.368040  -0.033409   0.003950   0.000361   0.003950  -0.033409
     2  C   -0.033409   0.368040  -0.033409   0.003950   0.000361   0.003950
     3  C    0.003950  -0.033409   0.368040  -0.033409   0.003950   0.000361
     4  C    0.000361   0.003950  -0.033409   0.368040  -0.033409   0.003950
     5  C    0.003950   0.000361   0.003950  -0.033409   0.368040  -0.033409
     6  C   -0.033409   0.003950   0.000361   0.003950  -0.033409   0.368040
     7  H    0.543494  -0.003866  -0.000133   0.000008  -0.000133  -0.003866
     8  H   -0.003866   0.543494  -0.003866  -0.000133   0.000008  -0.000133
     9  H   -0.000133  -0.003866   0.543494  -0.003866  -0.000133   0.000008
    10  H    0.000008  -0.000133  -0.003866   0.543494  -0.003866  -0.000133
    11  H   -0.000133   0.000008  -0.000133  -0.003866   0.543494  -0.003866
    12  H   -0.003866  -0.000133   0.000008  -0.000133  -0.003866   0.543494
          Atomic-Atomic Spin Densities.
               1          2          3          4          5          6
     1  C   -0.000000   0.000000   0.000000  -0.000000   0.000000   0.000000
     2  C    0.000000  -0.000000   0.000000   0.000000  -0.000000   0.000000
     3  C    0.000000   0.000000  -0.000000   0.000000   0.000000  -0.000000
     4  C   -0.000000   0.000000   0.000000  -0.000000   0.000000   0.000000
     5  C    0.000000  -0.000000   0.000000   0.000000  -0.000000   0.000000
     6  C    0.000000   0.000000  -0.000000   0.000000   0.000000  -0.000000
     7  H   -0.000000   0.000000  -0.000000   0.000000  -0.000000   0.000000
     8  H    0.000000  -0.000000   0.000000  -0.000000   0.000000  -0.000000
     9  H   -0.000000   0.000000  -0.000000   0.000000  -0.000000   0.000000
    10  H    0.000000  -0.000000   0.000000  -0.000000   0.000000  -0.000000
    11  H   -0.000000   0.000000  -0.000000   0.000000  -0.000000   0.000000
    12  H    0.000000  -0.000000   0.000000  -0.000000   0.000000  -0.000000
               7          8          9         10         11         12
     1  C   -0.000000   0.000000  -0.000000   0.000000  -0.000000   0.000000
     2  C    0.000000  -0.000000   0.000000  -0.000000   0.000000  -0.000000
     3  C   -0.000000   0.000000  -0.000000   0.000000  -0.000000   0.000000
     4  C    0.000000  -0.000000   0.000000  -0.000000   0.000000  -0.000000
     5  C   -0.000000   0.000000  -0.000000   0.000000  -0.000000   0.000000
     6  C    0.000000  -0.000000   0.000000  -0.000000   0.000000  -0.000000
     7  H   -0.000000   0.000000  -0.000000   0.000000  -0.000000   0.000000
     8  H    0.000000  -0.000000   0.000000  -0.000000   0.000000  -0.000000
     9  H   -0.000000   0.000000  -0.000000   0.000000  -0.000000   0.000000
    10  H    0.000000  -0.000000   0.000000  -0.000000   0.000000  -0.000000
    11  H   -0.000000   0.000000  -0.000000   0.000000  -0.000000   0.000000
    12  H    0.000000  -0.000000   0.000000  -0.000000   0.000000  -0.000000
 Mulliken charges and spin densities:
               1          2
     1  C   -0.155013   0.000000
     2  C   -0.155013   0.000000
     3  C   -0.155013   0.000000
     4  C   -0.155013   0.000000
     5  C   -0.155013   0.000000
     6  C   -0.155013   0.000000
     7  H    0.155013  -0.000000
     8  H    0.155013  -0.000000
     9  H    0.155013  -0.000000
    10  H    0.155013  -0.000000
    11  H    0.155013  -0.000000
    12  H    0.155013  -0.000000
 Sum of Mulliken charges =  -0.00000   0.00000
 Mulliken charges and spin densities with hydrogens summed into heavy atoms:
               1          2
     1  C   -0.000000   0.000000
     2  C   -0.000000   0.000000
     3  C   -0.000000   0.000000
     4  C   -0.000000   0.000000
     5  C   -0.000000   0.000000
     6  C   -0.000000   0.000000
 Electronic spatial extent (au):  <R**2>=            456.7198
 Charge=             -0.0000 electrons
 Dipole moment (field-independent basis, Debye):
    X=             -0.0000    Y=             -0.0000    Z=             -0.0000  Tot=              0.0000
 Quadrupole moment (field-independent basis, Debye-Ang):
   XX=            -31.0633   YY=            -31.0633   ZZ=            -38.9334
   XY=              0.0000   XZ=             -0.0000   YZ=             -0.0000
 Traceless Quadrupole moment (field-independent basis, Debye-Ang):
   XX=              2.6234   YY=              2.6234   ZZ=             -5.2467
   XY=              0.0000   XZ=             -0.0000   YZ=             -0.0000
 Octapole moment (field-independent basis, Debye-Ang**2):
  XXX=             -0.0000  YYY=              0.0000  ZZZ=              0.0000  XYY=              0.0000
  XXY=             -0.0000  XXZ=              0.0000  XZZ=             -0.0000  YZZ=              0.0000
  YYZ=              0.0000  XYZ=              0.0000
 Hexadecapole moment (field-independent basis, Debye-Ang**3):
 XXXX=           -263.5199 YYYY=           -263.5199 ZZZZ=            -40.2984 XXXY=              0.0000
 XXXZ=             -0.0000 YYYX=              0.0000 YYYZ=             -0.0000 ZZZX=             -0.0000
 ZZZY=             -0.0000 XXYY=            -87.8400 XXZZ=            -60.5154 YYZZ=            -60.5154
 XXYZ=             -0.0000 YYXZ=             -0.0000 ZZXY=              0.0000
 N-N= 2.035439980921D+02 E-N=-9.450188657032D+02  KE= 2.306777340627D+02
 Symmetry AG   KE= 7.428075642782D+01
 Symmetry B1G  KE= 3.758320173747D+01
 Symmetry B2G  KE= 2.264736758947D+00
 Symmetry B3G  KE= 2.264736758947D+00
 Symmetry AU   KE=-4.838590503689D-16
 Symmetry B1U  KE= 1.891806880522D+00
 Symmetry B2U  KE= 7.198084482375D+01
 Symmetry B3U  KE= 4.041165067528D+01
 Symmetry AG   SP= 4.424459290949D-14
 Symmetry B1G  SP= 2.626779648524D-14
 Symmetry B2G  SP= 6.865672263207D-15
 Symmetry B3G  SP= 7.009742818989D-15
 Symmetry AU   SP=-1.502852809641D-17
 Symmetry B1U  SP= 5.808140799378D-15
 Symmetry B2U  SP= 2.553351447353D-14
 Symmetry B3U  SP= 2.141816814521D-14
                          Isotropic Fermi Contact Couplings
        Atom                 a.u.       MegaHertz       Gauss      10(-4) cm-1
     1  C(13)              0.00000       0.00000       0.00000       0.00000
     2  C(13)              0.00000       0.00000       0.00000       0.00000
     3  C(13)              0.00000       0.00000       0.00000       0.00000
     4  C(13)              0.00000       0.00000       0.00000       0.00000
     5  C(13)              0.00000       0.00000       0.00000       0.00000
     6  C(13)              0.00000       0.00000       0.00000       0.00000
     7  H(1)               0.00000       0.00000       0.00000       0.00000
     8  H(1)               0.00000       0.00000       0.00000       0.00000
     9  H(1)               0.00000       0.00000       0.00000       0.00000
    10  H(1)               0.00000       0.00000       0.00000       0.00000
    11  H(1)               0.00000       0.00000       0.00000       0.00000
    12  H(1)               0.00000       0.00000       0.00000       0.00000
 --------------------------------------------------------
       Center         ----  Spin Dipole Couplings  ----
                      3XX-RR        3YY-RR        3ZZ-RR
 --------------------------------------------------------
     1   Atom        0.000000      0.000000      0.000000
     2   Atom        0.000000      0.000000      0.000000
     3   Atom        0.000000      0.000000      0.000000
     4   Atom        0.000000      0.000000      0.000000
     5   Atom        0.000000      0.000000      0.000000
     6   Atom        0.000000      0.000000      0.000000
     7   Atom        0.000000      0.000000      0.000000
     8   Atom        0.000000      0.000000      0.000000
     9   Atom        0.000000      0.000000      0.000000
    10   Atom        0.000000      0.000000      0.000000
    11   Atom        0.000000      0.000000      0.000000
    12   Atom        0.000000      0.000000      0.000000
 --------------------------------------------------------
                        XY            XZ            YZ
 --------------------------------------------------------
     1   Atom        0.000000      0.000000      0.000000
     2   Atom        0.000000      0.000000      0.000000
     3   Atom        0.000000      0.000000      0.000000
     4   Atom        0.000000      0.000000      0.000000
     5   Atom        0.000000      0.000000      0.000000
     6   Atom        0.000000      0.000000      0.000000
     7   Atom        0.000000      0.000000      0.000000
     8   Atom        0.000000      0.000000      0.000000
     9   Atom        0.000000      0.000000      0.000000
    10   Atom        0.000000      0.000000      0.000000
    11   Atom        0.000000      0.000000      0.000000
    12   Atom        0.000000      0.000000      0.000000
 --------------------------------------------------------


 ---------------------------------------------------------------------------------
              Anisotropic Spin Dipole Couplings in Principal Axis System
 ---------------------------------------------------------------------------------

       Atom             a.u.   MegaHertz   Gauss  10(-4) cm-1        Axes

              Baa     0.0000     0.000     0.000     0.000  1.0000  0.0000  0.0000
     1 C(13)  Bbb     0.0000     0.000     0.000     0.000 -0.0000  1.0000  0.0000
              Bcc     0.0000     0.000     0.000     0.000  0.0000  0.0000  1.0000
 
              Baa     0.0000     0.000     0.000     0.000  1.0000  0.0000  0.0000
     2 C(13)  Bbb     0.0000     0.000     0.000     0.000 -0.0000  1.0000  0.0000
              Bcc     0.0000     0.000     0.000     0.000  0.0000  0.0000  1.0000
 
              Baa     0.0000     0.000     0.000     0.000  1.0000  0.0000  0.0000
     3 C(13)  Bbb     0.0000     0.000     0.000     0.000 -0.0000  1.0000  0.0000
              Bcc     0.0000     0.000     0.000     0.000  0.0000  0.0000  1.0000
 
              Baa     0.0000     0.000     0.000     0.000  1.0000  0.0000  0.0000
     4 C(13)  Bbb     0.0000     0.000     0.000     0.000 -0.0000  1.0000  0.0000
              Bcc     0.0000     0.000     0.000     0.000  0.0000  0.0000  1.0000
 
              Baa     0.0000     0.000     0.000     0.000  1.0000  0.0000  0.0000
     5 C(13)  Bbb     0.0000     0.000     0.000     0.000 -0.0000  1.0000  0.0000
              Bcc     0.0000     0.000     0.000     0.000  0.0000  0.0000  1.0000
 
              Baa     0.0000     0.000     0.000     0.000  1.0000  0.0000  0.0000
     6 C(13)  Bbb     0.0000     0.000     0.000     0.000 -0.0000  1.0000  0.0000
              Bcc     0.0000     0.000     0.000     0.000  0.0000  0.0000  1.0000
 
              Baa     0.0000     0.000     0.000     0.000  1.0000  0.0000  0.0000
     7 H(1)   Bbb     0.0000     0.000     0.000     0.000 -0.0000  1.0000  0.0000
              Bcc     0.0000     0.000     0.000     0.000  0.0000  0.0000  1.0000
 
              Baa     0.0000     0.000     0.000     0.000  1.0000  0.0000  0.0000
     8 H(1)   Bbb     0.0000     0.000     0.000     0.000 -0.0000  1.0000  0.0000
              Bcc     0.0000     0.000     0.000     0.000  0.0000  0.0000  1.0000
 
              Baa     0.0000     0.000     0.000     0.000  1.0000  0.0000  0.0000
     9 H(1)   Bbb     0.0000     0.000     0.000     0.000 -0.0000  1.0000  0.0000
              Bcc     0.0000     0.000     0.000     0.000  0.0000  0.0000  1.0000
 
              Baa     0.0000     0.000     0.000     0.000  1.0000  0.0000  0.0000
    10 H(1)   Bbb     0.0000     0.000     0.000     0.000 -0.0000  1.0000  0.0000
              Bcc     0.0000     0.000     0.000     0.000  0.0000  0.0000  1.0000
 
              Baa     0.0000     0.000     0.000     0.000  1.0000  0.0000  0.0000
    11 H(1)   Bbb     0.0000     0.000     0.000     0.000 -0.0000  1.0000  0.0000
              Bcc     0.0000     0.000     0.000     0.000  0.0000  0.0000  1.0000
 
              Baa     0.0000     0.000     0.000     0.000  1.0000  0.0000  0.0000
    12 H(1)   Bbb     0.0000     0.000     0.000     0.000 -0.0000  1.0000  0.0000
              Bcc     0.0000     0.000     0.000     0.000  0.0000  0.0000  1.0000
 

 ---------------------------------------------------------------------------------

 No NMR shielding tensors so no spin-rotation constants.
 Leave Link  601 at Mon Mar 16 03:50:19 2020, MaxMem=  6710886400 cpu:               2.4 elap:               0.2
 (Enter /opt/ohpc/pub/libs/gaussian/g16-A.03/sandybridge/g16/l701.exe)
 ... and contract with generalized density number  0.
 Compute integral first derivatives.
 Leave Link  701 at Mon Mar 16 03:50:20 2020, MaxMem=  6710886400 cpu:               2.1 elap:               0.2
 (Enter /opt/ohpc/pub/libs/gaussian/g16-A.03/sandybridge/g16/l702.exe)
 L702 exits ... SP integral derivatives will be done elsewhere.
 Leave Link  702 at Mon Mar 16 03:50:20 2020, MaxMem=  6710886400 cpu:               0.6 elap:               0.1
 (Enter /opt/ohpc/pub/libs/gaussian/g16-A.03/sandybridge/g16/l703.exe)
 Integral derivatives from FoFJK, PRISM(SPDF).
 Compute integral first derivatives, UseDBF=F ICtDFT=           0.
 Calling FoFJK, ICntrl=      2127 FMM=F ISym2X=1 I1Cent= 0 IOpClX= 1 NMat=1 NMatS=1 NMatT=0.
 FoFJK:  IHMeth= 1 ICntrl=    2127 DoSepK=T KAlg= 0 I1Cent=           0 FoldK=F
 IRaf=         1 NMat=       1 IRICut=       1 DoRegI=T DoRafI=F ISym2E= 1 IDoP0=0 IntGTp=1.
 FoFCou: FMM=F IPFlag=           0 FMFlag=      100000 FMFlg1=         800
         NFxFlg=           0 DoJE=F BraDBF=F KetDBF=F FulRan=T
         wScrn=  0.000000 ICntrl=      2527 IOpCl=  0 I1Cent=           0 NGrid=           0
         NMat0=    1 NMatS0=      1 NMatT0=    0 NMatD0=    1 NMtDS0=    0 NMtDT0=    0
 Petite list used in FoFCou.
 Leave Link  703 at Mon Mar 16 03:50:21 2020, MaxMem=  6710886400 cpu:               4.9 elap:               0.3
 (Enter /opt/ohpc/pub/libs/gaussian/g16-A.03/sandybridge/g16/l716.exe)
 Dipole        = 2.66453526D-15 2.66453526D-15-7.62120098D-25
 ***** Axes restored to original set *****
 -------------------------------------------------------------------
 Center     Atomic                   Forces (Hartrees/Bohr)
 Number     Number              X              Y              Z
 -------------------------------------------------------------------
      1        6          -0.000000000    0.004144434   -0.000000000
      2        6          -0.003589185    0.002072217    0.000000000
      3        6          -0.003589185   -0.002072217   -0.000000000
      4        6           0.000000000   -0.004144434    0.000000000
      5        6           0.003589185   -0.002072217    0.000000000
      6        6           0.003589185    0.002072217   -0.000000000
      7        1           0.000000000   -0.000852476    0.000000000
      8        1           0.000738266   -0.000426238   -0.000000000
      9        1           0.000738266    0.000426238   -0.000000000
     10        1          -0.000000000    0.000852476   -0.000000000
     11        1          -0.000738266    0.000426238   -0.000000000
     12        1          -0.000738266   -0.000426238   -0.000000000
 -------------------------------------------------------------------
 Cartesian Forces:  Max     0.004144434 RMS     0.001727380
 Leave Link  716 at Mon Mar 16 03:50:21 2020, MaxMem=  6710886400 cpu:               0.5 elap:               0.2
 (Enter /opt/ohpc/pub/libs/gaussian/g16-A.03/sandybridge/g16/l103.exe)

 GradGradGradGradGradGradGradGradGradGradGradGradGradGradGradGradGradGrad
 Berny optimization.
 FormGI is forming the generalized inverse of G from B-inverse, IUseBI=4.
 Internal  Forces:  Max     0.003291958 RMS     0.001133515
 Search for a local minimum.
 Step number   1 out of a maximum of   64
 All quantities printed in internal units (Hartrees-Bohrs-Radians)
 RMS Force = .11335D-02 SwitMx=.10000D-02 MixMth= 1
 Mixed Optimization -- RFO/linear search
 Second derivative matrix not updated -- first step.
 ITU=  0
     Eigenvalues ---    0.02179   0.02179   0.02179   0.02179   0.02179
     Eigenvalues ---    0.02179   0.02179   0.02179   0.02179   0.16000
     Eigenvalues ---    0.16000   0.16000   0.16000   0.16000   0.16000
     Eigenvalues ---    0.22000   0.22000   0.22000   0.34868   0.34868
     Eigenvalues ---    0.34868   0.34868   0.34868   0.34868   0.42366
     Eigenvalues ---    0.42366   0.46773   0.46773   0.46773   0.46773
 RFO step:  Lambda=-1.51470185D-04 EMin= 2.17923590D-02
 Linear search not attempted -- first point.
 Iteration  1 RMS(Cart)=  0.00280060 RMS(Int)=  0.00000000
 Iteration  2 RMS(Cart)=  0.00000000 RMS(Int)=  0.00000000
 ITry= 1 IFail=0 DXMaxC= 7.04D-03 DCOld= 1.00D+10 DXMaxT= 3.00D-01 DXLimC= 3.00D+00 Rises=F
 ClnCor:  largest displacement from symmetrization is 3.22D-13 for atom    11.
 Variable       Old X    -DE/DX   Delta X   Delta X   Delta X     New X
                                 (Linear)    (Quad)   (Total)
    R1        2.63269   0.00329   0.00000   0.00704   0.00704   2.63973
    R2        2.63269   0.00329   0.00000   0.00704   0.00704   2.63973
    R3        2.05890  -0.00085   0.00000  -0.00244  -0.00244   2.05645
    R4        2.63269   0.00329   0.00000   0.00704   0.00704   2.63973
    R5        2.05890  -0.00085   0.00000  -0.00244  -0.00244   2.05645
    R6        2.63269   0.00329   0.00000   0.00704   0.00704   2.63973
    R7        2.05890  -0.00085   0.00000  -0.00244  -0.00244   2.05645
    R8        2.63269   0.00329   0.00000   0.00704   0.00704   2.63973
    R9        2.05890  -0.00085   0.00000  -0.00244  -0.00244   2.05645
   R10        2.63269   0.00329   0.00000   0.00704   0.00704   2.63973
   R11        2.05890  -0.00085   0.00000  -0.00244  -0.00244   2.05645
   R12        2.05890  -0.00085   0.00000  -0.00244  -0.00244   2.05645
    A1        2.09440   0.00000   0.00000   0.00000   0.00000   2.09440
    A2        2.09440  -0.00000   0.00000  -0.00000   0.00000   2.09440
    A3        2.09440  -0.00000   0.00000  -0.00000   0.00000   2.09440
    A4        2.09440  -0.00000   0.00000  -0.00000   0.00000   2.09440
    A5        2.09440   0.00000   0.00000   0.00000   0.00000   2.09440
    A6        2.09440   0.00000   0.00000   0.00000   0.00000   2.09440
    A7        2.09440  -0.00000   0.00000  -0.00000   0.00000   2.09440
    A8        2.09440   0.00000   0.00000   0.00000   0.00000   2.09440
    A9        2.09440   0.00000   0.00000   0.00000   0.00000   2.09440
   A10        2.09440   0.00000   0.00000   0.00000   0.00000   2.09440
   A11        2.09440  -0.00000   0.00000  -0.00000   0.00000   2.09440
   A12        2.09440  -0.00000   0.00000  -0.00000   0.00000   2.09440
   A13        2.09440  -0.00000   0.00000  -0.00000   0.00000   2.09440
   A14        2.09440   0.00000   0.00000   0.00000   0.00000   2.09440
   A15        2.09440   0.00000   0.00000   0.00000   0.00000   2.09440
   A16        2.09440  -0.00000   0.00000  -0.00000   0.00000   2.09440
   A17        2.09440  -0.00000   0.00000  -0.00000   0.00000   2.09440
   A18        2.09440   0.00000   0.00000   0.00000   0.00000   2.09440
    D1        0.00000  -0.00000   0.00000  -0.00000   0.00000   0.00000
    D2        3.14159   0.00000   0.00000   0.00000   0.00000   3.14159
    D3        3.14159  -0.00000   0.00000  -0.00000   0.00000   3.14159
    D4        0.00000   0.00000   0.00000   0.00000   0.00000   0.00000
    D5        0.00000  -0.00000   0.00000  -0.00000   0.00000   0.00000
    D6        3.14159  -0.00000   0.00000  -0.00000   0.00000   3.14159
    D7        3.14159  -0.00000   0.00000  -0.00000   0.00000   3.14159
    D8        0.00000  -0.00000   0.00000  -0.00000   0.00000   0.00000
    D9        0.00000   0.00000   0.00000   0.00000   0.00000   0.00000
   D10        3.14159   0.00000   0.00000   0.00000   0.00000   3.14159
   D11        3.14159  -0.00000   0.00000  -0.00000   0.00000   3.14159
   D12       -0.00000  -0.00000   0.00000  -0.00000   0.00000   0.00000
   D13        0.00000  -0.00000   0.00000  -0.00000   0.00000   0.00000
   D14        3.14159   0.00000   0.00000   0.00000   0.00000   3.14159
   D15        3.14159  -0.00000   0.00000  -0.00000   0.00000   3.14159
   D16        0.00000  -0.00000   0.00000  -0.00000   0.00000   0.00000
   D17        0.00000  -0.00000   0.00000   0.00000   0.00000   0.00000
   D18        3.14159   0.00000   0.00000   0.00000   0.00000   3.14159
   D19        3.14159  -0.00000   0.00000  -0.00000   0.00000   3.14159
   D20        0.00000  -0.00000   0.00000  -0.00000   0.00000   0.00000
   D21        0.00000   0.00000   0.00000   0.00000   0.00000   0.00000
   D22        3.14159   0.00000   0.00000   0.00000   0.00000   3.14159
   D23        3.14159  -0.00000   0.00000  -0.00000   0.00000   3.14159
   D24       -0.00000  -0.00000   0.00000  -0.00000   0.00000   0.00000
         Item               Value     Threshold  Converged?
 Maximum Force            0.003292     0.000450     NO 
 RMS     Force            0.001134     0.000300     NO 
 Maximum Displacement     0.007036     0.001800     NO 
 RMS     Displacement     0.002801     0.001200     NO 
 Predicted change in Energy=-7.576031D-05
 Lowest energy point so far.  Saving SCF results.
 GradGradGradGradGradGradGradGradGradGradGradGradGradGradGradGradGradGrad

 Leave Link  103 at Mon Mar 16 03:50:21 2020, MaxMem=  6710886400 cpu:               1.3 elap:               0.1
 (Enter /opt/ohpc/pub/libs/gaussian/g16-A.03/sandybridge/g16/l202.exe)
                          Input orientation:                          
 ---------------------------------------------------------------------
 Center     Atomic      Atomic             Coordinates (Angstroms)
 Number     Number       Type             X           Y           Z
 ---------------------------------------------------------------------
      1          6           0       -0.000000    1.396883    0.000000
      2          6           0       -1.209736    0.698442    0.000000
      3          6           0       -1.209736   -0.698442    0.000000
      4          6           0        0.000000   -1.396883    0.000000
      5          6           0        1.209736   -0.698442    0.000000
      6          6           0        1.209736    0.698442    0.000000
      7          1           0       -0.000000    2.485111   -0.000000
      8          1           0       -2.152169    1.242555   -0.000000
      9          1           0       -2.152169   -1.242556   -0.000000
     10          1           0        0.000000   -2.485111   -0.000000
     11          1           0        2.152169   -1.242555   -0.000000
     12          1           0        2.152169    1.242556   -0.000000
 ---------------------------------------------------------------------
                    Distance matrix (angstroms):
                    1          2          3          4          5
     1  C    0.000000
     2  C    1.396883   0.000000
     3  C    2.419473   1.396883   0.000000
     4  C    2.793766   2.419473   1.396883   0.000000
     5  C    2.419473   2.793766   2.419473   1.396883   0.000000
     6  C    1.396883   2.419473   2.793766   2.419473   1.396883
     7  H    1.088228   2.157695   3.405653   3.881994   3.405653
     8  H    2.157695   1.088228   2.157695   3.405653   3.881994
     9  H    3.405653   2.157695   1.088228   2.157695   3.405653
    10  H    3.881994   3.405653   2.157695   1.088228   2.157695
    11  H    3.405653   3.881994   3.405653   2.157695   1.088228
    12  H    2.157695   3.405653   3.881994   3.405653   2.157695
                    6          7          8          9         10
     6  C    0.000000
     7  H    2.157695   0.000000
     8  H    3.405653   2.485111   0.000000
     9  H    3.881994   4.304339   2.485111   0.000000
    10  H    3.405653   4.970222   4.304339   2.485111   0.000000
    11  H    2.157695   4.304339   4.970222   4.304339   2.485111
    12  H    1.088228   2.485111   4.304339   4.970222   4.304339
                   11         12
    11  H    0.000000
    12  H    2.485111   0.000000
 Stoichiometry    C6H6
 Framework group  D6H[3C2'(HC.CH)]
 Deg. of freedom     2
 Full point group                 D6H     NOp  24
 RotChk:  IX=2 Diff= 2.92D-16
 Largest Abelian subgroup         D2H     NOp   8
 Largest concise Abelian subgroup D2      NOp   4
                         Standard orientation:                         
 ---------------------------------------------------------------------
 Center     Atomic      Atomic             Coordinates (Angstroms)
 Number     Number       Type             X           Y           Z
 ---------------------------------------------------------------------
      1          6           0        0.000000    1.396883   -0.000000
      2          6           0       -1.209736    0.698442   -0.000000
      3          6           0       -1.209736   -0.698442   -0.000000
      4          6           0        0.000000   -1.396883    0.000000
      5          6           0        1.209736   -0.698442    0.000000
      6          6           0        1.209736    0.698442    0.000000
      7          1           0        0.000000    2.485111   -0.000000
      8          1           0       -2.152169    1.242556   -0.000000
      9          1           0       -2.152169   -1.242556   -0.000000
     10          1           0        0.000000   -2.485111    0.000000
     11          1           0        2.152169   -1.242556    0.000000
     12          1           0        2.152169    1.242556    0.000000
 ---------------------------------------------------------------------
 Rotational constants (GHZ):           5.6836214           5.6836214           2.8418107
 Leave Link  202 at Mon Mar 16 03:50:21 2020, MaxMem=  6710886400 cpu:               0.3 elap:               0.0
 (Enter /opt/ohpc/pub/libs/gaussian/g16-A.03/sandybridge/g16/l301.exe)
 Standard basis: 6-31G (6D, 7F)
 Ernie: Thresh=  0.10000D-02 Tol=  0.10000D-05 Strict=F.
 There are    16 symmetry adapted cartesian basis functions of AG  symmetry.
 There are    11 symmetry adapted cartesian basis functions of B1G symmetry.
 There are     2 symmetry adapted cartesian basis functions of B2G symmetry.
 There are     4 symmetry adapted cartesian basis functions of B3G symmetry.
 There are     2 symmetry adapted cartesian basis functions of AU  symmetry.
 There are     4 symmetry adapted cartesian basis functions of B1U symmetry.
 There are    16 symmetry adapted cartesian basis functions of B2U symmetry.
 There are    11 symmetry adapted cartesian basis functions of B3U symmetry.
 There are    16 symmetry adapted basis functions of AG  symmetry.
 There are    11 symmetry adapted basis functions of B1G symmetry.
 There are     2 symmetry adapted basis functions of B2G symmetry.
 There are     4 symmetry adapted basis functions of B3G symmetry.
 There are     2 symmetry adapted basis functions of AU  symmetry.
 There are     4 symmetry adapted basis functions of B1U symmetry.
 There are    16 symmetry adapted basis functions of B2U symmetry.
 There are    11 symmetry adapted basis functions of B3U symmetry.
    66 basis functions,   156 primitive gaussians,    66 cartesian basis functions
    21 alpha electrons       21 beta electrons
       nuclear repulsion energy       203.1194717283 Hartrees.
 IExCor=33909 DFT=T Ex+Corr=LC-wHPBE ExCW=0 ScaHFX=  1.000000
 ScaDFX=  1.000000  1.000000  1.000000  1.000000 ScalE2=  1.000000  1.000000
 IRadAn=      5 IRanWt=     -1 IRanGd=            0 ICorTp=0 IEmpDi=  4
 HFx  wShort=  0.000000 wLong=  0.314100 cFull=  0.000000 cShort=  0.000000 cLong=  1.000000
 DFx  wShort=  0.000000 wLong=  0.314100 cFull=  0.000000 cShort=  1.000000 cLong=  0.000000
 NAtoms=   12 NActive=   12 NUniq=    2 SFac= 4.00D+00 NAtFMM=   60 NAOKFM=F Big=F
 Integral buffers will be    131072 words long.
 Raffenetti 2 integral format.
 Two-electron integral symmetry is turned on.
 Leave Link  301 at Mon Mar 16 03:50:21 2020, MaxMem=  6710886400 cpu:               1.1 elap:               0.1
 (Enter /opt/ohpc/pub/libs/gaussian/g16-A.03/sandybridge/g16/l302.exe)
 NPDir=0 NMtPBC=     1 NCelOv=     1 NCel=       1 NClECP=     1 NCelD=      1
         NCelK=      1 NCelE2=     1 NClLst=     1 CellRange=     0.0.
 One-electron integrals computed using PRISM.
 One-electron integral symmetry used in STVInt
 NBasis=    66 RedAO= T EigKep=  7.04D-04  NBF=    16    11     2     4     2     4    16    11
 NBsUse=    66 1.00D-06 EigRej= -1.00D+00 NBFU=    16    11     2     4     2     4    16    11
 Precomputing XC quadrature grid using
 IXCGrd= 4 IRadAn=           5 IRanWt=          -1 IRanGd=           0 AccXCQ= 0.00D+00.
 Generated NRdTot=       0 NPtTot=           0 NUsed=           0 NTot=          32
 NSgBfM=    66    66    66    66    66 MxSgAt=    12 MxSgA2=    12.
 Leave Link  302 at Mon Mar 16 03:50:21 2020, MaxMem=  6710886400 cpu:               2.3 elap:               0.2
 (Enter /opt/ohpc/pub/libs/gaussian/g16-A.03/sandybridge/g16/l303.exe)
 DipDrv:  MaxL=1.
 Leave Link  303 at Mon Mar 16 03:50:21 2020, MaxMem=  6710886400 cpu:               0.9 elap:               0.1
 (Enter /opt/ohpc/pub/libs/gaussian/g16-A.03/sandybridge/g16/l401.exe)
 Initial guess from the checkpoint file:  "/pscratch/cmri235_uksr/ocelot/fw/dev/ocelot_api/tests/wtuning_test/1b/Gau-62687.chk"
 B after Tr=     0.000000   -0.000000    0.000000
         Rot=    1.000000    0.000000    0.000000   -0.000000 Ang=   0.00 deg.
 Guess basis will be translated and rotated to current coordinates.
 JPrj=2 DoOrth=T DoCkMO=T.
 Initial guess orbital symmetries:
 Alpha Orbitals:
       Occupied  (?A) (B2G) (B2G) (?B) (?B) (?C) (?A) (B2G) (B2G)
                 (?B) (?B) (?A) (?C) (?C) (B2G) (B2G) (A2U) (?B)
                 (?B) (E1G) (E1G)
       Virtual   (E2U) (E2U) (?A) (B2G) (B2G) (B2G) (?B) (?B) (?C)
                 (?B) (?B) (B2G) (B2G) (?C) (A2U) (?C) (?A) (?A)
                 (E1G) (E1G) (?B) (?B) (?A) (B2G) (B2G) (E2U) (E2U)
                 (B2G) (?C) (?B) (?B) (B2G) (B2G) (?A) (?A) (B2G)
                 (B2G) (?B) (?B) (B2G) (B2G) (?C) (?B) (?B) (?C)
 Beta  Orbitals:
       Occupied  (?A) (B2G) (B2G) (?B) (?B) (?C) (?A) (B2G) (B2G)
                 (?B) (?B) (?A) (?C) (?C) (B2G) (B2G) (A2U) (?B)
                 (?B) (E1G) (E1G)
       Virtual   (E2U) (E2U) (?A) (B2G) (B2G) (B2G) (?B) (?B) (?C)
                 (?B) (?B) (B2G) (B2G) (?C) (A2U) (?C) (?A) (?A)
                 (E1G) (E1G) (?B) (?B) (?A) (B2G) (B2G) (E2U) (E2U)
                 (B2G) (?C) (?B) (?B) (B2G) (B2G) (?A) (?A) (B2G)
                 (B2G) (?B) (?B) (B2G) (B2G) (?C) (?B) (?B) (?C)
 Initial guess <Sx>= 0.0000 <Sy>= 0.0000 <Sz>= 0.0000 <S**2>=-0.0000 S=-0.0000
 Leave Link  401 at Mon Mar 16 03:50:22 2020, MaxMem=  6710886400 cpu:               1.6 elap:               0.1
 (Enter /opt/ohpc/pub/libs/gaussian/g16-A.03/sandybridge/g16/l502.exe)
 Keep R1 and R2 ints in memory in symmetry-blocked form, NReq=19109854.
 FoFCou: FMM=F IPFlag=           0 FMFlag=           0 FMFlg1=           0
         NFxFlg=           0 DoJE=F BraDBF=F KetDBF=F FulRan=T
         wScrn=  0.000000 ICntrl=       600 IOpCl=  0 I1Cent=           0 NGrid=           0
         NMat0=    1 NMatS0=   2211 NMatT0=    0 NMatD0=    1 NMtDS0=    0 NMtDT0=    0
 Petite list used in FoFCou.
 UHF open shell SCF:
 Using DIIS extrapolation, IDIIS=  1040.
 NGot=  6710886400 LenX=  6710146038 LenY=  6710141241
 Requested convergence on RMS density matrix=1.00D-08 within 128 cycles.
 Requested convergence on MAX density matrix=1.00D-06.
 Requested convergence on             energy=1.00D-06.
 No special actions if energy rises.

 Cycle   1  Pass 1  IDiag  1:
 E= -232.009019071397    
 DIIS: error= 4.91D-04 at cycle   1 NSaved=   1.
 NSaved= 1 IEnMin= 1 EnMin= -232.009019071397     IErMin= 1 ErrMin= 4.91D-04
 ErrMax= 4.91D-04  0.00D+00 EMaxC= 1.00D-01 BMatC= 5.21D-05 BMatP= 5.21D-05
 IDIUse=3 WtCom= 9.95D-01 WtEn= 4.91D-03
 Coeff-Com:  0.100D+01
 Coeff-En:   0.100D+01
 Coeff:      0.100D+01
 Gap=     0.423 Goal=   None    Shift=    0.000
 Gap=     0.423 Goal=   None    Shift=    0.000
 RMSDP=9.48D-05 MaxDP=5.61D-04              OVMax= 8.94D-04

 Cycle   2  Pass 1  IDiag  1:
 E= -232.009036662955     Delta-E=       -0.000017591557 Rises=F Damp=F
 DIIS: error= 1.77D-04 at cycle   2 NSaved=   2.
 NSaved= 2 IEnMin= 2 EnMin= -232.009036662955     IErMin= 2 ErrMin= 1.77D-04
 ErrMax= 1.77D-04  0.00D+00 EMaxC= 1.00D-01 BMatC= 3.94D-06 BMatP= 5.21D-05
 IDIUse=3 WtCom= 9.98D-01 WtEn= 1.77D-03
 Coeff-Com:  0.705D-01 0.930D+00
 Coeff-En:   0.000D+00 0.100D+01
 Coeff:      0.703D-01 0.930D+00
 Gap=     0.423 Goal=   None    Shift=    0.000
 Gap=     0.423 Goal=   None    Shift=    0.000
 RMSDP=2.69D-05 MaxDP=2.13D-04 DE=-1.76D-05 OVMax= 3.75D-04

 Cycle   3  Pass 1  IDiag  1:
 E= -232.009037831408     Delta-E=       -0.000001168454 Rises=F Damp=F
 DIIS: error= 6.15D-05 at cycle   3 NSaved=   3.
 NSaved= 3 IEnMin= 3 EnMin= -232.009037831408     IErMin= 3 ErrMin= 6.15D-05
 ErrMax= 6.15D-05  0.00D+00 EMaxC= 1.00D-01 BMatC= 7.49D-07 BMatP= 3.94D-06
 IDIUse=1 WtCom= 1.00D+00 WtEn= 0.00D+00
 Coeff-Com: -0.620D-01 0.252D+00 0.810D+00
 Coeff:     -0.620D-01 0.252D+00 0.810D+00
 Gap=     0.423 Goal=   None    Shift=    0.000
 Gap=     0.423 Goal=   None    Shift=    0.000
 RMSDP=7.66D-06 MaxDP=4.98D-05 DE=-1.17D-06 OVMax= 9.50D-05

 Cycle   4  Pass 1  IDiag  1:
 E= -232.009038057103     Delta-E=       -0.000000225694 Rises=F Damp=F
 DIIS: error= 4.32D-06 at cycle   4 NSaved=   4.
 NSaved= 4 IEnMin= 4 EnMin= -232.009038057103     IErMin= 4 ErrMin= 4.32D-06
 ErrMax= 4.32D-06  0.00D+00 EMaxC= 1.00D-01 BMatC= 2.11D-09 BMatP= 7.49D-07
 IDIUse=1 WtCom= 1.00D+00 WtEn= 0.00D+00
 Coeff-Com:  0.560D-02-0.411D-01-0.775D-01 0.111D+01
 Coeff:      0.560D-02-0.411D-01-0.775D-01 0.111D+01
 Gap=     0.423 Goal=   None    Shift=    0.000
 Gap=     0.423 Goal=   None    Shift=    0.000
 RMSDP=1.19D-06 MaxDP=6.94D-06 DE=-2.26D-07 OVMax= 1.22D-05

 Cycle   5  Pass 1  IDiag  1:
 E= -232.009038058244     Delta-E=       -0.000000001141 Rises=F Damp=F
 DIIS: error= 3.45D-07 at cycle   5 NSaved=   5.
 NSaved= 5 IEnMin= 5 EnMin= -232.009038058244     IErMin= 5 ErrMin= 3.45D-07
 ErrMax= 3.45D-07  0.00D+00 EMaxC= 1.00D-01 BMatC= 2.09D-11 BMatP= 2.11D-09
 IDIUse=1 WtCom= 1.00D+00 WtEn= 0.00D+00
 Coeff-Com: -0.547D-03 0.561D-02 0.679D-02-0.194D+00 0.118D+01
 Coeff:     -0.547D-03 0.561D-02 0.679D-02-0.194D+00 0.118D+01
 Gap=     0.423 Goal=   None    Shift=    0.000
 Gap=     0.423 Goal=   None    Shift=    0.000
 RMSDP=1.52D-07 MaxDP=8.95D-07 DE=-1.14D-09 OVMax= 1.27D-06

 Cycle   6  Pass 1  IDiag  1:
 E= -232.009038058256     Delta-E=       -0.000000000012 Rises=F Damp=F
 DIIS: error= 2.53D-08 at cycle   6 NSaved=   6.
 NSaved= 6 IEnMin= 6 EnMin= -232.009038058256     IErMin= 6 ErrMin= 2.53D-08
 ErrMax= 2.53D-08  0.00D+00 EMaxC= 1.00D-01 BMatC= 1.22D-13 BMatP= 2.09D-11
 IDIUse=1 WtCom= 1.00D+00 WtEn= 0.00D+00
 Coeff-Com:  0.859D-05-0.108D-03-0.152D-03 0.410D-02-0.669D-01 0.106D+01
 Coeff:      0.859D-05-0.108D-03-0.152D-03 0.410D-02-0.669D-01 0.106D+01
 Gap=     0.423 Goal=   None    Shift=    0.000
 Gap=     0.423 Goal=   None    Shift=    0.000
 RMSDP=1.11D-08 MaxDP=6.39D-08 DE=-1.18D-11 OVMax= 1.08D-07

 Cycle   7  Pass 1  IDiag  1:
 E= -232.009038058257     Delta-E=       -0.000000000001 Rises=F Damp=F
 DIIS: error= 4.45D-09 at cycle   7 NSaved=   7.
 NSaved= 7 IEnMin= 7 EnMin= -232.009038058257     IErMin= 7 ErrMin= 4.45D-09
 ErrMax= 4.45D-09  0.00D+00 EMaxC= 1.00D-01 BMatC= 2.65D-15 BMatP= 1.22D-13
 IDIUse=1 WtCom= 1.00D+00 WtEn= 0.00D+00
 Coeff-Com:  0.388D-05-0.411D-04-0.539D-04 0.182D-02-0.770D-02-0.144D+00
 Coeff-Com:  0.115D+01
 Coeff:      0.388D-05-0.411D-04-0.539D-04 0.182D-02-0.770D-02-0.144D+00
 Coeff:      0.115D+01
 Gap=     0.423 Goal=   None    Shift=    0.000
 Gap=     0.423 Goal=   None    Shift=    0.000
 RMSDP=1.70D-09 MaxDP=9.15D-09 DE=-9.09D-13 OVMax= 1.64D-08

 SCF Done:  E(ULC-wHPBE) =  -232.009038058     A.U. after    7 cycles
            NFock=  7  Conv=0.17D-08     -V/T= 2.0060
 <Sx>= 0.0000 <Sy>= 0.0000 <Sz>= 0.0000 <S**2>=-0.0000 S=-0.0000
 <L.S>= 0.000000000000E+00
 KE= 2.306307109985D+02 PE=-9.441322407214D+02 EE= 2.783730199364D+02
 Annihilation of the first spin contaminant:
 S**2 before annihilation    -0.0000,   after    -0.0000
 Leave Link  502 at Mon Mar 16 03:50:22 2020, MaxMem=  6710886400 cpu:               9.5 elap:               0.6
 (Enter /opt/ohpc/pub/libs/gaussian/g16-A.03/sandybridge/g16/l701.exe)
 ... and contract with generalized density number  0.
 Compute integral first derivatives.
 Leave Link  701 at Mon Mar 16 03:50:22 2020, MaxMem=  6710886400 cpu:               2.0 elap:               0.1
 (Enter /opt/ohpc/pub/libs/gaussian/g16-A.03/sandybridge/g16/l702.exe)
 L702 exits ... SP integral derivatives will be done elsewhere.
 Leave Link  702 at Mon Mar 16 03:50:22 2020, MaxMem=  6710886400 cpu:               0.6 elap:               0.1
 (Enter /opt/ohpc/pub/libs/gaussian/g16-A.03/sandybridge/g16/l703.exe)
 Integral derivatives from FoFJK, PRISM(SPDF).
 Compute integral first derivatives, UseDBF=F ICtDFT=           0.
 Calling FoFJK, ICntrl=      2127 FMM=F ISym2X=1 I1Cent= 0 IOpClX= 1 NMat=1 NMatS=1 NMatT=0.
 FoFJK:  IHMeth= 1 ICntrl=    2127 DoSepK=T KAlg= 0 I1Cent=           0 FoldK=F
 IRaf=         1 NMat=       1 IRICut=       1 DoRegI=T DoRafI=F ISym2E= 1 IDoP0=0 IntGTp=1.
 FoFCou: FMM=F IPFlag=           0 FMFlag=      100000 FMFlg1=         800
         NFxFlg=           0 DoJE=F BraDBF=F KetDBF=F FulRan=T
         wScrn=  0.000000 ICntrl=      2527 IOpCl=  0 I1Cent=           0 NGrid=           0
         NMat0=    1 NMatS0=      1 NMatT0=    0 NMatD0=    1 NMtDS0=    0 NMtDT0=    0
 Petite list used in FoFCou.
 Leave Link  703 at Mon Mar 16 03:50:23 2020, MaxMem=  6710886400 cpu:               4.6 elap:               0.3
 (Enter /opt/ohpc/pub/libs/gaussian/g16-A.03/sandybridge/g16/l716.exe)
 Dipole        = 4.44089210D-15-1.33226763D-15-2.33236072D-32
 ***** Axes restored to original set *****
 -------------------------------------------------------------------
 Center     Atomic                   Forces (Hartrees/Bohr)
 Number     Number              X              Y              Z
 -------------------------------------------------------------------
      1        6           0.000000000   -0.000514838    0.000000000
      2        6           0.000445863   -0.000257419   -0.000000000
      3        6           0.000445863    0.000257419    0.000000000
      4        6          -0.000000000    0.000514838    0.000000000
      5        6          -0.000445863    0.000257419   -0.000000000
      6        6          -0.000445863   -0.000257419   -0.000000000
      7        1          -0.000000000    0.000004192   -0.000000000
      8        1          -0.000003631    0.000002096   -0.000000000
      9        1          -0.000003631   -0.000002096    0.000000000
     10        1           0.000000000   -0.000004192    0.000000000
     11        1           0.000003631   -0.000002096    0.000000000
     12        1           0.000003631    0.000002096   -0.000000000
 -------------------------------------------------------------------
 Cartesian Forces:  Max     0.000514838 RMS     0.000210189
 Leave Link  716 at Mon Mar 16 03:50:23 2020, MaxMem=  6710886400 cpu:               0.5 elap:               0.0
 (Enter /opt/ohpc/pub/libs/gaussian/g16-A.03/sandybridge/g16/l103.exe)

 GradGradGradGradGradGradGradGradGradGradGradGradGradGradGradGradGradGrad
 Berny optimization.
 Using GEDIIS/GDIIS optimizer.
 FormGI is forming the generalized inverse of G from B-inverse, IUseBI=4.
 Internal  Forces:  Max     0.000510646 RMS     0.000170221
 Search for a local minimum.
 Step number   2 out of a maximum of   64
 All quantities printed in internal units (Hartrees-Bohrs-Radians)
 RMS Force = .17022D-03 SwitMx=.10000D-02 MixMth= 2
 Mixed Optimization -- En-DIIS/RFO-DIIS
 Update second derivatives using D2CorX and points    1    2
 DE= -6.47D-05 DEPred=-7.58D-05 R= 8.54D-01
 TightC=F SS=  1.41D+00  RLast= 1.82D-02 DXNew= 5.0454D-01 5.4733D-02
 Trust test= 8.54D-01 RLast= 1.82D-02 DXMaxT set to 3.00D-01
 ITU=  1  0
 Use linear search instead of GDIIS.
     Eigenvalues ---    0.02179   0.02179   0.02179   0.02179   0.02179
     Eigenvalues ---    0.02179   0.02179   0.02179   0.02179   0.16000
     Eigenvalues ---    0.16000   0.16000   0.16000   0.16000   0.16000
     Eigenvalues ---    0.22000   0.22000   0.22000   0.34533   0.34868
     Eigenvalues ---    0.34868   0.34868   0.34868   0.34868   0.42385
     Eigenvalues ---    0.42385   0.46773   0.46773   0.46773   0.53985
 RFO step:  Lambda=-1.96704738D-07 EMin= 2.17923590D-02
 Quartic linear search produced a step of -0.12585.
 Iteration  1 RMS(Cart)=  0.00044643 RMS(Int)=  0.00000000
 Iteration  2 RMS(Cart)=  0.00000000 RMS(Int)=  0.00000000
 ITry= 1 IFail=0 DXMaxC= 9.52D-04 DCOld= 1.00D+10 DXMaxT= 3.00D-01 DXLimC= 3.00D+00 Rises=F
 ClnCor:  largest displacement from symmetrization is 1.52D-13 for atom    12.
 Variable       Old X    -DE/DX   Delta X   Delta X   Delta X     New X
                                 (Linear)    (Quad)   (Total)
    R1        2.63973  -0.00051  -0.00089  -0.00007  -0.00095   2.63877
    R2        2.63973  -0.00051  -0.00089  -0.00007  -0.00095   2.63877
    R3        2.05645   0.00000   0.00031  -0.00030   0.00001   2.05646
    R4        2.63973  -0.00051  -0.00089  -0.00007  -0.00095   2.63877
    R5        2.05645   0.00000   0.00031  -0.00030   0.00001   2.05646
    R6        2.63973  -0.00051  -0.00089  -0.00007  -0.00095   2.63877
    R7        2.05645   0.00000   0.00031  -0.00030   0.00001   2.05646
    R8        2.63973  -0.00051  -0.00089  -0.00007  -0.00095   2.63877
    R9        2.05645   0.00000   0.00031  -0.00030   0.00001   2.05646
   R10        2.63973  -0.00051  -0.00089  -0.00007  -0.00095   2.63877
   R11        2.05645   0.00000   0.00031  -0.00030   0.00001   2.05646
   R12        2.05645   0.00000   0.00031  -0.00030   0.00001   2.05646
    A1        2.09440   0.00000  -0.00000   0.00000   0.00000   2.09440
    A2        2.09440  -0.00000  -0.00000  -0.00000  -0.00000   2.09440
    A3        2.09440   0.00000   0.00000   0.00000   0.00000   2.09440
    A4        2.09440   0.00000   0.00000   0.00000   0.00000   2.09440
    A5        2.09440  -0.00000  -0.00000  -0.00000   0.00000   2.09440
    A6        2.09440   0.00000   0.00000   0.00000   0.00000   2.09440
    A7        2.09440  -0.00000  -0.00000  -0.00000   0.00000   2.09440
    A8        2.09440   0.00000  -0.00000   0.00000   0.00000   2.09440
    A9        2.09440   0.00000   0.00000   0.00000   0.00000   2.09440
   A10        2.09440  -0.00000   0.00000   0.00000   0.00000   2.09440
   A11        2.09440  -0.00000   0.00000  -0.00000   0.00000   2.09440
   A12        2.09440   0.00000  -0.00000  -0.00000   0.00000   2.09440
   A13        2.09440   0.00000   0.00000   0.00000   0.00000   2.09440
   A14        2.09440  -0.00000  -0.00000  -0.00000   0.00000   2.09440
   A15        2.09440  -0.00000   0.00000   0.00000   0.00000   2.09440
   A16        2.09440  -0.00000   0.00000  -0.00000   0.00000   2.09440
   A17        2.09440  -0.00000   0.00000  -0.00000   0.00000   2.09440
   A18        2.09440   0.00000  -0.00000   0.00000  -0.00000   2.09440
    D1        0.00000   0.00000   0.00000   0.00000   0.00000   0.00000
    D2        3.14159   0.00000   0.00000   0.00000   0.00000   3.14159
    D3        3.14159   0.00000   0.00000   0.00000   0.00000   3.14159
    D4       -0.00000   0.00000   0.00000   0.00000   0.00000   0.00000
    D5       -0.00000   0.00000   0.00000  -0.00000   0.00000   0.00000
    D6        3.14159   0.00000   0.00000   0.00000   0.00000   3.14159
    D7        3.14159   0.00000   0.00000   0.00000   0.00000   3.14159
    D8        0.00000   0.00000   0.00000   0.00000   0.00000   0.00000
    D9       -0.00000  -0.00000   0.00000  -0.00000   0.00000   0.00000
   D10        3.14159  -0.00000   0.00000  -0.00000   0.00000   3.14159
   D11        3.14159  -0.00000   0.00000  -0.00000   0.00000   3.14159
   D12        0.00000  -0.00000   0.00000  -0.00000   0.00000   0.00000
   D13        0.00000   0.00000   0.00000   0.00000   0.00000   0.00000
   D14        3.14159   0.00000   0.00000   0.00000   0.00000   3.14159
   D15        3.14159  -0.00000   0.00000  -0.00000   0.00000   3.14159
   D16       -0.00000  -0.00000   0.00000  -0.00000   0.00000   0.00000
   D17       -0.00000   0.00000   0.00000   0.00000   0.00000   0.00000
   D18        3.14159  -0.00000   0.00000  -0.00000   0.00000   3.14159
   D19        3.14159   0.00000   0.00000   0.00000   0.00000   3.14159
   D20        0.00000  -0.00000   0.00000  -0.00000  -0.00000   0.00000
   D21        0.00000  -0.00000   0.00000  -0.00000   0.00000   0.00000
   D22        3.14159  -0.00000   0.00000  -0.00000   0.00000   3.14159
   D23        3.14159  -0.00000   0.00000  -0.00000   0.00000   3.14159
   D24       -0.00000  -0.00000   0.00000  -0.00000   0.00000   0.00000
         Item               Value     Threshold  Converged?
 Maximum Force            0.000511     0.000450     NO 
 RMS     Force            0.000170     0.000300     YES
 Maximum Displacement     0.000952     0.001800     YES
 RMS     Displacement     0.000446     0.001200     YES
 Predicted change in Energy=-1.449085D-06
 Lowest energy point so far.  Saving SCF results.
 GradGradGradGradGradGradGradGradGradGradGradGradGradGradGradGradGradGrad

 Leave Link  103 at Mon Mar 16 03:50:23 2020, MaxMem=  6710886400 cpu:               0.4 elap:               0.0
 (Enter /opt/ohpc/pub/libs/gaussian/g16-A.03/sandybridge/g16/l202.exe)
                          Input orientation:                          
[...]
 Full point group                 D6H     NOp  24
 RotChk:  IX=2 Diff= 3.51D-16
 Largest Abelian subgroup         D2H     NOp   8
 Largest concise Abelian subgroup D2      NOp   4
                         Standard orientation:                         
 ---------------------------------------------------------------------
 Center     Atomic      Atomic             Coordinates (Angstroms)
 Number     Number       Type             X           Y           Z
 ---------------------------------------------------------------------
      1          6           0       -0.000000    1.396379    0.000000
      2          6           0       -1.209300    0.698190   -0.000000
      3          6           0       -1.209300   -0.698190   -0.000000
      4          6           0        0.000000   -1.396379    0.000000
      5          6           0        1.209300   -0.698190    0.000000
      6          6           0        1.209300    0.698190    0.000000
      7          1           0       -0.000000    2.484613    0.000000
      8          1           0       -2.151738    1.242306   -0.000000
      9          1           0       -2.151738   -1.242306   -0.000000
     10          1           0        0.000000   -2.484613    0.000000
     11          1           0        2.151738   -1.242306    0.000000
     12          1           0        2.151738    1.242306    0.000000
 ---------------------------------------------------------------------
 Rotational constants (GHZ):           5.6873417           5.6873417           2.8436708
 Leave Link  202 at Mon Mar 16 03:50:25 2020, MaxMem=  6710886400 cpu:               0.3 elap:               0.0
 (Enter /opt/ohpc/pub/libs/gaussian/g16-A.03/sandybridge/g16/l601.exe)
 Copying SCF densities to generalized density rwf, IOpCl= 1 IROHF=0.

 **********************************************************************

            Population analysis using the SCF density.

 **********************************************************************

 Orbital symmetries:
 Alpha Orbitals:
       Occupied  (?A) (B2G) (B2G) (?B) (?B) (?C) (?A) (B2G) (B2G)
                 (?B) (?B) (?A) (?C) (?C) (B2G) (B2G) (A2U) (?B)
                 (?B) (E1G) (E1G)
       Virtual   (E2U) (E2U) (?A) (B2G) (B2G) (B2G) (?B) (?B) (?C)
                 (?B) (?B) (B2G) (B2G) (?C) (A2U) (?C) (?A) (?A)
                 (E1G) (E1G) (?B) (?B) (?A) (B2G) (B2G) (E2U) (E2U)
                 (B2G) (?C) (?B) (?B) (B2G) (B2G) (?A) (?A) (B2G)
                 (B2G) (?B) (?B) (B2G) (B2G) (?C) (?B) (?B) (?C)
 Beta  Orbitals:
       Occupied  (?A) (B2G) (B2G) (?B) (?B) (?C) (?A) (B2G) (B2G)
                 (?B) (?B) (?A) (?C) (?C) (B2G) (B2G) (A2U) (?B)
                 (?B) (E1G) (E1G)
       Virtual   (E2U) (E2U) (?A) (B2G) (B2G) (B2G) (?B) (?B) (?C)
                 (?B) (?B) (B2G) (B2G) (?C) (A2U) (?C) (?A) (?A)
                 (E1G) (E1G) (?B) (?B) (?A) (B2G) (B2G) (E2U) (E2U)
                 (B2G) (?C) (?B) (?B) (B2G) (B2G) (?A) (?A) (B2G)
                 (B2G) (?B) (?B) (B2G) (B2G) (?C) (?B) (?B) (?C)
 Unable to determine electronic state:  an orbital has unidentified symmetry.
 Alpha  occ. eigenvalues --  -10.07186 -10.07176 -10.07176 -10.07145 -10.07145
 Alpha  occ. eigenvalues --  -10.07135  -0.95981  -0.84990  -0.84990  -0.70423
 Alpha  occ. eigenvalues --   -0.70423  -0.62895  -0.55733  -0.54374  -0.51845
 Alpha  occ. eigenvalues --   -0.51845  -0.47553  -0.43284  -0.43284  -0.34125
 Alpha  occ. eigenvalues --   -0.34125
 Alpha virt. eigenvalues --    0.08205   0.08205   0.18259   0.23749   0.23749
 Alpha virt. eigenvalues --    0.25854   0.27698   0.27698   0.28604   0.39622
 Alpha virt. eigenvalues --    0.39622   0.41278   0.41278   0.59167   0.62234
 Alpha virt. eigenvalues --    0.64163   0.65725   0.68107   0.70798   0.70798
 Alpha virt. eigenvalues --    0.72390   0.72390   0.73455   0.76563   0.76563
 Alpha virt. eigenvalues --    0.76639   0.76639   0.84163   0.94384   0.95509
 Alpha virt. eigenvalues --    0.95509   0.99804   0.99804   1.06478   1.07686
 Alpha virt. eigenvalues --    1.10548   1.10548   1.22837   1.22837   1.28897
 Alpha virt. eigenvalues --    1.28897   1.32484   1.55932   1.55932   2.00514
  Beta  occ. eigenvalues --  -10.07186 -10.07176 -10.07176 -10.07145 -10.07145
  Beta  occ. eigenvalues --  -10.07135  -0.95981  -0.84990  -0.84990  -0.70423
  Beta  occ. eigenvalues --   -0.70423  -0.62895  -0.55733  -0.54374  -0.51845
  Beta  occ. eigenvalues --   -0.51845  -0.47553  -0.43284  -0.43284  -0.34125
  Beta  occ. eigenvalues --   -0.34125
  Beta virt. eigenvalues --    0.08205   0.08205   0.18259   0.23749   0.23749
  Beta virt. eigenvalues --    0.25854   0.27698   0.27698   0.28604   0.39622
  Beta virt. eigenvalues --    0.39622   0.41278   0.41278   0.59167   0.62234
  Beta virt. eigenvalues --    0.64163   0.65725   0.68107   0.70798   0.70798
  Beta virt. eigenvalues --    0.72390   0.72390   0.73455   0.76563   0.76563
  Beta virt. eigenvalues --    0.76639   0.76639   0.84163   0.94384   0.95509
  Beta virt. eigenvalues --    0.95509   0.99804   0.99804   1.06478   1.07686
  Beta virt. eigenvalues --    1.10548   1.10548   1.22837   1.22837   1.28897
  Beta virt. eigenvalues --    1.28897   1.32484   1.55932   1.55932   2.00514
          Condensed to atoms (all electrons):
               1          2          3          4          5          6
     1  C    4.903082   0.539312  -0.050685  -0.035016  -0.050685   0.539312
     2  C    0.539312   4.903082   0.539312  -0.050685  -0.035016  -0.050685
     3  C   -0.050685   0.539312   4.903082   0.539312  -0.050685  -0.035016
     4  C   -0.035016  -0.050685   0.539312   4.903082   0.539312  -0.050685
     5  C   -0.050685  -0.035016  -0.050685   0.539312   4.903082   0.539312
     6  C    0.539312  -0.050685  -0.035016  -0.050685   0.539312   4.903082
     7  H    0.368305  -0.033467   0.003907   0.000354   0.003907  -0.033467
     8  H   -0.033467   0.368305  -0.033467   0.003907   0.000354   0.003907
     9  H    0.003907  -0.033467   0.368305  -0.033467   0.003907   0.000354
    10  H    0.000354   0.003907  -0.033467   0.368305  -0.033467   0.003907
    11  H    0.003907   0.000354   0.003907  -0.033467   0.368305  -0.033467
    12  H   -0.033467   0.003907   0.000354   0.003907  -0.033467   0.368305
               7          8          9         10         11         12
     1  C    0.368305  -0.033467   0.003907   0.000354   0.003907  -0.033467
     2  C   -0.033467   0.368305  -0.033467   0.003907   0.000354   0.003907
     3  C    0.003907  -0.033467   0.368305  -0.033467   0.003907   0.000354
     4  C    0.000354   0.003907  -0.033467   0.368305  -0.033467   0.003907
     5  C    0.003907   0.000354   0.003907  -0.033467   0.368305  -0.033467
     6  C   -0.033467   0.003907   0.000354   0.003907  -0.033467   0.368305
     7  H    0.543461  -0.003802  -0.000132   0.000007  -0.000132  -0.003802
     8  H   -0.003802   0.543461  -0.003802  -0.000132   0.000007  -0.000132
     9  H   -0.000132  -0.003802   0.543461  -0.003802  -0.000132   0.000007
    10  H    0.000007  -0.000132  -0.003802   0.543461  -0.003802  -0.000132
    11  H   -0.000132   0.000007  -0.000132  -0.003802   0.543461  -0.003802
    12  H   -0.003802  -0.000132   0.000007  -0.000132  -0.003802   0.543461
          Atomic-Atomic Spin Densities.
               1          2          3          4          5          6
     1  C   -0.000000  -0.000000  -0.000000   0.000000  -0.000000  -0.000000
     2  C   -0.000000  -0.000000  -0.000000  -0.000000   0.000000  -0.000000
     3  C   -0.000000  -0.000000  -0.000000  -0.000000  -0.000000   0.000000
     4  C    0.000000  -0.000000  -0.000000  -0.000000  -0.000000  -0.000000
     5  C   -0.000000   0.000000  -0.000000  -0.000000  -0.000000  -0.000000
     6  C   -0.000000  -0.000000   0.000000  -0.000000  -0.000000  -0.000000
     7  H    0.000000  -0.000000   0.000000  -0.000000   0.000000  -0.000000
     8  H   -0.000000   0.000000  -0.000000   0.000000  -0.000000   0.000000
     9  H    0.000000  -0.000000   0.000000  -0.000000   0.000000  -0.000000
    10  H   -0.000000   0.000000  -0.000000   0.000000  -0.000000   0.000000
    11  H    0.000000  -0.000000   0.000000  -0.000000   0.000000  -0.000000
    12  H   -0.000000   0.000000  -0.000000   0.000000  -0.000000   0.000000
               7          8          9         10         11         12
     1  C    0.000000  -0.000000   0.000000  -0.000000   0.000000  -0.000000
     2  C   -0.000000   0.000000  -0.000000   0.000000  -0.000000   0.000000
     3  C    0.000000  -0.000000   0.000000  -0.000000   0.000000  -0.000000
     4  C   -0.000000   0.000000  -0.000000   0.000000  -0.000000   0.000000
     5  C    0.000000  -0.000000   0.000000  -0.000000   0.000000  -0.000000
     6  C   -0.000000   0.000000  -0.000000   0.000000  -0.000000   0.000000
     7  H    0.000000  -0.000000   0.000000  -0.000000   0.000000  -0.000000
     8  H   -0.000000   0.000000  -0.000000   0.000000  -0.000000   0.000000
     9  H    0.000000  -0.000000   0.000000  -0.000000   0.000000  -0.000000
    10  H   -0.000000   0.000000  -0.000000   0.000000  -0.000000   0.000000
    11  H    0.000000  -0.000000   0.000000  -0.000000   0.000000  -0.000000
    12  H   -0.000000   0.000000  -0.000000   0.000000  -0.000000   0.000000
 Mulliken charges and spin densities:
               1          2
     1  C   -0.154860  -0.000000
     2  C   -0.154860  -0.000000
     3  C   -0.154860  -0.000000
     4  C   -0.154860  -0.000000
     5  C   -0.154860  -0.000000
     6  C   -0.154860  -0.000000
     7  H    0.154860   0.000000
     8  H    0.154860   0.000000
     9  H    0.154860   0.000000
    10  H    0.154860   0.000000
    11  H    0.154860   0.000000
    12  H    0.154860   0.000000
 Sum of Mulliken charges =  -0.00000  -0.00000
 Mulliken charges and spin densities with hydrogens summed into heavy atoms:
               1          2
     1  C   -0.000000  -0.000000
     2  C   -0.000000  -0.000000
     3  C   -0.000000  -0.000000
     4  C   -0.000000  -0.000000
     5  C   -0.000000  -0.000000
     6  C   -0.000000  -0.000000
 Electronic spatial extent (au):  <R**2>=            458.0675
 Charge=             -0.0000 electrons
 Dipole moment (field-independent basis, Debye):
    X=             -0.0000    Y=              0.0000    Z=              0.0000  Tot=              0.0000
 Quadrupole moment (field-independent basis, Debye-Ang):
   XX=            -31.0378   YY=            -31.0378   ZZ=            -38.9677
   XY=              0.0000   XZ=             -0.0000   YZ=              0.0000
 Traceless Quadrupole moment (field-independent basis, Debye-Ang):
   XX=              2.6433   YY=              2.6433   ZZ=             -5.2866
   XY=              0.0000   XZ=             -0.0000   YZ=              0.0000
 Octapole moment (field-independent basis, Debye-Ang**2):
  XXX=             -0.0000  YYY=              0.0000  ZZZ=             -0.0000  XYY=             -0.0000
  XXY=              0.0000  XXZ=              0.0000  XZZ=             -0.0000  YZZ=              0.0000
  YYZ=              0.0000  XYZ=             -0.0000
 Hexadecapole moment (field-independent basis, Debye-Ang**3):
 XXXX=           -264.2180 YYYY=           -264.2180 ZZZZ=            -40.3704 XXXY=             -0.0000
 XXXZ=             -0.0000 YYYX=              0.0000 YYYZ=              0.0000 ZZZX=             -0.0000
 ZZZY=              0.0000 XXYY=            -88.0727 XXZZ=            -60.7046 YYZZ=            -60.7046
 XXYZ=              0.0000 YYXZ=             -0.0000 ZZXY=             -0.0000
 N-N= 2.031815670706D+02 E-N=-9.442626789063D+02  KE= 2.306384392786D+02
 Symmetry AG   KE= 7.427174036840D+01
 Symmetry B1G  KE= 3.757829284653D+01
 Symmetry B2G  KE= 2.262170753551D+00
 Symmetry B3G  KE= 2.262170753551D+00
 Symmetry AU   KE= 3.996207693321D-17
 Symmetry B1U  KE= 1.890577230007D+00
 Symmetry B2U  KE= 7.197626218622D+01
 Symmetry B3U  KE= 4.039722514038D+01
 Symmetry AG   SP=-1.961394348388D-14
 Symmetry B1G  SP=-3.727275013386D-15
 Symmetry B2G  SP=-2.628651765182D-15
 Symmetry B3G  SP=-2.400171659320D-15
 Symmetry AU   SP=-1.165869982692D-17
 Symmetry B1U  SP=-3.040149046712D-15
 Symmetry B2U  SP=-9.830782159829D-15
 Symmetry B3U  SP=-9.228114107379D-15
                          Isotropic Fermi Contact Couplings
        Atom                 a.u.       MegaHertz       Gauss      10(-4) cm-1
     1  C(13)             -0.00000      -0.00000      -0.00000      -0.00000
     2  C(13)             -0.00000      -0.00000      -0.00000      -0.00000
     3  C(13)             -0.00000      -0.00000      -0.00000      -0.00000
     4  C(13)             -0.00000      -0.00000      -0.00000      -0.00000
     5  C(13)             -0.00000      -0.00000      -0.00000      -0.00000
     6  C(13)             -0.00000      -0.00000      -0.00000      -0.00000
     7  H(1)              -0.00000      -0.00000      -0.00000      -0.00000
     8  H(1)              -0.00000      -0.00000      -0.00000      -0.00000
     9  H(1)              -0.00000      -0.00000      -0.00000      -0.00000
    10  H(1)              -0.00000      -0.00000      -0.00000      -0.00000
    11  H(1)              -0.00000      -0.00000      -0.00000      -0.00000
    12  H(1)              -0.00000      -0.00000      -0.00000      -0.00000
 --------------------------------------------------------
       Center         ----  Spin Dipole Couplings  ----
                      3XX-RR        3YY-RR        3ZZ-RR
 --------------------------------------------------------
     1   Atom        0.000000      0.000000      0.000000
     2   Atom        0.000000      0.000000      0.000000
     3   Atom        0.000000      0.000000      0.000000
     4   Atom        0.000000      0.000000      0.000000
     5   Atom        0.000000      0.000000      0.000000
     6   Atom        0.000000      0.000000      0.000000
     7   Atom        0.000000      0.000000      0.000000
     8   Atom        0.000000      0.000000      0.000000
     9   Atom        0.000000      0.000000      0.000000
    10   Atom        0.000000      0.000000      0.000000
    11   Atom        0.000000      0.000000      0.000000
    12   Atom        0.000000      0.000000      0.000000
 --------------------------------------------------------
                        XY            XZ            YZ
 --------------------------------------------------------
     1   Atom        0.000000      0.000000      0.000000
     2   Atom        0.000000      0.000000      0.000000
     3   Atom        0.000000      0.000000      0.000000
     4   Atom        0.000000      0.000000      0.000000
     5   Atom        0.000000      0.000000      0.000000
     6   Atom        0.000000      0.000000      0.000000
     7   Atom        0.000000      0.000000      0.000000
     8   Atom        0.000000      0.000000      0.000000
     9   Atom        0.000000      0.000000      0.000000
    10   Atom        0.000000      0.000000      0.000000
    11   Atom        0.000000      0.000000      0.000000
    12   Atom        0.000000      0.000000      0.000000
 --------------------------------------------------------


 ---------------------------------------------------------------------------------
              Anisotropic Spin Dipole Couplings in Principal Axis System
 ---------------------------------------------------------------------------------

       Atom             a.u.   MegaHertz   Gauss  10(-4) cm-1        Axes

              Baa     0.0000     0.000     0.000     0.000  1.0000  0.0000  0.0000
     1 C(13)  Bbb     0.0000     0.000     0.000     0.000 -0.0000  1.0000  0.0000
              Bcc     0.0000     0.000     0.000     0.000  0.0000  0.0000  1.0000
 
              Baa     0.0000     0.000     0.000     0.000  1.0000  0.0000  0.0000
     2 C(13)  Bbb     0.0000     0.000     0.000     0.000 -0.0000  1.0000  0.0000
              Bcc     0.0000     0.000     0.000     0.000  0.0000  0.0000  1.0000
 
              Baa     0.0000     0.000     0.000     0.000  1.0000  0.0000  0.0000
     3 C(13)  Bbb     0.0000     0.000     0.000     0.000 -0.0000  1.0000  0.0000
              Bcc     0.0000     0.000     0.000     0.000  0.0000  0.0000  1.0000
 
              Baa     0.0000     0.000     0.000     0.000  1.0000  0.0000  0.0000
     4 C(13)  Bbb     0.0000     0.000     0.000     0.000 -0.0000  1.0000  0.0000
              Bcc     0.0000     0.000     0.000     0.000  0.0000  0.0000  1.0000
 
              Baa     0.0000     0.000     0.000     0.000  1.0000  0.0000  0.0000
     5 C(13)  Bbb     0.0000     0.000     0.000     0.000 -0.0000  1.0000  0.0000
              Bcc     0.0000     0.000     0.000     0.000  0.0000  0.0000  1.0000
 
              Baa     0.0000     0.000     0.000     0.000  1.0000  0.0000  0.0000
     6 C(13)  Bbb     0.0000     0.000     0.000     0.000 -0.0000  1.0000  0.0000
              Bcc     0.0000     0.000     0.000     0.000  0.0000  0.0000  1.0000
 
              Baa     0.0000     0.000     0.000     0.000  1.0000  0.0000  0.0000
     7 H(1)   Bbb     0.0000     0.000     0.000     0.000 -0.0000  1.0000  0.0000
              Bcc     0.0000     0.000     0.000     0.000  0.0000  0.0000  1.0000
 
              Baa     0.0000     0.000     0.000     0.000  1.0000  0.0000  0.0000
     8 H(1)   Bbb     0.0000     0.000     0.000     0.000 -0.0000  1.0000  0.0000
              Bcc     0.0000     0.000     0.000     0.000  0.0000  0.0000  1.0000
 
              Baa     0.0000     0.000     0.000     0.000  1.0000  0.0000  0.0000
     9 H(1)   Bbb     0.0000     0.000     0.000     0.000 -0.0000  1.0000  0.0000
              Bcc     0.0000     0.000     0.000     0.000  0.0000  0.0000  1.0000
 
              Baa     0.0000     0.000     0.000     0.000  1.0000  0.0000  0.0000
    10 H(1)   Bbb     0.0000     0.000     0.000     0.000 -0.0000  1.0000  0.0000
              Bcc     0.0000     0.000     0.000     0.000  0.0000  0.0000  1.0000
 
              Baa     0.0000     0.000     0.000     0.000  1.0000  0.0000  0.0000
    11 H(1)   Bbb     0.0000     0.000     0.000     0.000 -0.0000  1.0000  0.0000
              Bcc     0.0000     0.000     0.000     0.000  0.0000  0.0000  1.0000
 
              Baa     0.0000     0.000     0.000     0.000  1.0000  0.0000  0.0000
    12 H(1)   Bbb     0.0000     0.000     0.000     0.000 -0.0000  1.0000  0.0000
              Bcc     0.0000     0.000     0.000     0.000  0.0000  0.0000  1.0000
 

 ---------------------------------------------------------------------------------

 No NMR shielding tensors so no spin-rotation constants.
 Leave Link  601 at Mon Mar 16 03:50:25 2020, MaxMem=  6710886400 cpu:               3.6 elap:               0.3
 (Enter /opt/ohpc/pub/libs/gaussian/g16-A.03/sandybridge/g16/l9999.exe)

 Test job not archived.
 1\1\GINC-CNODE145\FOpt\ULC-wHPBE\6-31G\C6H6\QAI222\16-Mar-2020\0\\#P u
 LC-wHPBE/6-31G iop(3/107=0314100000, 3/108=0314100000) opt\\H6 C6\\0,1
 \C,-0.0000000243,1.396379262,0.\C,-1.2092999264,0.69818961,0.\C,-1.209
 2999021,-0.6981896521,0.\C,0.0000000243,-1.396379262,0.\C,1.2092999264
 ,-0.69818961,0.\C,1.2092999021,0.6981896521,0.\H,-0.0000000432,2.48461
 26967,0.\H,-2.1517377355,1.2423063109,0.\H,-2.1517376923,-1.2423063858
 ,0.\H,0.0000000432,-2.4846126967,0.\H,2.1517377355,-1.2423063109,0.\H,
 2.1517376923,1.2423063858,0.\\Version=EM64L-G16RevA.03\HF=-232.0090395
 \S2=0.\S2-1=0.\S2A=0.\RMSD=2.001e-09\RMSF=2.756e-06\Dipole=0.,0.,0.\Qu
 adrupole=1.9652341,1.9652341,-3.9304682,0.,0.,0.\PG=D06H [3C2'(H1C1.C1
 H1)]\\@


 THE WISE MAN HAS THE POWER TO REASON AWAY
 WHAT A FOOL BELIEVES.
                     - DOOBIE BROTHERS
 Job cpu time:       0 days  0 hours  1 minutes 40.2 seconds.
 Elapsed time:       0 days  0 hours  0 minutes  7.5 seconds.
 File lengths (MBytes):  RWF=    272 Int=      0 D2E=      0 Chk=     32 Scr=     32
 Normal termination of Gaussian 16 at Mon Mar 16 03:50:25 2020.
