 Entering Gaussian System, Link 0=g16
 Input=1b_opt_1.gjf
 Output=1b_opt_1.log
 Initial command:
 /opt/ohpc/pub/libs/gaussian/g16-A.03/haswell/g16/l1.exe "/scratch/smgo234/Ocelot/test/1b/Gau-42323.inp" -scrdir="/scratch/smgo234/Ocelot/test/1b/"
 Entering Link 1 = /opt/ohpc/pub/libs/gaussian/g16-A.03/haswell/g16/l1.exe PID=     42324.
  
 Copyright (c) 1988,1990,1992,1993,1995,1998,2003,2009,2016,
            Gaussian, Inc.  All Rights Reserved.
  
 This is part of the Gaussian(R) 16 program.  It is based on
 the Gaussian(R) 09 system (copyright 2009, Gaussian, Inc.),
 the Gaussian(R) 03 system (copyright 2003, Gaussian, Inc.),
 the Gaussian(R) 98 system (copyright 1998, Gaussian, Inc.),
 the Gaussian(R) 94 system (copyright 1995, Gaussian, Inc.),
 the Gaussian 92(TM) system (copyright 1992, Gaussian, Inc.),
 the Gaussian 90(TM) system (copyright 1990, Gaussian, Inc.),
 the Gaussian 88(TM) system (copyright 1988, Gaussian, Inc.),
 the Gaussian 86(TM) system (copyright 1986, Carnegie Mellon
 University), and the Gaussian 82(TM) system (copyright 1983,
 Carnegie Mellon University). Gaussian is a federally registered
 trademark of Gaussian, Inc.
  
 This software contains proprietary and confidential information,
 including trade secrets, belonging to Gaussian, Inc.
  
 This software is provided under written license and may be
 used, copied, transmitted, or stored only in accord with that
 written license.
  
 The following legend is applicable only to US Government
 contracts under FAR:
  
                    RESTRICTED RIGHTS LEGEND
  
 Use, reproduction and disclosure by the US Government is
 subject to restrictions as set forth in subparagraphs (a)
 and (c) of the Commercial Computer Software - Restricted
 Rights clause in FAR 52.227-19.
  
 Gaussian, Inc.
 340 Quinnipiac St., Bldg. 40, Wallingford CT 06492
  
  
 ---------------------------------------------------------------
 Warning -- This program may not be used in any manner that
 competes with the business of Gaussian, Inc. or will provide
 assistance to any competitor of Gaussian, Inc.  The licensee
 of this program is prohibited from giving any competitor of
 Gaussian, Inc. access to this program.  By using this program,
 the user acknowledges that Gaussian, Inc. is engaged in the
 business of creating and licensing software in the field of
 computational chemistry and represents and warrants to the
 licensee that it is not a competitor of Gaussian, Inc. and that
 it will not use this program in any manner prohibited above.
 ---------------------------------------------------------------
  

 Cite this work as:
 Gaussian 16, Revision A.03,
 M. J. Frisch, G. W. Trucks, H. B. Schlegel, G. E. Scuseria, 
 M. A. Robb, J. R. Cheeseman, G. Scalmani, V. Barone, 
 G. A. Petersson, H. Nakatsuji, X. Li, M. Caricato, A. V. Marenich, 
 J. Bloino, B. G. Janesko, R. Gomperts, B. Mennucci, H. P. Hratchian, 
 J. V. Ortiz, A. F. Izmaylov, J. L. Sonnenberg, D. Williams-Young, 
 F. Ding, F. Lipparini, F. Egidi, J. Goings, B. Peng, A. Petrone, 
 T. Henderson, D. Ranasinghe, V. G. Zakrzewski, J. Gao, N. Rega, 
 G. Zheng, W. Liang, M. Hada, M. Ehara, K. Toyota, R. Fukuda, 
 J. Hasegawa, M. Ishida, T. Nakajima, Y. Honda, O. Kitao, H. Nakai, 
 T. Vreven, K. Throssell, J. A. Montgomery, Jr., J. E. Peralta, 
 F. Ogliaro, M. J. Bearpark, J. J. Heyd, E. N. Brothers, K. N. Kudin, 
 V. N. Staroverov, T. A. Keith, R. Kobayashi, J. Normand, 
 K. Raghavachari, A. P. Rendell, J. C. Burant, S. S. Iyengar, 
 J. Tomasi, M. Cossi, J. M. Millam, M. Klene, C. Adamo, R. Cammi, 
 J. W. Ochterski, R. L. Martin, K. Morokuma, O. Farkas, 
 J. B. Foresman, and D. J. Fox, Gaussian, Inc., Wallingford CT, 2016.
 
 ******************************************
 Gaussian 16:  ES64L-G16RevA.03 25-Dec-2016
                25-Feb-2020 
 ******************************************
 %mem=50GB
 %nproc=16
 Will use up to   16 processors via shared memory.
 ----------------------------------------------------------------------
 #P uLC-wHPBE/6-31G iop(3/107=0272500000, 3/108=0272500000) iop(3/107=0
 314200000, 3/108=0314200000) opt
 ----------------------------------------------------------------------
 1/18=20,19=15,26=3,38=1/1,3;
 2/9=110,12=2,17=6,18=5,40=1/2;
 3/5=1,6=6,11=2,25=1,30=1,71=1,74=-71,107=314200000,108=314200000,116=2/1,2,3;
 4//1;
 5/5=2,38=5/2;
 6/7=2,8=2,9=2,10=2,28=1/1;
 7//1,2,3,16;
 1/18=20,19=15,26=3/3(2);
 2/9=110/2;
 99//99;
 2/9=110/2;
 3/5=1,6=6,11=2,25=1,30=1,71=1,74=-71,107=314200000,108=314200000,116=2/1,2,3;
 4/5=5,16=3,69=1/1;
 5/5=2,38=5/2;
 7//1,2,3,16;
 1/18=20,19=15,26=3/3(-5);
 2/9=110/2;
 6/7=2,8=2,9=2,10=2,19=2,28=1/1;
 99/9=1/99;
 Leave Link    1 at Tue Feb 25 12:22:45 2020, MaxMem=  6710886400 cpu:               9.9 elap:               0.7
 (Enter /opt/ohpc/pub/libs/gaussian/g16-A.03/haswell/g16/l101.exe)
 -----
 H6 C5
 -----
 Symbolic Z-matrix:
 Charge =  0 Multiplicity = 1
 C                     0.        0.89708  -0.93525 
 C                     0.        1.13409   0.42538 
 C                     0.        0.        1.24305 
 C                     0.       -1.13409   0.42538 
 C                     0.       -0.89708  -0.93525 
 H                     0.        0.       -1.72336 
 H                     0.        1.62254  -1.74574 
 H                     0.        2.16413   0.77433 
 H                     0.        0.        2.32629 
 H                     0.       -2.16413   0.77433 
 H                     0.       -1.62254  -1.74574 
 
 ITRead=  0  0  0  0  0  0  0  0  0  0  0
 MicOpt= -1 -1 -1 -1 -1 -1 -1 -1 -1 -1 -1
 NAtoms=     11 NQM=       11 NQMF=       0 NMMI=      0 NMMIF=      0
                NMic=       0 NMicF=      0.
                    Isotopes and Nuclear Properties:
 (Nuclear quadrupole moments (NQMom) in fm**2, nuclear magnetic moments (NMagM)
  in nuclear magnetons)

  Atom         1           2           3           4           5           6           7           8           9          10
 IAtWgt=          12          12          12          12          12           1           1           1           1           1
 AtmWgt=  12.0000000  12.0000000  12.0000000  12.0000000  12.0000000   1.0078250   1.0078250   1.0078250   1.0078250   1.0078250
 NucSpn=           0           0           0           0           0           1           1           1           1           1
 AtZEff=  -0.0000000  -0.0000000  -0.0000000  -0.0000000  -0.0000000  -0.0000000  -0.0000000  -0.0000000  -0.0000000  -0.0000000
 NQMom=    0.0000000   0.0000000   0.0000000   0.0000000   0.0000000   0.0000000   0.0000000   0.0000000   0.0000000   0.0000000
 NMagM=    0.0000000   0.0000000   0.0000000   0.0000000   0.0000000   2.7928460   2.7928460   2.7928460   2.7928460   2.7928460
 AtZNuc=   6.0000000   6.0000000   6.0000000   6.0000000   6.0000000   1.0000000   1.0000000   1.0000000   1.0000000   1.0000000

  Atom        11
 IAtWgt=           1
 AtmWgt=   1.0078250
 NucSpn=           1
 AtZEff=  -0.0000000
 NQMom=    0.0000000
 NMagM=    2.7928460
 AtZNuc=   1.0000000
 Leave Link  101 at Tue Feb 25 12:22:45 2020, MaxMem=  6710886400 cpu:               7.1 elap:               0.5
 (Enter /opt/ohpc/pub/libs/gaussian/g16-A.03/haswell/g16/l103.exe)

 GradGradGradGradGradGradGradGradGradGradGradGradGradGradGradGradGradGrad
 Berny optimization.
 Initialization pass.
                           ----------------------------
                           !    Initial Parameters    !
                           ! (Angstroms and Degrees)  !
 --------------------------                            --------------------------
 ! Name  Definition              Value          Derivative Info.                !
 --------------------------------------------------------------------------------
 ! R1    R(1,2)                  1.3811         estimate D2E/DX2                !
 ! R2    R(1,5)                  1.7942         estimate D2E/DX2                !
 ! R3    R(1,6)                  1.1941         estimate D2E/DX2                !
 ! R4    R(1,7)                  1.0877         estimate D2E/DX2                !
 ! R5    R(2,3)                  1.3981         estimate D2E/DX2                !
 ! R6    R(2,8)                  1.0875         estimate D2E/DX2                !
 ! R7    R(3,4)                  1.3981         estimate D2E/DX2                !
 ! R8    R(3,9)                  1.0832         estimate D2E/DX2                !
 ! R9    R(4,5)                  1.3811         estimate D2E/DX2                !
 ! R10   R(4,10)                 1.0875         estimate D2E/DX2                !
 ! R11   R(5,6)                  1.1941         estimate D2E/DX2                !
 ! R12   R(5,11)                 1.0877         estimate D2E/DX2                !
 ! A1    A(2,1,5)               99.8814         estimate D2E/DX2                !
 ! A2    A(2,1,6)              141.1816         estimate D2E/DX2                !
 ! A3    A(2,1,7)              128.2875         estimate D2E/DX2                !
 ! A4    A(5,1,7)              131.8311         estimate D2E/DX2                !
 ! A5    A(6,1,7)               90.5309         estimate D2E/DX2                !
 ! A6    A(1,2,3)              115.91           estimate D2E/DX2                !
 ! A7    A(1,2,8)              118.5968         estimate D2E/DX2                !
 ! A8    A(3,2,8)              125.4932         estimate D2E/DX2                !
 ! A9    A(2,3,4)              108.4172         estimate D2E/DX2                !
 ! A10   A(2,3,9)              125.7914         estimate D2E/DX2                !
 ! A11   A(4,3,9)              125.7914         estimate D2E/DX2                !
 ! A12   A(3,4,5)              115.91           estimate D2E/DX2                !
 ! A13   A(3,4,10)             125.4932         estimate D2E/DX2                !
 ! A14   A(5,4,10)             118.5968         estimate D2E/DX2                !
 ! A15   A(1,5,4)               99.8814         estimate D2E/DX2                !
 ! A16   A(1,5,11)             131.8311         estimate D2E/DX2                !
 ! A17   A(4,5,6)              141.1816         estimate D2E/DX2                !
 ! A18   A(4,5,11)             128.2875         estimate D2E/DX2                !
 ! A19   A(6,5,11)              90.5309         estimate D2E/DX2                !
 ! D1    D(5,1,2,3)              0.0            estimate D2E/DX2                !
 ! D2    D(5,1,2,8)            180.0            estimate D2E/DX2                !
 ! D3    D(6,1,2,3)              0.0            estimate D2E/DX2                !
 ! D4    D(6,1,2,8)            180.0            estimate D2E/DX2                !
 ! D5    D(7,1,2,3)            180.0            estimate D2E/DX2                !
 ! D6    D(7,1,2,8)              0.0            estimate D2E/DX2                !
 ! D7    D(2,1,5,4)              0.0            estimate D2E/DX2                !
 ! D8    D(2,1,5,11)           180.0            estimate D2E/DX2                !
 ! D9    D(7,1,5,4)            180.0            estimate D2E/DX2                !
 ! D10   D(7,1,5,11)             0.0            estimate D2E/DX2                !
 ! D11   D(1,2,3,4)              0.0            estimate D2E/DX2                !
 ! D12   D(1,2,3,9)            180.0            estimate D2E/DX2                !
 ! D13   D(8,2,3,4)            180.0            estimate D2E/DX2                !
 ! D14   D(8,2,3,9)              0.0            estimate D2E/DX2                !
 ! D15   D(2,3,4,5)              0.0            estimate D2E/DX2                !
 ! D16   D(2,3,4,10)           180.0            estimate D2E/DX2                !
 ! D17   D(9,3,4,5)            180.0            estimate D2E/DX2                !
 ! D18   D(9,3,4,10)             0.0            estimate D2E/DX2                !
 ! D19   D(3,4,5,1)              0.0            estimate D2E/DX2                !
 ! D20   D(3,4,5,6)              0.0            estimate D2E/DX2                !
 ! D21   D(3,4,5,11)           180.0            estimate D2E/DX2                !
 ! D22   D(10,4,5,1)           180.0            estimate D2E/DX2                !
 ! D23   D(10,4,5,6)           180.0            estimate D2E/DX2                !
 ! D24   D(10,4,5,11)            0.0            estimate D2E/DX2                !
 --------------------------------------------------------------------------------
 Trust Radius=3.00D-01 FncErr=1.00D-07 GrdErr=1.00D-06 EigMax=2.50D+02 EigMin=1.00D-04
 Number of steps in this run=     65 maximum allowed number of steps=    100.
 GradGradGradGradGradGradGradGradGradGradGradGradGradGradGradGradGradGrad

 Leave Link  103 at Tue Feb 25 12:22:45 2020, MaxMem=  6710886400 cpu:               0.2 elap:               0.0
 (Enter /opt/ohpc/pub/libs/gaussian/g16-A.03/haswell/g16/l202.exe)
                          Input orientation:                          
 ---------------------------------------------------------------------
 Center     Atomic      Atomic             Coordinates (Angstroms)
 Number     Number       Type             X           Y           Z
 ---------------------------------------------------------------------
      1          6           0        0.000000    0.897082   -0.935245
      2          6           0        0.000000    1.134094    0.425375
      3          6           0        0.000000    0.000000    1.243051
      4          6           0        0.000000   -1.134094    0.425375
      5          6           0        0.000000   -0.897082   -0.935245
      6          1           0        0.000000    0.000000   -1.723356
      7          1           0        0.000000    1.622537   -1.745737
      8          1           0        0.000000    2.164126    0.774330
      9          1           0        0.000000    0.000000    2.326294
     10          1           0        0.000000   -2.164126    0.774330
     11          1           0        0.000000   -1.622537   -1.745737
 ---------------------------------------------------------------------
                    Distance matrix (angstroms):
                    1          2          3          4          5
     1  C    0.000000
     2  C    1.381109   0.000000
     3  C    2.355786   1.398128   0.000000
     4  C    2.444783   2.268188   1.398128   0.000000
     5  C    1.794164   2.444783   2.355786   1.381109   0.000000
     6  H    1.194100   2.429653   2.966407   2.429653   1.194100
     7  H    1.087742   2.225377   3.400806   3.508952   2.646767
     8  H    2.127921   1.087536   2.214304   3.316629   3.506229
     9  H    3.382661   2.213518   1.083243   2.213518   3.382661
    10  H    3.506229   3.316629   2.214304   1.087536   2.127921
    11  H    2.646767   3.508952   3.400806   2.225377   1.087742
                    6          7          8          9         10
     6  H    0.000000
     7  H    1.622691   0.000000
     8  H    3.304826   2.577607   0.000000
     9  H    4.049650   4.383385   2.663087   0.000000
    10  H    3.304826   4.548577   4.328252   2.663087   0.000000
    11  H    1.622691   3.245074   4.548577   4.383385   2.577607
                   11
    11  H    0.000000
 Stoichiometry    C5H6
 Framework group  C2V[C2(HCH),SGV(C4H4)]
 Deg. of freedom    10
 Full point group                 C2V     NOp   4
 Largest Abelian subgroup         C2V     NOp   4
 Largest concise Abelian subgroup C2      NOp   2
                         Standard orientation:                         
 ---------------------------------------------------------------------
 Center     Atomic      Atomic             Coordinates (Angstroms)
 Number     Number       Type             X           Y           Z
 ---------------------------------------------------------------------
      1          6           0        0.000000    0.897082   -0.935245
      2          6           0        0.000000    1.134094    0.425375
      3          6           0        0.000000   -0.000000    1.243051
      4          6           0       -0.000000   -1.134094    0.425375
      5          6           0       -0.000000   -0.897082   -0.935245
      6          1           0       -0.000000    0.000000   -1.723356
      7          1           0        0.000000    1.622537   -1.745737
      8          1           0        0.000000    2.164126    0.774330
      9          1           0        0.000000   -0.000000    2.326294
     10          1           0       -0.000000   -2.164126    0.774330
     11          1           0       -0.000000   -1.622537   -1.745737
 ---------------------------------------------------------------------
 Rotational constants (GHZ):           8.4725427           7.7835829           4.0567316
 Leave Link  202 at Tue Feb 25 12:22:45 2020, MaxMem=  6710886400 cpu:               0.2 elap:               0.0
 (Enter /opt/ohpc/pub/libs/gaussian/g16-A.03/haswell/g16/l301.exe)
 Standard basis: 6-31G (6D, 7F)
 Ernie: Thresh=  0.10000D-02 Tol=  0.10000D-05 Strict=F.
 There are    27 symmetry adapted cartesian basis functions of A1  symmetry.
 There are     4 symmetry adapted cartesian basis functions of A2  symmetry.
 There are     6 symmetry adapted cartesian basis functions of B1  symmetry.
 There are    20 symmetry adapted cartesian basis functions of B2  symmetry.
 There are    27 symmetry adapted basis functions of A1  symmetry.
 There are     4 symmetry adapted basis functions of A2  symmetry.
 There are     6 symmetry adapted basis functions of B1  symmetry.
 There are    20 symmetry adapted basis functions of B2  symmetry.
    57 basis functions,   134 primitive gaussians,    57 cartesian basis functions
    18 alpha electrons       18 beta electrons
       nuclear repulsion energy       155.1468587074 Hartrees.
 IExCor=33909 DFT=T Ex+Corr=LC-wHPBE ExCW=0 ScaHFX=  1.000000
 ScaDFX=  1.000000  1.000000  1.000000  1.000000 ScalE2=  1.000000  1.000000
 IRadAn=      5 IRanWt=     -1 IRanGd=            0 ICorTp=0 IEmpDi=  4
 HFx  wShort=  0.000000 wLong=  0.314200 cFull=  0.000000 cShort=  0.000000 cLong=  1.000000
 DFx  wShort=  0.000000 wLong=  0.314200 cFull=  0.000000 cShort=  1.000000 cLong=  0.000000
 NAtoms=   11 NActive=   11 NUniq=    7 SFac= 2.47D+00 NAtFMM=   60 NAOKFM=F Big=F
 Integral buffers will be    131072 words long.
 Raffenetti 2 integral format.
 Two-electron integral symmetry is turned on.
 Leave Link  301 at Tue Feb 25 12:22:45 2020, MaxMem=  6710886400 cpu:               0.9 elap:               0.1
 (Enter /opt/ohpc/pub/libs/gaussian/g16-A.03/haswell/g16/l302.exe)
 NPDir=0 NMtPBC=     1 NCelOv=     1 NCel=       1 NClECP=     1 NCelD=      1
         NCelK=      1 NCelE2=     1 NClLst=     1 CellRange=     0.0.
 One-electron integrals computed using PRISM.
 One-electron integral symmetry used in STVInt
 NBasis=    57 RedAO= T EigKep=  1.93D-03  NBF=    27     4     6    20
 NBsUse=    57 1.00D-06 EigRej= -1.00D+00 NBFU=    27     4     6    20
 Precomputing XC quadrature grid using
 IXCGrd= 4 IRadAn=           5 IRanWt=          -1 IRanGd=           0 AccXCQ= 0.00D+00.
 Generated NRdTot=       0 NPtTot=           0 NUsed=           0 NTot=          32
 NSgBfM=    57    57    57    57    57 MxSgAt=    11 MxSgA2=    11.
 Leave Link  302 at Tue Feb 25 12:22:46 2020, MaxMem=  6710886400 cpu:               3.1 elap:               0.2
 (Enter /opt/ohpc/pub/libs/gaussian/g16-A.03/haswell/g16/l303.exe)
 DipDrv:  MaxL=1.
 Leave Link  303 at Tue Feb 25 12:22:46 2020, MaxMem=  6710886400 cpu:               0.4 elap:               0.0
 (Enter /opt/ohpc/pub/libs/gaussian/g16-A.03/haswell/g16/l401.exe)
 ExpMin= 1.61D-01 ExpMax= 3.05D+03 ExpMxC= 4.57D+02 IAcc=3 IRadAn=         5 AccDes= 0.00D+00
 Harris functional with IExCor=33909 and IRadAn=       5 diagonalized for initial guess.
 HarFok:  IExCor=33909 AccDes= 0.00D+00 IRadAn=         5 IDoV= 1 UseB2=F ITyADJ=14
 ICtDFT=  3500011 ScaDFX=  1.000000  1.000000  1.000000  1.000000
 FoFCou: FMM=F IPFlag=           0 FMFlag=      100000 FMFlg1=           0
         NFxFlg=           0 DoJE=T BraDBF=F KetDBF=T FulRan=T
         wScrn=  0.000000 ICntrl=       500 IOpCl=  0 I1Cent=   200000004 NGrid=           0
         NMat0=    1 NMatS0=      1 NMatT0=    0 NMatD0=    1 NMtDS0=    0 NMtDT0=    0
 Petite list used in FoFCou.
 Harris En= -188.029953849067    
 JPrj=0 DoOrth=F DoCkMO=F.
 Initial guess orbital symmetries:
 Alpha Orbitals:
       Occupied  (A1) (B2) (A1) (B2) (A1) (A1) (B2) (A1) (A1) (B2)
                 (A1) (B2) (A1) (B2) (A1) (B1) (A2) (B1)
       Virtual   (A2) (B2) (B1) (A1) (A1) (B2) (A1) (B2) (A1) (B2)
                 (A1) (B2) (A1) (B2) (B1) (A1) (A2) (B1) (B2) (A1)
                 (A1) (A2) (B1) (B2) (B2) (A1) (B2) (A1) (A1) (B2)
                 (A1) (A1) (A1) (B2) (A1) (B2) (A1) (A1) (B2)
 Beta  Orbitals:
       Occupied  (A1) (B2) (A1) (B2) (A1) (A1) (B2) (A1) (A1) (B2)
                 (A1) (B2) (A1) (B2) (A1) (B1) (A2) (B1)
       Virtual   (A2) (B2) (B1) (A1) (A1) (B2) (A1) (B2) (A1) (B2)
                 (A1) (B2) (A1) (B2) (B1) (A1) (A2) (B1) (B2) (A1)
                 (A1) (A2) (B1) (B2) (B2) (A1) (B2) (A1) (A1) (B2)
                 (A1) (A1) (A1) (B2) (A1) (B2) (A1) (A1) (B2)
 The electronic state of the initial guess is 1-A1.
 Initial guess <Sx>= 0.0000 <Sy>= 0.0000 <Sz>= 0.0000 <S**2>=-0.0000 S=-0.0000
 Leave Link  401 at Tue Feb 25 12:22:46 2020, MaxMem=  6710886400 cpu:               4.4 elap:               0.3
 (Enter /opt/ohpc/pub/libs/gaussian/g16-A.03/haswell/g16/l502.exe)
 Keep R1 and R2 ints in memory in symmetry-blocked form, NReq=16815681.
 FoFCou: FMM=F IPFlag=           0 FMFlag=           0 FMFlg1=           0
         NFxFlg=           0 DoJE=F BraDBF=F KetDBF=F FulRan=T
         wScrn=  0.000000 ICntrl=       600 IOpCl=  0 I1Cent=           0 NGrid=           0
         NMat0=    1 NMatS0=   1653 NMatT0=    0 NMatD0=    1 NMtDS0=    0 NMtDT0=    0
 Petite list used in FoFCou.
 UHF open shell SCF:
 Using DIIS extrapolation, IDIIS=  1040.
 NGot=  6710886400 LenX=  6710059561 LenY=  6710055871
 Requested convergence on RMS density matrix=1.00D-08 within 128 cycles.
 Requested convergence on MAX density matrix=1.00D-06.
 Requested convergence on             energy=1.00D-06.
 No special actions if energy rises.
 Integral accuracy reduced to 1.0D-05 until final iterations.

 Cycle   1  Pass 0  IDiag  1:
 E= -193.651880403714    
 DIIS: error= 4.14D-02 at cycle   1 NSaved=   1.
 NSaved= 1 IEnMin= 1 EnMin= -193.651880403714     IErMin= 1 ErrMin= 4.14D-02
 ErrMax= 4.14D-02  0.00D+00 EMaxC= 1.00D-01 BMatC= 3.12D-01 BMatP= 3.12D-01
 IDIUse=3 WtCom= 5.86D-01 WtEn= 4.14D-01
 Coeff-Com:  0.100D+01
 Coeff-En:   0.100D+01
 Coeff:      0.100D+01
 Gap=     0.337 Goal=   None    Shift=    0.000
 Gap=     0.337 Goal=   None    Shift=    0.000
 GapD=    0.337 DampG=1.000 DampE=0.500 DampFc=0.5000 IDamp=-1.
 Damping current iteration by 5.00D-01
 RMSDP=1.14D-02 MaxDP=8.94D-02              OVMax= 1.54D-01

 Cycle   2  Pass 0  IDiag  1:
 E= -193.702448957648     Delta-E=       -0.050568553933 Rises=F Damp=T
 DIIS: error= 7.69D-03 at cycle   2 NSaved=   2.
 NSaved= 2 IEnMin= 2 EnMin= -193.702448957648     IErMin= 2 ErrMin= 7.69D-03
 ErrMax= 7.69D-03  0.00D+00 EMaxC= 1.00D-01 BMatC= 1.33D-02 BMatP= 3.12D-01
 IDIUse=3 WtCom= 9.23D-01 WtEn= 7.69D-02
 Coeff-Com: -0.111D+00 0.111D+01
 Coeff-En:   0.000D+00 0.100D+01
 Coeff:     -0.103D+00 0.110D+01
 Gap=     0.404 Goal=   None    Shift=    0.000
 Gap=     0.404 Goal=   None    Shift=    0.000
 RMSDP=2.29D-03 MaxDP=1.72D-02 DE=-5.06D-02 OVMax= 7.33D-02

 Cycle   3  Pass 0  IDiag  1:
 E= -193.746499569157     Delta-E=       -0.044050611510 Rises=F Damp=F
 DIIS: error= 5.77D-03 at cycle   3 NSaved=   3.
 NSaved= 3 IEnMin= 3 EnMin= -193.746499569157     IErMin= 3 ErrMin= 5.77D-03
 ErrMax= 5.77D-03  0.00D+00 EMaxC= 1.00D-01 BMatC= 3.90D-03 BMatP= 1.33D-02
 IDIUse=3 WtCom= 9.42D-01 WtEn= 5.77D-02
 Coeff-Com: -0.536D-01 0.413D+00 0.640D+00
 Coeff-En:   0.000D+00 0.000D+00 0.100D+01
 Coeff:     -0.505D-01 0.390D+00 0.661D+00
 Gap=     0.385 Goal=   None    Shift=    0.000
 Gap=     0.385 Goal=   None    Shift=    0.000
 RMSDP=6.73D-04 MaxDP=9.85D-03 DE=-4.41D-02 OVMax= 1.52D-02

 Cycle   4  Pass 0  IDiag  1:
 E= -193.747509496709     Delta-E=       -0.001009927551 Rises=F Damp=F
 DIIS: error= 1.34D-03 at cycle   4 NSaved=   4.
 NSaved= 4 IEnMin= 4 EnMin= -193.747509496709     IErMin= 4 ErrMin= 1.34D-03
 ErrMax= 1.34D-03  0.00D+00 EMaxC= 1.00D-01 BMatC= 3.15D-04 BMatP= 3.90D-03
 IDIUse=3 WtCom= 9.87D-01 WtEn= 1.34D-02
 Coeff-Com:  0.123D-01-0.566D-01 0.163D+00 0.881D+00
 Coeff-En:   0.000D+00 0.000D+00 0.000D+00 0.100D+01
 Coeff:      0.122D-01-0.558D-01 0.161D+00 0.883D+00
 Gap=     0.388 Goal=   None    Shift=    0.000
 Gap=     0.388 Goal=   None    Shift=    0.000
 RMSDP=2.91D-04 MaxDP=2.86D-03 DE=-1.01D-03 OVMax= 3.25D-03

 Cycle   5  Pass 0  IDiag  1:
 E= -193.747606884478     Delta-E=       -0.000097387769 Rises=F Damp=F
 DIIS: error= 1.94D-04 at cycle   5 NSaved=   5.
 NSaved= 5 IEnMin= 5 EnMin= -193.747606884478     IErMin= 5 ErrMin= 1.94D-04
 ErrMax= 1.94D-04  0.00D+00 EMaxC= 1.00D-01 BMatC= 3.89D-06 BMatP= 3.15D-04
 IDIUse=3 WtCom= 9.98D-01 WtEn= 1.94D-03
 Coeff-Com:  0.264D-02-0.155D-01-0.417D-01-0.734D-01 0.113D+01
 Coeff-En:   0.000D+00 0.000D+00 0.000D+00 0.000D+00 0.100D+01
 Coeff:      0.264D-02-0.154D-01-0.416D-01-0.733D-01 0.113D+01
 Gap=     0.388 Goal=   None    Shift=    0.000
 Gap=     0.388 Goal=   None    Shift=    0.000
 RMSDP=6.61D-05 MaxDP=6.16D-04 DE=-9.74D-05 OVMax= 1.10D-03

 Cycle   6  Pass 0  IDiag  1:
 E= -193.747610289342     Delta-E=       -0.000003404864 Rises=F Damp=F
 DIIS: error= 5.14D-05 at cycle   6 NSaved=   6.
 NSaved= 6 IEnMin= 6 EnMin= -193.747610289342     IErMin= 6 ErrMin= 5.14D-05
 ErrMax= 5.14D-05  0.00D+00 EMaxC= 1.00D-01 BMatC= 3.40D-07 BMatP= 3.89D-06
 IDIUse=1 WtCom= 1.00D+00 WtEn= 0.00D+00
 Coeff-Com: -0.168D-04 0.704D-03-0.425D-02-0.376D-01 0.412D-01 0.100D+01
 Coeff:     -0.168D-04 0.704D-03-0.425D-02-0.376D-01 0.412D-01 0.100D+01
 Gap=     0.388 Goal=   None    Shift=    0.000
 Gap=     0.388 Goal=   None    Shift=    0.000
 RMSDP=1.57D-05 MaxDP=1.14D-04 DE=-3.40D-06 OVMax= 2.58D-04

 Cycle   7  Pass 0  IDiag  1:
 E= -193.747610477826     Delta-E=       -0.000000188484 Rises=F Damp=F
 DIIS: error= 2.60D-05 at cycle   7 NSaved=   7.
 NSaved= 7 IEnMin= 7 EnMin= -193.747610477826     IErMin= 7 ErrMin= 2.60D-05
 ErrMax= 2.60D-05  0.00D+00 EMaxC= 1.00D-01 BMatC= 1.07D-07 BMatP= 3.40D-07
 IDIUse=1 WtCom= 1.00D+00 WtEn= 0.00D+00
 Coeff-Com: -0.235D-03 0.177D-02 0.343D-02-0.844D-02-0.115D+00 0.420D+00
 Coeff-Com:  0.699D+00
 Coeff:     -0.235D-03 0.177D-02 0.343D-02-0.844D-02-0.115D+00 0.420D+00
 Coeff:      0.699D+00
 Gap=     0.388 Goal=   None    Shift=    0.000
 Gap=     0.388 Goal=   None    Shift=    0.000
 RMSDP=4.49D-06 MaxDP=3.31D-05 DE=-1.88D-07 OVMax= 6.25D-05

 Initial convergence to 1.0D-05 achieved.  Increase integral accuracy.
 Cycle   8  Pass 1  IDiag  1:
 E= -193.747592355723     Delta-E=        0.000018122103 Rises=F Damp=F
 DIIS: error= 4.36D-06 at cycle   1 NSaved=   1.
 NSaved= 1 IEnMin= 1 EnMin= -193.747592355723     IErMin= 1 ErrMin= 4.36D-06
 ErrMax= 4.36D-06  0.00D+00 EMaxC= 1.00D-01 BMatC= 2.41D-09 BMatP= 2.41D-09
 IDIUse=1 WtCom= 1.00D+00 WtEn= 0.00D+00
 Coeff-Com:  0.100D+01
 Coeff:      0.100D+01
 Gap=     0.388 Goal=   None    Shift=    0.000
 Gap=     0.388 Goal=   None    Shift=    0.000
 RMSDP=4.49D-06 MaxDP=3.31D-05 DE= 1.81D-05 OVMax= 2.13D-05

 Cycle   9  Pass 1  IDiag  1:
 E= -193.747592357320     Delta-E=       -0.000000001597 Rises=F Damp=F
 DIIS: error= 3.36D-06 at cycle   2 NSaved=   2.
 NSaved= 2 IEnMin= 2 EnMin= -193.747592357320     IErMin= 2 ErrMin= 3.36D-06
 ErrMax= 3.36D-06  0.00D+00 EMaxC= 1.00D-01 BMatC= 7.67D-10 BMatP= 2.41D-09
 IDIUse=1 WtCom= 1.00D+00 WtEn= 0.00D+00
 Coeff-Com:  0.250D+00 0.750D+00
 Coeff:      0.250D+00 0.750D+00
 Gap=     0.388 Goal=   None    Shift=    0.000
 Gap=     0.388 Goal=   None    Shift=    0.000
 RMSDP=3.58D-07 MaxDP=4.32D-06 DE=-1.60D-09 OVMax= 1.16D-05

 Cycle  10  Pass 1  IDiag  1:
 E= -193.747592357630     Delta-E=       -0.000000000310 Rises=F Damp=F
 DIIS: error= 1.74D-06 at cycle   3 NSaved=   3.
 NSaved= 3 IEnMin= 3 EnMin= -193.747592357630     IErMin= 3 ErrMin= 1.74D-06
 ErrMax= 1.74D-06  0.00D+00 EMaxC= 1.00D-01 BMatC= 2.28D-10 BMatP= 7.67D-10
 IDIUse=1 WtCom= 1.00D+00 WtEn= 0.00D+00
 Coeff-Com: -0.218D+00 0.248D+00 0.970D+00
 Coeff:     -0.218D+00 0.248D+00 0.970D+00
 Gap=     0.388 Goal=   None    Shift=    0.000
 Gap=     0.388 Goal=   None    Shift=    0.000
 RMSDP=3.77D-07 MaxDP=2.46D-06 DE=-3.10D-10 OVMax= 6.14D-06

 Cycle  11  Pass 1  IDiag  1:
 E= -193.747592357763     Delta-E=       -0.000000000133 Rises=F Damp=F
 DIIS: error= 5.67D-07 at cycle   4 NSaved=   4.
 NSaved= 4 IEnMin= 4 EnMin= -193.747592357763     IErMin= 4 ErrMin= 5.67D-07
 ErrMax= 5.67D-07  0.00D+00 EMaxC= 1.00D-01 BMatC= 8.18D-12 BMatP= 2.28D-10
 IDIUse=1 WtCom= 1.00D+00 WtEn= 0.00D+00
 Coeff-Com: -0.340D-01-0.199D-01 0.137D+00 0.916D+00
 Coeff:     -0.340D-01-0.199D-01 0.137D+00 0.916D+00
 Gap=     0.388 Goal=   None    Shift=    0.000
 Gap=     0.388 Goal=   None    Shift=    0.000
 RMSDP=6.25D-08 MaxDP=6.52D-07 DE=-1.33D-10 OVMax= 2.50D-06

 Cycle  12  Pass 1  IDiag  1:
 E= -193.747592357769     Delta-E=       -0.000000000006 Rises=F Damp=F
 DIIS: error= 1.83D-07 at cycle   5 NSaved=   5.
 NSaved= 5 IEnMin= 5 EnMin= -193.747592357769     IErMin= 5 ErrMin= 1.83D-07
 ErrMax= 1.83D-07  0.00D+00 EMaxC= 1.00D-01 BMatC= 4.25D-12 BMatP= 8.18D-12
 IDIUse=1 WtCom= 1.00D+00 WtEn= 0.00D+00
 Coeff-Com:  0.132D-01-0.574D-01-0.898D-01 0.426D+00 0.708D+00
 Coeff:      0.132D-01-0.574D-01-0.898D-01 0.426D+00 0.708D+00
 Gap=     0.388 Goal=   None    Shift=    0.000
 Gap=     0.388 Goal=   None    Shift=    0.000
 RMSDP=3.09D-08 MaxDP=2.42D-07 DE=-6.31D-12 OVMax= 4.76D-07

 Cycle  13  Pass 1  IDiag  1:
 E= -193.747592357771     Delta-E=       -0.000000000002 Rises=F Damp=F
 DIIS: error= 2.56D-08 at cycle   6 NSaved=   6.
 NSaved= 6 IEnMin= 6 EnMin= -193.747592357771     IErMin= 6 ErrMin= 2.56D-08
 ErrMax= 2.56D-08  0.00D+00 EMaxC= 1.00D-01 BMatC= 4.06D-14 BMatP= 4.25D-12
 IDIUse=1 WtCom= 1.00D+00 WtEn= 0.00D+00
 Coeff-Com:  0.320D-02 0.312D-03-0.746D-02-0.510D-01-0.484D-01 0.110D+01
 Coeff:      0.320D-02 0.312D-03-0.746D-02-0.510D-01-0.484D-01 0.110D+01
 Gap=     0.388 Goal=   None    Shift=    0.000
 Gap=     0.388 Goal=   None    Shift=    0.000
 RMSDP=6.74D-09 MaxDP=7.66D-08 DE=-1.65D-12 OVMax= 1.68D-07

 SCF Done:  E(ULC-wHPBE) =  -193.747592358     A.U. after   13 cycles
            NFock= 13  Conv=0.67D-08     -V/T= 2.0060
 <Sx>= 0.0000 <Sy>= 0.0000 <Sz>= 0.0000 <S**2>= 0.0000 S= 0.0000
 <L.S>= 0.000000000000E+00
 KE= 1.925943234515D+02 PE=-7.590846289204D+02 EE= 2.175958544038D+02
 Annihilation of the first spin contaminant:
 S**2 before annihilation     0.0000,   after     0.0000
 Leave Link  502 at Tue Feb 25 12:22:47 2020, MaxMem=  6710886400 cpu:              15.2 elap:               1.0
 (Enter /opt/ohpc/pub/libs/gaussian/g16-A.03/haswell/g16/l601.exe)
 Copying SCF densities to generalized density rwf, IOpCl= 1 IROHF=0.

 **********************************************************************

            Population analysis using the SCF density.

 **********************************************************************

 Orbital symmetries:
 Alpha Orbitals:
       Occupied  (B2) (A1) (B2) (A1) (A1) (A1) (A1) (B2) (A1) (B2)
                 (A1) (B2) (A1) (A1) (B2) (B1) (A2) (B1)
       Virtual   (B2) (A2) (A1) (B1) (A1) (B2) (A1) (B2) (A1) (A1)
                 (B2) (A1) (B2) (B2) (B1) (A2) (B1) (A1) (A1) (B2)
                 (A1) (A2) (B1) (B2) (B2) (A1) (B2) (A1) (A1) (A1)
                 (B2) (A1) (A1) (B2) (A1) (B2) (A1) (A1) (B2)
 Beta  Orbitals:
       Occupied  (B2) (A1) (B2) (A1) (A1) (A1) (A1) (B2) (A1) (B2)
                 (A1) (B2) (A1) (A1) (B2) (B1) (A2) (B1)
       Virtual   (B2) (A2) (A1) (B1) (A1) (B2) (A1) (B2) (A1) (A1)
                 (B2) (A1) (B2) (B2) (B1) (A2) (B1) (A1) (A1) (B2)
                 (A1) (A2) (B1) (B2) (B2) (A1) (B2) (A1) (A1) (A1)
                 (B2) (A1) (A1) (B2) (A1) (B2) (A1) (A1) (B2)
 The electronic state is 1-A1.
 Alpha  occ. eigenvalues --  -10.10761 -10.10757 -10.06956 -10.06956 -10.03515
 Alpha  occ. eigenvalues --   -0.97422  -0.84741  -0.82192  -0.67742  -0.66539
 Alpha  occ. eigenvalues --   -0.62367  -0.51929  -0.50783  -0.47804  -0.46606
 Alpha  occ. eigenvalues --   -0.46042  -0.32439  -0.27929
 Alpha virt. eigenvalues --    0.10916   0.11319   0.16636   0.18818   0.19771
 Alpha virt. eigenvalues --    0.24344   0.26230   0.27811   0.28727   0.41673
 Alpha virt. eigenvalues --    0.42560   0.52268   0.53608   0.62112   0.63971
 Alpha virt. eigenvalues --    0.70629   0.71490   0.71624   0.73445   0.74978
 Alpha virt. eigenvalues --    0.75958   0.77064   0.79605   0.86770   0.92579
 Alpha virt. eigenvalues --    0.95343   0.97063   0.97321   0.99445   1.06044
 Alpha virt. eigenvalues --    1.06121   1.10072   1.13687   1.20034   1.28143
 Alpha virt. eigenvalues --    1.29887   1.36012   1.57689   1.58667
  Beta  occ. eigenvalues --  -10.10761 -10.10757 -10.06956 -10.06956 -10.03515
  Beta  occ. eigenvalues --   -0.97422  -0.84741  -0.82192  -0.67742  -0.66539
  Beta  occ. eigenvalues --   -0.62367  -0.51929  -0.50783  -0.47804  -0.46606
  Beta  occ. eigenvalues --   -0.46042  -0.32439  -0.27929
  Beta virt. eigenvalues --    0.10916   0.11319   0.16636   0.18818   0.19771
  Beta virt. eigenvalues --    0.24344   0.26230   0.27811   0.28727   0.41673
  Beta virt. eigenvalues --    0.42560   0.52268   0.53608   0.62112   0.63971
  Beta virt. eigenvalues --    0.70629   0.71490   0.71624   0.73445   0.74978
  Beta virt. eigenvalues --    0.75958   0.77064   0.79605   0.86770   0.92579
  Beta virt. eigenvalues --    0.95343   0.97063   0.97321   0.99445   1.06044
  Beta virt. eigenvalues --    1.06121   1.10072   1.13687   1.20034   1.28143
  Beta virt. eigenvalues --    1.29887   1.36012   1.57689   1.58667
          Condensed to atoms (all electrons):
               1          2          3          4          5          6
     1  C    5.422979   0.475268  -0.053458  -0.128641   0.252269   0.170269
     2  C    0.475268   4.899508   0.557752  -0.012405  -0.128641  -0.021450
     3  C   -0.053458   0.557752   4.812532   0.557752  -0.053458   0.004786
     4  C   -0.128641  -0.012405   0.557752   4.899508   0.475268  -0.021450
     5  C    0.252269  -0.128641  -0.053458   0.475268   5.422979   0.170269
     6  H    0.170269  -0.021450   0.004786  -0.021450   0.170269   0.403003
     7  H    0.346324  -0.001100   0.000083   0.004031  -0.023926  -0.011229
     8  H   -0.037937   0.364082  -0.016687   0.004627   0.001820   0.000965
     9  H    0.006763  -0.040490   0.375355  -0.040490   0.006763  -0.000101
    10  H    0.001820   0.004627  -0.016687   0.364082  -0.037937   0.000965
    11  H   -0.023926   0.004031   0.000083  -0.001100   0.346324  -0.011229
               7          8          9         10         11
     1  C    0.346324  -0.037937   0.006763   0.001820  -0.023926
     2  C   -0.001100   0.364082  -0.040490   0.004627   0.004031
     3  C    0.000083  -0.016687   0.375355  -0.016687   0.000083
     4  C    0.004031   0.004627  -0.040490   0.364082  -0.001100
     5  C   -0.023926   0.001820   0.006763  -0.037937   0.346324
     6  H   -0.011229   0.000965  -0.000101   0.000965  -0.011229
     7  H    0.466350  -0.000351  -0.000104  -0.000036   0.000762
     8  H   -0.000351   0.515736  -0.002443  -0.000167  -0.000036
     9  H   -0.000104  -0.002443   0.557793  -0.002443  -0.000104
    10  H   -0.000036  -0.000167  -0.002443   0.515736  -0.000351
    11  H    0.000762  -0.000036  -0.000104  -0.000351   0.466350
          Atomic-Atomic Spin Densities.
               1          2          3          4          5          6
     1  C    0.000000   0.000000   0.000000   0.000000   0.000000   0.000000
     2  C    0.000000   0.000000   0.000000   0.000000   0.000000   0.000000
     3  C    0.000000   0.000000   0.000000   0.000000   0.000000   0.000000
     4  C    0.000000   0.000000   0.000000   0.000000   0.000000   0.000000
     5  C    0.000000   0.000000   0.000000   0.000000   0.000000   0.000000
     6  H    0.000000   0.000000   0.000000   0.000000   0.000000   0.000000
     7  H    0.000000   0.000000   0.000000   0.000000   0.000000   0.000000
     8  H    0.000000   0.000000   0.000000   0.000000   0.000000   0.000000
     9  H    0.000000   0.000000   0.000000   0.000000   0.000000   0.000000
    10  H    0.000000   0.000000   0.000000   0.000000   0.000000   0.000000
    11  H    0.000000   0.000000   0.000000   0.000000   0.000000   0.000000
               7          8          9         10         11
     1  C    0.000000   0.000000   0.000000   0.000000   0.000000
     2  C    0.000000   0.000000   0.000000   0.000000   0.000000
     3  C    0.000000   0.000000   0.000000   0.000000   0.000000
     4  C    0.000000   0.000000   0.000000   0.000000   0.000000
     5  C    0.000000   0.000000   0.000000   0.000000   0.000000
     6  H    0.000000   0.000000   0.000000   0.000000   0.000000
     7  H    0.000000   0.000000   0.000000   0.000000   0.000000
     8  H    0.000000   0.000000   0.000000   0.000000   0.000000
     9  H    0.000000   0.000000   0.000000   0.000000   0.000000
    10  H    0.000000   0.000000   0.000000   0.000000   0.000000
    11  H    0.000000   0.000000   0.000000   0.000000   0.000000
 Mulliken charges and spin densities:
               1          2
     1  C   -0.431731   0.000000
     2  C   -0.101182   0.000000
     3  C   -0.168051   0.000000
     4  C   -0.101182   0.000000
     5  C   -0.431731   0.000000
     6  H    0.315202   0.000000
     7  H    0.219195   0.000000
     8  H    0.170391   0.000000
     9  H    0.139500   0.000000
    10  H    0.170391   0.000000
    11  H    0.219195   0.000000
 Sum of Mulliken charges =   0.00000   0.00000
 Mulliken charges and spin densities with hydrogens summed into heavy atoms:
               1          2
     1  C    0.102667   0.000000
     2  C    0.069210   0.000000
     3  C   -0.028551   0.000000
     4  C    0.069210   0.000000
     5  C   -0.212535   0.000000
 Electronic spatial extent (au):  <R**2>=            340.0039
 Charge=              0.0000 electrons
 Dipole moment (field-independent basis, Debye):
    X=             -0.0000    Y=              0.0000    Z=             -1.9437  Tot=              1.9437
 Quadrupole moment (field-independent basis, Debye-Ang):
   XX=            -35.6560   YY=            -26.0449   ZZ=            -24.1468
   XY=              0.0000   XZ=              0.0000   YZ=             -0.0000
 Traceless Quadrupole moment (field-independent basis, Debye-Ang):
   XX=             -7.0401   YY=              2.5710   ZZ=              4.4691
   XY=              0.0000   XZ=              0.0000   YZ=             -0.0000
 Octapole moment (field-independent basis, Debye-Ang**2):
  XXX=              0.0000  YYY=             -0.0000  ZZZ=             -8.7628  XYY=              0.0000
  XXY=             -0.0000  XXZ=              0.8875  XZZ=              0.0000  YZZ=             -0.0000
  YYZ=             -1.0457  XYZ=             -0.0000
 Hexadecapole moment (field-independent basis, Debye-Ang**3):
 XXXX=            -38.4572 YYYY=           -190.7556 ZZZZ=           -176.2662 XXXY=             -0.0000
 XXXZ=             -0.0000 YYYX=             -0.0000 YYYZ=             -0.0000 ZZZX=             -0.0000
 ZZZY=              0.0000 XXYY=            -48.3622 XXZZ=            -46.9034 YYZZ=            -59.9694
 XXYZ=             -0.0000 YYXZ=             -0.0000 ZZXY=             -0.0000
 N-N= 1.551468587074D+02 E-N=-7.590846281227D+02  KE= 1.925943234515D+02
 Symmetry A1   KE= 1.108235695618D+02
 Symmetry A2   KE= 2.399102745422D+00
 Symmetry B1   KE= 4.202905531677D+00
 Symmetry B2   KE= 7.516874561259D+01
 Symmetry A1   SP= 0.000000000000D+00
 Symmetry A2   SP= 0.000000000000D+00
 Symmetry B1   SP= 0.000000000000D+00
 Symmetry B2   SP= 0.000000000000D+00
                          Isotropic Fermi Contact Couplings
        Atom                 a.u.       MegaHertz       Gauss      10(-4) cm-1
     1  C(13)              0.00000       0.00000       0.00000       0.00000
     2  C(13)              0.00000       0.00000       0.00000       0.00000
     3  C(13)              0.00000       0.00000       0.00000       0.00000
     4  C(13)              0.00000       0.00000       0.00000       0.00000
     5  C(13)              0.00000       0.00000       0.00000       0.00000
     6  H(1)               0.00000       0.00000       0.00000       0.00000
     7  H(1)               0.00000       0.00000       0.00000       0.00000
     8  H(1)               0.00000       0.00000       0.00000       0.00000
     9  H(1)               0.00000       0.00000       0.00000       0.00000
    10  H(1)               0.00000       0.00000       0.00000       0.00000
    11  H(1)               0.00000       0.00000       0.00000       0.00000
 --------------------------------------------------------
       Center         ----  Spin Dipole Couplings  ----
                      3XX-RR        3YY-RR        3ZZ-RR
 --------------------------------------------------------
     1   Atom        0.000000      0.000000      0.000000
     2   Atom        0.000000      0.000000      0.000000
     3   Atom        0.000000      0.000000      0.000000
     4   Atom        0.000000      0.000000      0.000000
     5   Atom        0.000000      0.000000      0.000000
     6   Atom        0.000000      0.000000      0.000000
     7   Atom        0.000000      0.000000      0.000000
     8   Atom        0.000000      0.000000      0.000000
     9   Atom        0.000000      0.000000      0.000000
    10   Atom        0.000000      0.000000      0.000000
    11   Atom        0.000000      0.000000      0.000000
 --------------------------------------------------------
                        XY            XZ            YZ
 --------------------------------------------------------
     1   Atom        0.000000      0.000000      0.000000
     2   Atom        0.000000      0.000000      0.000000
     3   Atom        0.000000      0.000000      0.000000
     4   Atom        0.000000      0.000000      0.000000
     5   Atom        0.000000      0.000000      0.000000
     6   Atom        0.000000      0.000000      0.000000
     7   Atom        0.000000      0.000000      0.000000
     8   Atom        0.000000      0.000000      0.000000
     9   Atom        0.000000      0.000000      0.000000
    10   Atom        0.000000      0.000000      0.000000
    11   Atom        0.000000      0.000000      0.000000
 --------------------------------------------------------


 ---------------------------------------------------------------------------------
              Anisotropic Spin Dipole Couplings in Principal Axis System
 ---------------------------------------------------------------------------------

       Atom             a.u.   MegaHertz   Gauss  10(-4) cm-1        Axes

              Baa     0.0000     0.000     0.000     0.000  1.0000  0.0000  0.0000
     1 C(13)  Bbb     0.0000     0.000     0.000     0.000 -0.0000  1.0000  0.0000
              Bcc     0.0000     0.000     0.000     0.000  0.0000  0.0000  1.0000
 
              Baa     0.0000     0.000     0.000     0.000  1.0000  0.0000  0.0000
     2 C(13)  Bbb     0.0000     0.000     0.000     0.000 -0.0000  1.0000  0.0000
              Bcc     0.0000     0.000     0.000     0.000  0.0000  0.0000  1.0000
 
              Baa     0.0000     0.000     0.000     0.000  1.0000  0.0000  0.0000
     3 C(13)  Bbb     0.0000     0.000     0.000     0.000 -0.0000  1.0000  0.0000
              Bcc     0.0000     0.000     0.000     0.000  0.0000  0.0000  1.0000
 
              Baa     0.0000     0.000     0.000     0.000  1.0000  0.0000  0.0000
     4 C(13)  Bbb     0.0000     0.000     0.000     0.000 -0.0000  1.0000  0.0000
              Bcc     0.0000     0.000     0.000     0.000  0.0000  0.0000  1.0000
 
              Baa     0.0000     0.000     0.000     0.000  1.0000  0.0000  0.0000
     5 C(13)  Bbb     0.0000     0.000     0.000     0.000 -0.0000  1.0000  0.0000
              Bcc     0.0000     0.000     0.000     0.000  0.0000  0.0000  1.0000
 
              Baa     0.0000     0.000     0.000     0.000  1.0000  0.0000  0.0000
     6 H(1)   Bbb     0.0000     0.000     0.000     0.000 -0.0000  1.0000  0.0000
              Bcc     0.0000     0.000     0.000     0.000  0.0000  0.0000  1.0000
 
              Baa     0.0000     0.000     0.000     0.000  1.0000  0.0000  0.0000
     7 H(1)   Bbb     0.0000     0.000     0.000     0.000 -0.0000  1.0000  0.0000
              Bcc     0.0000     0.000     0.000     0.000  0.0000  0.0000  1.0000
 
              Baa     0.0000     0.000     0.000     0.000  1.0000  0.0000  0.0000
     8 H(1)   Bbb     0.0000     0.000     0.000     0.000 -0.0000  1.0000  0.0000
              Bcc     0.0000     0.000     0.000     0.000  0.0000  0.0000  1.0000
 
              Baa     0.0000     0.000     0.000     0.000  1.0000  0.0000  0.0000
     9 H(1)   Bbb     0.0000     0.000     0.000     0.000 -0.0000  1.0000  0.0000
              Bcc     0.0000     0.000     0.000     0.000  0.0000  0.0000  1.0000
 
              Baa     0.0000     0.000     0.000     0.000  1.0000  0.0000  0.0000
    10 H(1)   Bbb     0.0000     0.000     0.000     0.000 -0.0000  1.0000  0.0000
              Bcc     0.0000     0.000     0.000     0.000  0.0000  0.0000  1.0000
 
              Baa     0.0000     0.000     0.000     0.000  1.0000  0.0000  0.0000
    11 H(1)   Bbb     0.0000     0.000     0.000     0.000 -0.0000  1.0000  0.0000
              Bcc     0.0000     0.000     0.000     0.000  0.0000  0.0000  1.0000
 

 ---------------------------------------------------------------------------------

 No NMR shielding tensors so no spin-rotation constants.
 Leave Link  601 at Tue Feb 25 12:22:47 2020, MaxMem=  6710886400 cpu:               3.0 elap:               0.2
 (Enter /opt/ohpc/pub/libs/gaussian/g16-A.03/haswell/g16/l701.exe)
 ... and contract with generalized density number  0.
 Compute integral first derivatives.
 Leave Link  701 at Tue Feb 25 12:22:47 2020, MaxMem=  6710886400 cpu:               2.5 elap:               0.2
 (Enter /opt/ohpc/pub/libs/gaussian/g16-A.03/haswell/g16/l702.exe)
 L702 exits ... SP integral derivatives will be done elsewhere.
 Leave Link  702 at Tue Feb 25 12:22:47 2020, MaxMem=  6710886400 cpu:               0.3 elap:               0.0
 (Enter /opt/ohpc/pub/libs/gaussian/g16-A.03/haswell/g16/l703.exe)
 Integral derivatives from FoFJK, PRISM(SPDF).
 Compute integral first derivatives, UseDBF=F ICtDFT=           0.
 Calling FoFJK, ICntrl=      2127 FMM=F ISym2X=1 I1Cent= 0 IOpClX= 1 NMat=1 NMatS=1 NMatT=0.
 FoFJK:  IHMeth= 1 ICntrl=    2127 DoSepK=T KAlg= 0 I1Cent=           0 FoldK=F
 IRaf=         1 NMat=       1 IRICut=       1 DoRegI=T DoRafI=F ISym2E= 1 IDoP0=0 IntGTp=1.
 FoFCou: FMM=F IPFlag=           0 FMFlag=      100000 FMFlg1=         800
         NFxFlg=           0 DoJE=F BraDBF=F KetDBF=F FulRan=T
         wScrn=  0.000000 ICntrl=      2527 IOpCl=  0 I1Cent=           0 NGrid=           0
         NMat0=    1 NMatS0=      1 NMatT0=    0 NMatD0=    1 NMtDS0=    0 NMtDT0=    0
 Petite list used in FoFCou.
 Leave Link  703 at Tue Feb 25 12:22:48 2020, MaxMem=  6710886400 cpu:               7.5 elap:               0.5
 (Enter /opt/ohpc/pub/libs/gaussian/g16-A.03/haswell/g16/l716.exe)
 Dipole        =-4.11910756D-17 0.00000000D+00-7.64702024D-01
 ***** Axes restored to original set *****
 -------------------------------------------------------------------
 Center     Atomic                   Forces (Hartrees/Bohr)
 Number     Number              X              Y              Z
 -------------------------------------------------------------------
      1        6          -0.000000000   -0.000600518    0.001128496
      2        6           0.000000000   -0.001370880   -0.001103306
      3        6          -0.000000000   -0.000000000   -0.001364543
      4        6           0.000000000    0.001370880   -0.001103306
      5        6          -0.000000000    0.000600518    0.001128496
      6        1          -0.000000000   -0.000000000    0.001158983
      7        1           0.000000000   -0.000663118    0.000897846
      8        1           0.000000000   -0.001049717   -0.000290798
      9        1           0.000000000   -0.000000000   -0.001058918
     10        1           0.000000000    0.001049717   -0.000290798
     11        1           0.000000000    0.000663118    0.000897846
 -------------------------------------------------------------------
 Cartesian Forces:  Max     0.001370880 RMS     0.000751818
 Leave Link  716 at Tue Feb 25 12:22:48 2020, MaxMem=  6710886400 cpu:               0.4 elap:               0.0
 (Enter /opt/ohpc/pub/libs/gaussian/g16-A.03/haswell/g16/l103.exe)

 GradGradGradGradGradGradGradGradGradGradGradGradGradGradGradGradGradGrad
 Berny optimization.
 FormGI is forming the generalized inverse of G from B-inverse, IUseBI=4.
 Internal  Forces:  Max     0.002679000 RMS     0.000773585
 Search for a local minimum.
 Step number   1 out of a maximum of   65
 All quantities printed in internal units (Hartrees-Bohrs-Radians)
 RMS Force = .77358D-03 SwitMx=.10000D-02 MixMth= 2
 Mixed Optimization -- En-DIIS/RFO-DIIS
 Second derivative matrix not updated -- first step.
 ITU=  0
     Eigenvalues ---    0.00967   0.01442   0.02013   0.02114   0.02201
     Eigenvalues ---    0.02243   0.02249   0.02339   0.15326   0.16000
     Eigenvalues ---    0.16000   0.16000   0.16000   0.16000   0.19793
     Eigenvalues ---    0.21619   0.23351   0.24229   0.35075   0.35075
     Eigenvalues ---    0.35099   0.35099   0.35605   0.41601   0.42556
     Eigenvalues ---    0.46959   0.48823
 RFO step:  Lambda=-8.32690157D-05 EMin= 9.66565198D-03
 Linear search not attempted -- first point.
 Iteration  1 RMS(Cart)=  0.00285839 RMS(Int)=  0.00000048
 Iteration  2 RMS(Cart)=  0.00000052 RMS(Int)=  0.00000014
 ITry= 1 IFail=0 DXMaxC= 7.78D-03 DCOld= 1.00D+10 DXMaxT= 3.00D-01 DXLimC= 3.00D+00 Rises=F
 ClnCor:  largest displacement from symmetrization is 1.04D-11 for atom     9.
 Variable       Old X    -DE/DX   Delta X   Delta X   Delta X     New X
                                 (Linear)    (Quad)   (Total)
    R1        2.60992  -0.00268   0.00000  -0.00540  -0.00540   2.60452
    R2        3.39048  -0.00139   0.00000  -0.00707  -0.00707   3.38341
    R3        2.25652  -0.00077   0.00000  -0.00361  -0.00361   2.25291
    R4        2.05553  -0.00111   0.00000  -0.00317  -0.00317   2.05237
    R5        2.64208  -0.00214   0.00000  -0.00505  -0.00505   2.63703
    R6        2.05515  -0.00109   0.00000  -0.00310  -0.00310   2.05205
    R7        2.64208  -0.00214   0.00000  -0.00505  -0.00505   2.63703
    R8        2.04703  -0.00106   0.00000  -0.00297  -0.00297   2.04406
    R9        2.60992  -0.00268   0.00000  -0.00540  -0.00540   2.60452
   R10        2.05515  -0.00109   0.00000  -0.00310  -0.00310   2.05205
   R11        2.25652  -0.00077   0.00000  -0.00361  -0.00361   2.25291
   R12        2.05553  -0.00111   0.00000  -0.00317  -0.00317   2.05237
    A1        1.74326  -0.00020   0.00000  -0.00009  -0.00009   1.74317
    A2        2.46408  -0.00012   0.00000   0.00046   0.00046   2.46455
    A3        2.23904   0.00003   0.00000  -0.00057  -0.00057   2.23847
    A4        2.30089   0.00016   0.00000   0.00066   0.00066   2.30155
    A5        1.58006   0.00009   0.00000   0.00011   0.00011   1.58017
    A6        2.02301   0.00015   0.00000   0.00047   0.00047   2.02348
    A7        2.06991  -0.00001   0.00000   0.00016   0.00016   2.07006
    A8        2.19027  -0.00014   0.00000  -0.00063  -0.00063   2.18964
    A9        1.89224   0.00010   0.00000  -0.00077  -0.00077   1.89147
   A10        2.19547  -0.00005   0.00000   0.00038   0.00038   2.19586
   A11        2.19547  -0.00005   0.00000   0.00038   0.00038   2.19586
   A12        2.02301   0.00015   0.00000   0.00047   0.00047   2.02348
   A13        2.19027  -0.00014   0.00000  -0.00063  -0.00063   2.18964
   A14        2.06991  -0.00001   0.00000   0.00016   0.00016   2.07006
   A15        1.74326  -0.00020   0.00000  -0.00009  -0.00009   1.74317
   A16        2.30089   0.00016   0.00000   0.00066   0.00066   2.30155
   A17        2.46408  -0.00012   0.00000   0.00046   0.00046   2.46455
   A18        2.23904   0.00003   0.00000  -0.00057  -0.00057   2.23847
   A19        1.58006   0.00009   0.00000   0.00011   0.00011   1.58017
    D1        0.00000  -0.00000   0.00000  -0.00000   0.00000   0.00000
    D2        3.14159  -0.00000   0.00000  -0.00000   0.00000   3.14159
    D3       -0.00000   0.00000   0.00000   0.00000   0.00000   0.00000
    D4        3.14159   0.00000   0.00000   0.00000   0.00000   3.14159
    D5        3.14159  -0.00000   0.00000   0.00000   0.00000   3.14159
    D6       -0.00000  -0.00000   0.00000   0.00000   0.00000   0.00000
    D7        0.00000   0.00000   0.00000   0.00000   0.00000   0.00000
    D8        3.14159   0.00000   0.00000   0.00000   0.00000   3.14159
    D9        3.14159  -0.00000   0.00000  -0.00000   0.00000   3.14159
   D10       -0.00000   0.00000   0.00000   0.00000   0.00000   0.00000
   D11       -0.00000   0.00000   0.00000   0.00000   0.00000   0.00000
   D12        3.14159  -0.00000   0.00000  -0.00000   0.00000   3.14159
   D13        3.14159   0.00000   0.00000   0.00000   0.00000   3.14159
   D14        0.00000  -0.00000   0.00000  -0.00000  -0.00000   0.00000
   D15        0.00000  -0.00000   0.00000  -0.00000   0.00000   0.00000
   D16        3.14159  -0.00000   0.00000  -0.00000   0.00000   3.14159
   D17        3.14159   0.00000   0.00000   0.00000   0.00000   3.14159
   D18        0.00000   0.00000   0.00000   0.00000   0.00000   0.00000
   D19       -0.00000   0.00000   0.00000   0.00000   0.00000   0.00000
   D20        0.00000  -0.00000   0.00000  -0.00000   0.00000   0.00000
   D21        3.14159  -0.00000   0.00000  -0.00000   0.00000   3.14159
   D22        3.14159   0.00000   0.00000   0.00000   0.00000   3.14159
   D23        3.14159  -0.00000   0.00000  -0.00000   0.00000   3.14159
   D24       -0.00000   0.00000   0.00000  -0.00000   0.00000   0.00000
         Item               Value     Threshold  Converged?
 Maximum Force            0.002679     0.000450     NO 
 RMS     Force            0.000774     0.000300     NO 
 Maximum Displacement     0.007784     0.001800     NO 
 RMS     Displacement     0.002858     0.001200     NO 
 Predicted change in Energy=-4.164381D-05
 Lowest energy point so far.  Saving SCF results.
 GradGradGradGradGradGradGradGradGradGradGradGradGradGradGradGradGradGrad

 Leave Link  103 at Tue Feb 25 12:22:48 2020, MaxMem=  6710886400 cpu:               0.3 elap:               0.0
 (Enter /opt/ohpc/pub/libs/gaussian/g16-A.03/haswell/g16/l202.exe)
                          Input orientation:                          
 ---------------------------------------------------------------------
 Center     Atomic      Atomic             Coordinates (Angstroms)
 Number     Number       Type             X           Y           Z
 ---------------------------------------------------------------------
      1          6           0        0.000000    0.895213   -0.933707
      2          6           0        0.000000    1.131613    0.424118
      3          6           0        0.000000    0.000000    1.240666
      4          6           0       -0.000000   -1.131613    0.424118
      5          6           0       -0.000000   -0.895213   -0.933707
      6          1           0       -0.000000   -0.000000   -1.721051
      7          1           0        0.000000    1.620085   -1.742470
      8          1           0        0.000000    2.160007    0.772801
      9          1           0        0.000000    0.000000    2.322335
     10          1           0       -0.000000   -2.160007    0.772801
     11          1           0       -0.000000   -1.620085   -1.742470
 ---------------------------------------------------------------------
                    Distance matrix (angstroms):
                    1          2          3          4          5
     1  C    0.000000
     2  C    1.378251   0.000000
     3  C    2.351447   1.395456   0.000000
     4  C    2.439613   2.263226   1.395456   0.000000
     5  C    1.790425   2.439613   2.351447   1.378251   0.000000
     6  H    1.192190   2.425345   2.961717   2.425345   1.192190
     7  H    1.086066   2.220971   3.394669   3.502278   2.642124
     8  H    2.124117   1.085897   2.210096   3.310036   3.499505
     9  H    3.376865   2.209927   1.081670   2.209927   3.376865
    10  H    3.499505   3.310036   2.210096   1.085897   2.124117
    11  H    2.642124   3.502278   3.394669   2.220971   1.086066
                    6          7          8          9         10
     6  H    0.000000
     7  H    1.620227   0.000000
     8  H    3.299231   2.572568   0.000000
     9  H    4.043386   4.375765   2.658324   0.000000
    10  H    3.299231   4.540450   4.320013   2.658324   0.000000
    11  H    1.620227   3.240170   4.540450   4.375765   2.572568
                   11
    11  H    0.000000
 Stoichiometry    C5H6
 Framework group  C2V[C2(HCH),SGV(C4H4)]
 Deg. of freedom    10
 Full point group                 C2V     NOp   4
 RotChk:  IX=0 Diff= 8.77D-16
 Largest Abelian subgroup         C2V     NOp   4
 Largest concise Abelian subgroup C2      NOp   2
                         Standard orientation:                         
 ---------------------------------------------------------------------
 Center     Atomic      Atomic             Coordinates (Angstroms)
 Number     Number       Type             X           Y           Z
 ---------------------------------------------------------------------
      1          6           0        0.000000    0.895213   -0.933453
      2          6           0        0.000000    1.131613    0.424372
      3          6           0        0.000000    0.000000    1.240919
      4          6           0       -0.000000   -1.131613    0.424372
      5          6           0       -0.000000   -0.895213   -0.933453
      6          1           0        0.000000    0.000000   -1.720797
      7          1           0        0.000000    1.620085   -1.742217
      8          1           0        0.000000    2.160007    0.773055
      9          1           0        0.000000    0.000000    2.322589
     10          1           0       -0.000000   -2.160007    0.773055
     11          1           0       -0.000000   -1.620085   -1.742217
 ---------------------------------------------------------------------
 Rotational constants (GHZ):           8.5037913           7.8157520           4.0726338
 Leave Link  202 at Tue Feb 25 12:22:48 2020, MaxMem=  6710886400 cpu:               0.2 elap:               0.0
 (Enter /opt/ohpc/pub/libs/gaussian/g16-A.03/haswell/g16/l301.exe)
 Standard basis: 6-31G (6D, 7F)
 Ernie: Thresh=  0.10000D-02 Tol=  0.10000D-05 Strict=F.
 There are    27 symmetry adapted cartesian basis functions of A1  symmetry.
 There are     4 symmetry adapted cartesian basis functions of A2  symmetry.
 There are     6 symmetry adapted cartesian basis functions of B1  symmetry.
 There are    20 symmetry adapted cartesian basis functions of B2  symmetry.
 There are    27 symmetry adapted basis functions of A1  symmetry.
 There are     4 symmetry adapted basis functions of A2  symmetry.
 There are     6 symmetry adapted basis functions of B1  symmetry.
 There are    20 symmetry adapted basis functions of B2  symmetry.
    57 basis functions,   134 primitive gaussians,    57 cartesian basis functions
    18 alpha electrons       18 beta electrons
       nuclear repulsion energy       155.4439140654 Hartrees.
 IExCor=33909 DFT=T Ex+Corr=LC-wHPBE ExCW=0 ScaHFX=  1.000000
 ScaDFX=  1.000000  1.000000  1.000000  1.000000 ScalE2=  1.000000  1.000000
 IRadAn=      5 IRanWt=     -1 IRanGd=            0 ICorTp=0 IEmpDi=  4
 HFx  wShort=  0.000000 wLong=  0.314200 cFull=  0.000000 cShort=  0.000000 cLong=  1.000000
 DFx  wShort=  0.000000 wLong=  0.314200 cFull=  0.000000 cShort=  1.000000 cLong=  0.000000
 NAtoms=   11 NActive=   11 NUniq=    7 SFac= 2.47D+00 NAtFMM=   60 NAOKFM=F Big=F
 Integral buffers will be    131072 words long.
 Raffenetti 2 integral format.
 Two-electron integral symmetry is turned on.
 Leave Link  301 at Tue Feb 25 12:22:48 2020, MaxMem=  6710886400 cpu:               1.0 elap:               0.1
 (Enter /opt/ohpc/pub/libs/gaussian/g16-A.03/haswell/g16/l302.exe)
 NPDir=0 NMtPBC=     1 NCelOv=     1 NCel=       1 NClECP=     1 NCelD=      1
         NCelK=      1 NCelE2=     1 NClLst=     1 CellRange=     0.0.
 One-electron integrals computed using PRISM.
 One-electron integral symmetry used in STVInt
 NBasis=    57 RedAO= T EigKep=  1.90D-03  NBF=    27     4     6    20
 NBsUse=    57 1.00D-06 EigRej= -1.00D+00 NBFU=    27     4     6    20
 Precomputing XC quadrature grid using
 IXCGrd= 4 IRadAn=           5 IRanWt=          -1 IRanGd=           0 AccXCQ= 0.00D+00.
 Generated NRdTot=       0 NPtTot=           0 NUsed=           0 NTot=          32
 NSgBfM=    57    57    57    57    57 MxSgAt=    11 MxSgA2=    11.
 Leave Link  302 at Tue Feb 25 12:22:48 2020, MaxMem=  6710886400 cpu:               2.9 elap:               0.2
 (Enter /opt/ohpc/pub/libs/gaussian/g16-A.03/haswell/g16/l303.exe)
 DipDrv:  MaxL=1.
 Leave Link  303 at Tue Feb 25 12:22:48 2020, MaxMem=  6710886400 cpu:               0.4 elap:               0.0
 (Enter /opt/ohpc/pub/libs/gaussian/g16-A.03/haswell/g16/l401.exe)
 Initial guess from the checkpoint file:  "/scratch/smgo234/Ocelot/test/1b/Gau-42324.chk"
 B after Tr=     0.000000   -0.000000   -0.000000
         Rot=    1.000000    0.000000   -0.000000   -0.000000 Ang=   0.00 deg.
 Guess basis will be translated and rotated to current coordinates.
 JPrj=2 DoOrth=T DoCkMO=T.
 Initial guess orbital symmetries:
 Alpha Orbitals:
       Occupied  (B2) (A1) (B2) (A1) (A1) (A1) (A1) (B2) (A1) (B2)
                 (A1) (B2) (A1) (A1) (B2) (B1) (A2) (B1)
       Virtual   (B2) (A2) (A1) (B1) (A1) (B2) (A1) (B2) (A1) (A1)
                 (B2) (A1) (B2) (B2) (B1) (A2) (B1) (A1) (A1) (B2)
                 (A1) (A2) (B1) (B2) (B2) (A1) (B2) (A1) (A1) (A1)
                 (B2) (A1) (A1) (B2) (A1) (B2) (A1) (A1) (B2)
 Beta  Orbitals:
       Occupied  (B2) (A1) (B2) (A1) (A1) (A1) (A1) (B2) (A1) (B2)
                 (A1) (B2) (A1) (A1) (B2) (B1) (A2) (B1)
       Virtual   (B2) (A2) (A1) (B1) (A1) (B2) (A1) (B2) (A1) (A1)
                 (B2) (A1) (B2) (B2) (B1) (A2) (B1) (A1) (A1) (B2)
                 (A1) (A2) (B1) (B2) (B2) (A1) (B2) (A1) (A1) (A1)
                 (B2) (A1) (A1) (B2) (A1) (B2) (A1) (A1) (B2)
 The electronic state of the initial guess is 1-A1.
 Initial guess <Sx>= 0.0000 <Sy>= 0.0000 <Sz>= 0.0000 <S**2>= 0.0000 S= 0.0000
 Leave Link  401 at Tue Feb 25 12:22:48 2020, MaxMem=  6710886400 cpu:               1.3 elap:               0.1
 (Enter /opt/ohpc/pub/libs/gaussian/g16-A.03/haswell/g16/l502.exe)
 Keep R1 and R2 ints in memory in symmetry-blocked form, NReq=16815681.
 FoFCou: FMM=F IPFlag=           0 FMFlag=           0 FMFlg1=           0
         NFxFlg=           0 DoJE=F BraDBF=F KetDBF=F FulRan=T
         wScrn=  0.000000 ICntrl=       600 IOpCl=  0 I1Cent=           0 NGrid=           0
         NMat0=    1 NMatS0=   1653 NMatT0=    0 NMatD0=    1 NMtDS0=    0 NMtDT0=    0
 Petite list used in FoFCou.
 UHF open shell SCF:
 Using DIIS extrapolation, IDIIS=  1040.
 NGot=  6710886400 LenX=  6710059561 LenY=  6710055871
 Requested convergence on RMS density matrix=1.00D-08 within 128 cycles.
 Requested convergence on MAX density matrix=1.00D-06.
 Requested convergence on             energy=1.00D-06.
 No special actions if energy rises.

 Cycle   1  Pass 1  IDiag  1:
 E= -193.747620920269    
 DIIS: error= 4.06D-04 at cycle   1 NSaved=   1.
 NSaved= 1 IEnMin= 1 EnMin= -193.747620920269     IErMin= 1 ErrMin= 4.06D-04
 ErrMax= 4.06D-04  0.00D+00 EMaxC= 1.00D-01 BMatC= 3.13D-05 BMatP= 3.13D-05
 IDIUse=3 WtCom= 9.96D-01 WtEn= 4.06D-03
 Coeff-Com:  0.100D+01
 Coeff-En:   0.100D+01
 Coeff:      0.100D+01
 Gap=     0.390 Goal=   None    Shift=    0.000
 Gap=     0.390 Goal=   None    Shift=    0.000
 RMSDP=1.06D-04 MaxDP=5.46D-04              OVMax= 7.34D-04

 Cycle   2  Pass 1  IDiag  1:
 E= -193.747630002540     Delta-E=       -0.000009082271 Rises=F Damp=F
 DIIS: error= 1.53D-04 at cycle   2 NSaved=   2.
 NSaved= 2 IEnMin= 2 EnMin= -193.747630002540     IErMin= 2 ErrMin= 1.53D-04
 ErrMax= 1.53D-04  0.00D+00 EMaxC= 1.00D-01 BMatC= 4.51D-06 BMatP= 3.13D-05
 IDIUse=3 WtCom= 9.98D-01 WtEn= 1.53D-03
 Coeff-Com:  0.204D+00 0.796D+00
 Coeff-En:   0.000D+00 0.100D+01
 Coeff:      0.204D+00 0.796D+00
 Gap=     0.390 Goal=   None    Shift=    0.000
 Gap=     0.390 Goal=   None    Shift=    0.000
 RMSDP=2.65D-05 MaxDP=2.52D-04 DE=-9.08D-06 OVMax= 2.81D-04

 Cycle   3  Pass 1  IDiag  1:
 E= -193.747631221161     Delta-E=       -0.000001218622 Rises=F Damp=F
 DIIS: error= 4.16D-05 at cycle   3 NSaved=   3.
 NSaved= 3 IEnMin= 3 EnMin= -193.747631221161     IErMin= 3 ErrMin= 4.16D-05
 ErrMax= 4.16D-05  0.00D+00 EMaxC= 1.00D-01 BMatC= 4.59D-07 BMatP= 4.51D-06
 IDIUse=1 WtCom= 1.00D+00 WtEn= 0.00D+00
 Coeff-Com: -0.415D-01 0.187D+00 0.855D+00
 Coeff:     -0.415D-01 0.187D+00 0.855D+00
 Gap=     0.390 Goal=   None    Shift=    0.000
 Gap=     0.390 Goal=   None    Shift=    0.000
 RMSDP=9.25D-06 MaxDP=6.33D-05 DE=-1.22D-06 OVMax= 9.41D-05

 Cycle   4  Pass 1  IDiag  1:
 E= -193.747631357800     Delta-E=       -0.000000136639 Rises=F Damp=F
 DIIS: error= 1.33D-05 at cycle   4 NSaved=   4.
 NSaved= 4 IEnMin= 4 EnMin= -193.747631357800     IErMin= 4 ErrMin= 1.33D-05
 ErrMax= 1.33D-05  0.00D+00 EMaxC= 1.00D-01 BMatC= 2.72D-08 BMatP= 4.59D-07
 IDIUse=1 WtCom= 1.00D+00 WtEn= 0.00D+00
 Coeff-Com: -0.189D-01 0.434D-01 0.286D+00 0.690D+00
 Coeff:     -0.189D-01 0.434D-01 0.286D+00 0.690D+00
 Gap=     0.390 Goal=   None    Shift=    0.000
 Gap=     0.390 Goal=   None    Shift=    0.000
 RMSDP=2.02D-06 MaxDP=2.31D-05 DE=-1.37D-07 OVMax= 3.73D-05

 Cycle   5  Pass 1  IDiag  1:
 E= -193.747631364913     Delta-E=       -0.000000007113 Rises=F Damp=F
 DIIS: error= 5.14D-06 at cycle   5 NSaved=   5.
 NSaved= 5 IEnMin= 5 EnMin= -193.747631364913     IErMin= 5 ErrMin= 5.14D-06
 ErrMax= 5.14D-06  0.00D+00 EMaxC= 1.00D-01 BMatC= 3.99D-09 BMatP= 2.72D-08
 IDIUse=1 WtCom= 1.00D+00 WtEn= 0.00D+00
 Coeff-Com:  0.184D-02-0.232D-01-0.747D-01 0.239D+00 0.857D+00
 Coeff:      0.184D-02-0.232D-01-0.747D-01 0.239D+00 0.857D+00
 Gap=     0.390 Goal=   None    Shift=    0.000
 Gap=     0.390 Goal=   None    Shift=    0.000
 RMSDP=1.17D-06 MaxDP=6.79D-06 DE=-7.11D-09 OVMax= 1.16D-05

 Cycle   6  Pass 1  IDiag  1:
 E= -193.747631366255     Delta-E=       -0.000000001343 Rises=F Damp=F
 DIIS: error= 7.94D-07 at cycle   6 NSaved=   6.
 NSaved= 6 IEnMin= 6 EnMin= -193.747631366255     IErMin= 6 ErrMin= 7.94D-07
 ErrMax= 7.94D-07  0.00D+00 EMaxC= 1.00D-01 BMatC= 5.59D-11 BMatP= 3.99D-09
 IDIUse=1 WtCom= 1.00D+00 WtEn= 0.00D+00
 Coeff-Com:  0.552D-03-0.349D-02-0.133D-01 0.989D-02 0.105D+00 0.902D+00
 Coeff:      0.552D-03-0.349D-02-0.133D-01 0.989D-02 0.105D+00 0.902D+00
 Gap=     0.390 Goal=   None    Shift=    0.000
 Gap=     0.390 Goal=   None    Shift=    0.000
 RMSDP=1.44D-07 MaxDP=1.34D-06 DE=-1.34D-09 OVMax= 2.62D-06

 Cycle   7  Pass 1  IDiag  1:
 E= -193.747631366278     Delta-E=       -0.000000000022 Rises=F Damp=F
 DIIS: error= 3.72D-07 at cycle   7 NSaved=   7.
 NSaved= 7 IEnMin= 7 EnMin= -193.747631366278     IErMin= 7 ErrMin= 3.72D-07
 ErrMax= 3.72D-07  0.00D+00 EMaxC= 1.00D-01 BMatC= 2.13D-11 BMatP= 5.59D-11
 IDIUse=1 WtCom= 1.00D+00 WtEn= 0.00D+00
 Coeff-Com: -0.463D-04 0.198D-02 0.573D-02-0.329D-01-0.852D-01 0.384D+00
 Coeff-Com:  0.727D+00
 Coeff:     -0.463D-04 0.198D-02 0.573D-02-0.329D-01-0.852D-01 0.384D+00
 Coeff:      0.727D+00
 Gap=     0.390 Goal=   None    Shift=    0.000
 Gap=     0.390 Goal=   None    Shift=    0.000
 RMSDP=6.15D-08 MaxDP=4.77D-07 DE=-2.24D-11 OVMax= 6.50D-07

 Cycle   8  Pass 1  IDiag  1:
 E= -193.747631366283     Delta-E=       -0.000000000006 Rises=F Damp=F
 DIIS: error= 4.91D-08 at cycle   8 NSaved=   8.
 NSaved= 8 IEnMin= 8 EnMin= -193.747631366283     IErMin= 8 ErrMin= 4.91D-08
 ErrMax= 4.91D-08  0.00D+00 EMaxC= 1.00D-01 BMatC= 1.86D-13 BMatP= 2.13D-11
 IDIUse=1 WtCom= 1.00D+00 WtEn= 0.00D+00
 Coeff-Com: -0.184D-04-0.326D-04 0.146D-03 0.229D-02 0.176D-02-0.702D-01
 Coeff-Com: -0.112D+00 0.118D+01
 Coeff:     -0.184D-04-0.326D-04 0.146D-03 0.229D-02 0.176D-02-0.702D-01
 Coeff:     -0.112D+00 0.118D+01
 Gap=     0.390 Goal=   None    Shift=    0.000
 Gap=     0.390 Goal=   None    Shift=    0.000
 RMSDP=1.67D-08 MaxDP=1.09D-07 DE=-5.57D-12 OVMax= 2.65D-07

 Cycle   9  Pass 1  IDiag  1:
 E= -193.747631366284     Delta-E=       -0.000000000000 Rises=F Damp=F
 DIIS: error= 1.00D-08 at cycle   9 NSaved=   9.
 NSaved= 9 IEnMin= 9 EnMin= -193.747631366284     IErMin= 9 ErrMin= 1.00D-08
 ErrMax= 1.00D-08  0.00D+00 EMaxC= 1.00D-01 BMatC= 1.61D-14 BMatP= 1.86D-13
 IDIUse=1 WtCom= 1.00D+00 WtEn= 0.00D+00
 Coeff-Com:  0.586D-05-0.393D-04-0.185D-03 0.157D-03 0.191D-02 0.154D-01
 Coeff-Com: -0.456D-02-0.350D+00 0.134D+01
 Coeff:      0.586D-05-0.393D-04-0.185D-03 0.157D-03 0.191D-02 0.154D-01
 Coeff:     -0.456D-02-0.350D+00 0.134D+01
 Gap=     0.390 Goal=   None    Shift=    0.000
 Gap=     0.390 Goal=   None    Shift=    0.000
 RMSDP=3.52D-09 MaxDP=3.33D-08 DE=-1.71D-13 OVMax= 8.23D-08

 SCF Done:  E(ULC-wHPBE) =  -193.747631366     A.U. after    9 cycles
            NFock=  9  Conv=0.35D-08     -V/T= 2.0058
 <Sx>= 0.0000 <Sy>= 0.0000 <Sz>= 0.0000 <S**2>= 0.0000 S= 0.0000
 <L.S>= 0.000000000000E+00
 KE= 1.926398678024D+02 PE=-7.597135862548D+02 EE= 2.178821730208D+02
 Annihilation of the first spin contaminant:
 S**2 before annihilation    -0.0000,   after     0.0000
 Leave Link  502 at Tue Feb 25 12:22:49 2020, MaxMem=  6710886400 cpu:              15.5 elap:               1.0
 (Enter /opt/ohpc/pub/libs/gaussian/g16-A.03/haswell/g16/l701.exe)
 ... and contract with generalized density number  0.
 Compute integral first derivatives.
 Leave Link  701 at Tue Feb 25 12:22:50 2020, MaxMem=  6710886400 cpu:               2.6 elap:               0.2
 (Enter /opt/ohpc/pub/libs/gaussian/g16-A.03/haswell/g16/l702.exe)
 L702 exits ... SP integral derivatives will be done elsewhere.
 Leave Link  702 at Tue Feb 25 12:22:50 2020, MaxMem=  6710886400 cpu:               1.2 elap:               0.2
 (Enter /opt/ohpc/pub/libs/gaussian/g16-A.03/haswell/g16/l703.exe)
 Integral derivatives from FoFJK, PRISM(SPDF).
 Compute integral first derivatives, UseDBF=F ICtDFT=           0.
 Calling FoFJK, ICntrl=      2127 FMM=F ISym2X=1 I1Cent= 0 IOpClX= 1 NMat=1 NMatS=1 NMatT=0.
 FoFJK:  IHMeth= 1 ICntrl=    2127 DoSepK=T KAlg= 0 I1Cent=           0 FoldK=F
 IRaf=         1 NMat=       1 IRICut=       1 DoRegI=T DoRafI=F ISym2E= 1 IDoP0=0 IntGTp=1.
 FoFCou: FMM=F IPFlag=           0 FMFlag=      100000 FMFlg1=         800
         NFxFlg=           0 DoJE=F BraDBF=F KetDBF=F FulRan=T
         wScrn=  0.000000 ICntrl=      2527 IOpCl=  0 I1Cent=           0 NGrid=           0
         NMat0=    1 NMatS0=      1 NMatT0=    0 NMatD0=    1 NMtDS0=    0 NMtDT0=    0
 Petite list used in FoFCou.
 Leave Link  703 at Tue Feb 25 12:22:51 2020, MaxMem=  6710886400 cpu:               9.2 elap:               0.7
 (Enter /opt/ohpc/pub/libs/gaussian/g16-A.03/haswell/g16/l716.exe)
 Dipole        =-4.10286902D-17-1.33226763D-15-7.65712655D-01
 ***** Axes restored to original set *****
 -------------------------------------------------------------------
 Center     Atomic                   Forces (Hartrees/Bohr)
 Number     Number              X              Y              Z
 -------------------------------------------------------------------
      1        6          -0.000000000   -0.000894459   -0.000478408
      2        6           0.000000000    0.000515483    0.000046592
      3        6          -0.000000000    0.000000000    0.000426561
      4        6           0.000000000   -0.000515483    0.000046592
      5        6          -0.000000000    0.000894459   -0.000478408
      6        1          -0.000000000    0.000000000    0.000216947
      7        1           0.000000000    0.000089580    0.000002071
      8        1           0.000000000    0.000078052    0.000073790
      9        1           0.000000000   -0.000000000    0.000068402
     10        1           0.000000000   -0.000078052    0.000073790
     11        1           0.000000000   -0.000089580    0.000002071
 -------------------------------------------------------------------
 Cartesian Forces:  Max     0.000894459 RMS     0.000294725
 Leave Link  716 at Tue Feb 25 12:22:51 2020, MaxMem=  6710886400 cpu:               0.4 elap:               0.1
 (Enter /opt/ohpc/pub/libs/gaussian/g16-A.03/haswell/g16/l103.exe)

 GradGradGradGradGradGradGradGradGradGradGradGradGradGradGradGradGradGrad
 Berny optimization.
 Using GEDIIS/GDIIS optimizer.
 FormGI is forming the generalized inverse of G from B-inverse, IUseBI=4.
 Internal  Forces:  Max     0.000411215 RMS     0.000136671
 Search for a local minimum.
 Step number   2 out of a maximum of   65
 All quantities printed in internal units (Hartrees-Bohrs-Radians)
 RMS Force = .13667D-03 SwitMx=.10000D-02 MixMth= 2
 Mixed Optimization -- En-DIIS/RFO-DIIS
 Swapping is turned off.
 Update second derivatives using D2CorX and points    1    2
 DE= -3.90D-05 DEPred=-4.16D-05 R= 9.37D-01
 TightC=F SS=  1.41D+00  RLast= 1.54D-02 DXNew= 5.0454D-01 4.6244D-02
 Trust test= 9.37D-01 RLast= 1.54D-02 DXMaxT set to 3.00D-01
 ITU=  1  0
     Eigenvalues ---    0.00966   0.01441   0.02013   0.02114   0.02201
     Eigenvalues ---    0.02243   0.02249   0.02339   0.14196   0.15969
     Eigenvalues ---    0.16000   0.16000   0.16000   0.16000   0.19791
     Eigenvalues ---    0.21518   0.22587   0.24225   0.35058   0.35075
     Eigenvalues ---    0.35099   0.35305   0.35671   0.41580   0.44061
     Eigenvalues ---    0.46959   0.56056
 En-DIIS/RFO-DIIS/Sim-DIIS IScMMF=       -3 using points:     2    1
 RFO step:  Lambda=-2.94161859D-06.
 NNeg= 0 NGDIIS= 2 SimSw=  2.50D-03 Rises=F DC= -3.90D-05 SmlDif=  1.00D-05
 NRisDI= 0 DoIntr=F SqrtH=F CThrHd= 10.0 CDAdj=  3.0
 RMS Error=  0.4764482429D-03 NUsed= 2 OKEnD=T EnDIS=F
 InvSVX:  RCond= 5.94D-05 Info=           0 Equed=N FErr=  1.07D-15 BErr=  3.34D-17
 DidBck=F Rises=F RFO-DIIS coefs:    1.04355   -0.04355
 Iteration  1 RMS(Cart)=  0.00033187 RMS(Int)=  0.00000008
 Iteration  2 RMS(Cart)=  0.00000009 RMS(Int)=  0.00000003
 ITry= 1 IFail=0 DXMaxC= 1.14D-03 DCOld= 1.00D+10 DXMaxT= 3.00D-01 DXLimC= 3.00D+00 Rises=F
 ClnCor:  largest displacement from symmetrization is 1.04D-11 for atom     9.
 Variable       Old X    -DE/DX   Delta X   Delta X   Delta X     New X
                                 (Linear)    (Quad)   (Total)
    R1        2.60452   0.00041  -0.00024   0.00085   0.00062   2.60513
    R2        3.38341  -0.00032  -0.00031  -0.00197  -0.00228   3.38114
    R3        2.25291  -0.00022  -0.00016  -0.00083  -0.00099   2.25192
    R4        2.05237   0.00006  -0.00014   0.00019   0.00006   2.05242
    R5        2.63703   0.00040  -0.00022   0.00088   0.00066   2.63769
    R6        2.05205   0.00010  -0.00013   0.00030   0.00016   2.05221
    R7        2.63703   0.00040  -0.00022   0.00088   0.00066   2.63769
    R8        2.04406   0.00007  -0.00013   0.00022   0.00009   2.04415
    R9        2.60452   0.00041  -0.00024   0.00085   0.00062   2.60513
   R10        2.05205   0.00010  -0.00013   0.00030   0.00016   2.05221
   R11        2.25291  -0.00022  -0.00016  -0.00083  -0.00099   2.25192
   R12        2.05237   0.00006  -0.00014   0.00019   0.00006   2.05242
    A1        1.74317   0.00013  -0.00000   0.00051   0.00050   1.74368
    A2        2.46455   0.00013   0.00002   0.00075   0.00077   2.46532
    A3        2.23847  -0.00013  -0.00002  -0.00069  -0.00071   2.23775
    A4        2.30155   0.00000   0.00003   0.00018   0.00021   2.30176
    A5        1.58017   0.00001   0.00000  -0.00006  -0.00006   1.58011
    A6        2.02348  -0.00009   0.00002  -0.00035  -0.00033   2.02316
    A7        2.07006   0.00009   0.00001   0.00044   0.00045   2.07051
    A8        2.18964  -0.00000  -0.00003  -0.00009  -0.00012   2.18952
    A9        1.89147  -0.00009  -0.00003  -0.00032  -0.00035   1.89111
   A10        2.19586   0.00005   0.00002   0.00016   0.00018   2.19604
   A11        2.19586   0.00005   0.00002   0.00016   0.00018   2.19604
   A12        2.02348  -0.00009   0.00002  -0.00035  -0.00033   2.02316
   A13        2.18964  -0.00000  -0.00003  -0.00009  -0.00012   2.18952
   A14        2.07006   0.00009   0.00001   0.00044   0.00045   2.07051
   A15        1.74317   0.00013  -0.00000   0.00051   0.00050   1.74368
   A16        2.30155   0.00000   0.00003   0.00018   0.00021   2.30176
   A17        2.46455   0.00013   0.00002   0.00075   0.00077   2.46532
   A18        2.23847  -0.00013  -0.00002  -0.00069  -0.00071   2.23775
   A19        1.58017   0.00001   0.00000  -0.00006  -0.00006   1.58011
    D1        0.00000  -0.00000   0.00000  -0.00000   0.00000   0.00000
    D2        3.14159  -0.00000   0.00000  -0.00000   0.00000   3.14159
    D3       -0.00000   0.00000   0.00000   0.00000   0.00000   0.00000
    D4        3.14159   0.00000   0.00000   0.00000   0.00000   3.14159
    D5        3.14159  -0.00000   0.00000   0.00000   0.00000   3.14159
    D6       -0.00000   0.00000   0.00000   0.00000   0.00000   0.00000
    D7       -0.00000   0.00000   0.00000   0.00000   0.00000   0.00000
    D8        3.14159   0.00000   0.00000   0.00000   0.00000   3.14159
    D9        3.14159  -0.00000   0.00000  -0.00000   0.00000   3.14159
   D10        0.00000   0.00000   0.00000   0.00000   0.00000   0.00000
   D11       -0.00000   0.00000   0.00000   0.00000   0.00000   0.00000
   D12        3.14159  -0.00000   0.00000  -0.00000   0.00000   3.14159
   D13        3.14159   0.00000   0.00000   0.00000   0.00000   3.14159
   D14       -0.00000  -0.00000   0.00000  -0.00000   0.00000   0.00000
   D15        0.00000  -0.00000   0.00000  -0.00000   0.00000   0.00000
   D16        3.14159  -0.00000   0.00000  -0.00000   0.00000   3.14159
   D17        3.14159   0.00000   0.00000   0.00000   0.00000   3.14159
   D18       -0.00000   0.00000   0.00000   0.00000   0.00000   0.00000
   D19       -0.00000   0.00000   0.00000   0.00000   0.00000   0.00000
   D20        0.00000  -0.00000   0.00000  -0.00000  -0.00000   0.00000
   D21        3.14159  -0.00000   0.00000  -0.00000   0.00000   3.14159
   D22        3.14159   0.00000   0.00000   0.00000   0.00000   3.14159
   D23        3.14159  -0.00000   0.00000  -0.00000   0.00000   3.14159
   D24        0.00000   0.00000   0.00000  -0.00000   0.00000   0.00000
         Item               Value     Threshold  Converged?
 Maximum Force            0.000411     0.000450     YES
 RMS     Force            0.000137     0.000300     YES
 Maximum Displacement     0.001139     0.001800     YES
 RMS     Displacement     0.000332     0.001200     YES
 Predicted change in Energy=-1.470825D-06
 Optimization completed.
    -- Stationary point found.
                           ----------------------------
                           !   Optimized Parameters   !
                           ! (Angstroms and Degrees)  !
 --------------------------                            --------------------------
 ! Name  Definition              Value          Derivative Info.                !
 --------------------------------------------------------------------------------
[...]
      2          6           0        0.000000    1.131613    0.424118
      3          6           0        0.000000   -0.000000    1.240666
      4          6           0       -0.000000   -1.131613    0.424118
      5          6           0       -0.000000   -0.895213   -0.933707
      6          1           0       -0.000000    0.000000   -1.721051
      7          1           0        0.000000    1.620085   -1.742470
      8          1           0        0.000000    2.160007    0.772801
      9          1           0        0.000000   -0.000000    2.322335
     10          1           0       -0.000000   -2.160007    0.772801
     11          1           0       -0.000000   -1.620085   -1.742470
 ---------------------------------------------------------------------
                    Distance matrix (angstroms):
                    1          2          3          4          5
     1  C    0.000000
     2  C    1.378251   0.000000
     3  C    2.351447   1.395456   0.000000
     4  C    2.439613   2.263226   1.395456   0.000000
     5  C    1.790425   2.439613   2.351447   1.378251   0.000000
     6  H    1.192190   2.425345   2.961717   2.425345   1.192190
     7  H    1.086066   2.220971   3.394669   3.502278   2.642124
     8  H    2.124117   1.085897   2.210096   3.310036   3.499505
     9  H    3.376865   2.209927   1.081670   2.209927   3.376865
    10  H    3.499505   3.310036   2.210096   1.085897   2.124117
    11  H    2.642124   3.502278   3.394669   2.220971   1.086066
                    6          7          8          9         10
     6  H    0.000000
     7  H    1.620227   0.000000
     8  H    3.299231   2.572568   0.000000
     9  H    4.043386   4.375765   2.658324   0.000000
    10  H    3.299231   4.540450   4.320013   2.658324   0.000000
    11  H    1.620227   3.240170   4.540450   4.375765   2.572568
                   11
    11  H    0.000000
 Stoichiometry    C5H6
 Framework group  C2V[C2(HCH),SGV(C4H4)]
 Deg. of freedom    10
 Full point group                 C2V     NOp   4
 RotChk:  IX=0 Diff= 7.91D-16
 Largest Abelian subgroup         C2V     NOp   4
 Largest concise Abelian subgroup C2      NOp   2
                         Standard orientation:                         
 ---------------------------------------------------------------------
 Center     Atomic      Atomic             Coordinates (Angstroms)
 Number     Number       Type             X           Y           Z
 ---------------------------------------------------------------------
      1          6           0        0.000000    0.895213   -0.933453
      2          6           0        0.000000    1.131613    0.424372
      3          6           0        0.000000   -0.000000    1.240919
      4          6           0       -0.000000   -1.131613    0.424372
      5          6           0       -0.000000   -0.895213   -0.933453
      6          1           0       -0.000000    0.000000   -1.720797
      7          1           0        0.000000    1.620085   -1.742217
      8          1           0        0.000000    2.160007    0.773055
      9          1           0        0.000000   -0.000000    2.322589
     10          1           0       -0.000000   -2.160007    0.773055
     11          1           0       -0.000000   -1.620085   -1.742217
 ---------------------------------------------------------------------
 Rotational constants (GHZ):           8.5037913           7.8157520           4.0726338
 Leave Link  202 at Tue Feb 25 12:22:51 2020, MaxMem=  6710886400 cpu:               0.2 elap:               0.0
 (Enter /opt/ohpc/pub/libs/gaussian/g16-A.03/haswell/g16/l601.exe)
 Copying SCF densities to generalized density rwf, IOpCl= 1 IROHF=0.

 **********************************************************************

            Population analysis using the SCF density.

 **********************************************************************

 Orbital symmetries:
 Alpha Orbitals:
       Occupied  (B2) (A1) (B2) (A1) (A1) (A1) (A1) (B2) (A1) (B2)
                 (A1) (B2) (A1) (A1) (B2) (B1) (A2) (B1)
       Virtual   (B2) (A2) (A1) (B1) (A1) (B2) (A1) (B2) (A1) (A1)
                 (B2) (A1) (B2) (B2) (B1) (A2) (B1) (A1) (A1) (B2)
                 (A1) (A2) (B1) (B2) (B2) (A1) (B2) (A1) (A1) (A1)
                 (B2) (A1) (A1) (B2) (A1) (B2) (A1) (A1) (B2)
 Beta  Orbitals:
       Occupied  (B2) (A1) (B2) (A1) (A1) (A1) (A1) (B2) (A1) (B2)
                 (A1) (B2) (A1) (A1) (B2) (B1) (A2) (B1)
       Virtual   (B2) (A2) (A1) (B1) (A1) (B2) (A1) (B2) (A1) (A1)
                 (B2) (A1) (B2) (B2) (B1) (A2) (B1) (A1) (A1) (B2)
                 (A1) (A2) (B1) (B2) (B2) (A1) (B2) (A1) (A1) (A1)
                 (B2) (A1) (A1) (B2) (A1) (B2) (A1) (A1) (B2)
 The electronic state is 1-A1.
 Alpha  occ. eigenvalues --  -10.10691 -10.10687 -10.06854 -10.06853 -10.03414
 Alpha  occ. eigenvalues --   -0.97565  -0.84829  -0.82247  -0.67798  -0.66560
 Alpha  occ. eigenvalues --   -0.62456  -0.51972  -0.50796  -0.47828  -0.46606
 Alpha  occ. eigenvalues --   -0.46127  -0.32462  -0.27946
 Alpha virt. eigenvalues --    0.11054   0.11410   0.16700   0.18917   0.19815
 Alpha virt. eigenvalues --    0.24398   0.26286   0.27893   0.28823   0.41750
 Alpha virt. eigenvalues --    0.42677   0.52403   0.53768   0.62158   0.63970
 Alpha virt. eigenvalues --    0.70606   0.71499   0.71624   0.73590   0.75121
 Alpha virt. eigenvalues --    0.76017   0.77099   0.79654   0.86874   0.92689
 Alpha virt. eigenvalues --    0.95433   0.97105   0.97481   0.99512   1.06211
 Alpha virt. eigenvalues --    1.06292   1.10152   1.13806   1.20186   1.28356
 Alpha virt. eigenvalues --    1.29984   1.36207   1.57873   1.58869
  Beta  occ. eigenvalues --  -10.10691 -10.10687 -10.06854 -10.06853 -10.03414
  Beta  occ. eigenvalues --   -0.97565  -0.84829  -0.82247  -0.67798  -0.66560
  Beta  occ. eigenvalues --   -0.62456  -0.51972  -0.50796  -0.47828  -0.46606
  Beta  occ. eigenvalues --   -0.46127  -0.32462  -0.27946
  Beta virt. eigenvalues --    0.11054   0.11410   0.16700   0.18917   0.19815
  Beta virt. eigenvalues --    0.24398   0.26286   0.27893   0.28823   0.41750
  Beta virt. eigenvalues --    0.42677   0.52403   0.53768   0.62158   0.63970
  Beta virt. eigenvalues --    0.70606   0.71499   0.71624   0.73590   0.75121
  Beta virt. eigenvalues --    0.76017   0.77099   0.79654   0.86874   0.92689
  Beta virt. eigenvalues --    0.95433   0.97105   0.97481   0.99512   1.06211
  Beta virt. eigenvalues --    1.06292   1.10152   1.13806   1.20186   1.28356
  Beta virt. eigenvalues --    1.29984   1.36207   1.57873   1.58869
          Condensed to atoms (all electrons):
               1          2          3          4          5          6
     1  C    5.423726   0.475200  -0.053278  -0.130452   0.253509   0.170424
     2  C    0.475200   4.899187   0.558789  -0.011383  -0.130452  -0.021515
     3  C   -0.053278   0.558789   4.808907   0.558789  -0.053278   0.004790
     4  C   -0.130452  -0.011383   0.558789   4.899187   0.475200  -0.021515
     5  C    0.253509  -0.130452  -0.053278   0.475200   5.423726   0.170424
     6  H    0.170424  -0.021515   0.004790  -0.021515   0.170424   0.402831
     7  H    0.346332  -0.000935   0.000081   0.004100  -0.024133  -0.011142
     8  H   -0.038194   0.364095  -0.016687   0.004704   0.001867   0.000977
     9  H    0.006892  -0.040857   0.375554  -0.040857   0.006892  -0.000103
    10  H    0.001867   0.004704  -0.016687   0.364095  -0.038194   0.000977
    11  H   -0.024133   0.004100   0.000081  -0.000935   0.346332  -0.011142
               7          8          9         10         11
     1  C    0.346332  -0.038194   0.006892   0.001867  -0.024133
     2  C   -0.000935   0.364095  -0.040857   0.004704   0.004100
     3  C    0.000081  -0.016687   0.375554  -0.016687   0.000081
     4  C    0.004100   0.004704  -0.040857   0.364095  -0.000935
     5  C   -0.024133   0.001867   0.006892  -0.038194   0.346332
     6  H   -0.011142   0.000977  -0.000103   0.000977  -0.011142
     7  H    0.466355  -0.000388  -0.000106  -0.000037   0.000760
     8  H   -0.000388   0.516171  -0.002502  -0.000171  -0.000037
     9  H   -0.000106  -0.002502   0.558534  -0.002502  -0.000106
    10  H   -0.000037  -0.000171  -0.002502   0.516171  -0.000388
    11  H    0.000760  -0.000037  -0.000106  -0.000388   0.466355
          Atomic-Atomic Spin Densities.
               1          2          3          4          5          6
     1  C    0.000000   0.000000   0.000000   0.000000   0.000000   0.000000
     2  C    0.000000   0.000000   0.000000   0.000000   0.000000   0.000000
     3  C    0.000000   0.000000   0.000000   0.000000   0.000000   0.000000
     4  C    0.000000   0.000000   0.000000   0.000000   0.000000   0.000000
     5  C    0.000000   0.000000   0.000000   0.000000   0.000000   0.000000
     6  H    0.000000   0.000000   0.000000   0.000000   0.000000   0.000000
     7  H    0.000000   0.000000   0.000000   0.000000   0.000000   0.000000
     8  H    0.000000   0.000000   0.000000   0.000000   0.000000   0.000000
     9  H    0.000000   0.000000   0.000000   0.000000   0.000000   0.000000
    10  H    0.000000   0.000000   0.000000   0.000000   0.000000   0.000000
    11  H    0.000000   0.000000   0.000000   0.000000   0.000000   0.000000
               7          8          9         10         11
     1  C    0.000000   0.000000   0.000000   0.000000   0.000000
     2  C    0.000000   0.000000   0.000000   0.000000   0.000000
     3  C    0.000000   0.000000   0.000000   0.000000   0.000000
     4  C    0.000000   0.000000   0.000000   0.000000   0.000000
     5  C    0.000000   0.000000   0.000000   0.000000   0.000000
     6  H    0.000000   0.000000   0.000000   0.000000   0.000000
     7  H    0.000000   0.000000   0.000000   0.000000   0.000000
     8  H    0.000000   0.000000   0.000000   0.000000   0.000000
     9  H    0.000000   0.000000   0.000000   0.000000   0.000000
    10  H    0.000000   0.000000   0.000000   0.000000   0.000000
    11  H    0.000000   0.000000   0.000000   0.000000   0.000000
 Mulliken charges and spin densities:
               1          2
     1  C   -0.431893   0.000000
     2  C   -0.100933   0.000000
     3  C   -0.167060   0.000000
     4  C   -0.100933   0.000000
     5  C   -0.431893   0.000000
     6  H    0.314996   0.000000
     7  H    0.219112   0.000000
     8  H    0.170166   0.000000
     9  H    0.139161   0.000000
    10  H    0.170166   0.000000
    11  H    0.219112   0.000000
 Sum of Mulliken charges =  -0.00000   0.00000
 Mulliken charges and spin densities with hydrogens summed into heavy atoms:
               1          2
     1  C    0.102215   0.000000
     2  C    0.069233   0.000000
     3  C   -0.027899   0.000000
     4  C    0.069233   0.000000
     5  C   -0.212781   0.000000
 Electronic spatial extent (au):  <R**2>=            338.9362
 Charge=              0.0000 electrons
 Dipole moment (field-independent basis, Debye):
    X=             -0.0000    Y=             -0.0000    Z=             -1.9462  Tot=              1.9462
 Quadrupole moment (field-independent basis, Debye-Ang):
   XX=            -35.6145   YY=            -26.0604   ZZ=            -24.1579
   XY=              0.0000   XZ=              0.0000   YZ=             -0.0000
 Traceless Quadrupole moment (field-independent basis, Debye-Ang):
   XX=             -7.0036   YY=              2.5506   ZZ=              4.4530
   XY=              0.0000   XZ=              0.0000   YZ=             -0.0000
 Octapole moment (field-independent basis, Debye-Ang**2):
  XXX=              0.0000  YYY=              0.0000  ZZZ=             -8.7383  XYY=              0.0000
  XXY=              0.0000  XXZ=              0.8840  XZZ=              0.0000  YZZ=             -0.0000
  YYZ=             -1.0523  XYZ=             -0.0000
 Hexadecapole moment (field-independent basis, Debye-Ang**3):
 XXXX=            -38.3828 YYYY=           -190.1561 ZZZZ=           -175.7491 XXXY=             -0.0000
 XXXZ=             -0.0000 YYYX=             -0.0000 YYYZ=             -0.0000 ZZZX=             -0.0000
 ZZZY=              0.0000 XXYY=            -48.1610 XXZZ=            -46.7238 YYZZ=            -59.7932
 XXYZ=             -0.0000 YYXZ=             -0.0000 ZZXY=             -0.0000
 N-N= 1.554439140654D+02 E-N=-7.597135862683D+02  KE= 1.926398678024D+02
 Symmetry A1   KE= 1.108465343604D+02
 Symmetry A2   KE= 2.401273191809D+00
 Symmetry B1   KE= 4.205184907480D+00
 Symmetry B2   KE= 7.518687534271D+01
 Symmetry A1   SP= 0.000000000000D+00
 Symmetry A2   SP= 0.000000000000D+00
 Symmetry B1   SP= 0.000000000000D+00
 Symmetry B2   SP= 0.000000000000D+00
                          Isotropic Fermi Contact Couplings
        Atom                 a.u.       MegaHertz       Gauss      10(-4) cm-1
     1  C(13)              0.00000       0.00000       0.00000       0.00000
     2  C(13)              0.00000       0.00000       0.00000       0.00000
     3  C(13)              0.00000       0.00000       0.00000       0.00000
     4  C(13)              0.00000       0.00000       0.00000       0.00000
     5  C(13)              0.00000       0.00000       0.00000       0.00000
     6  H(1)               0.00000       0.00000       0.00000       0.00000
     7  H(1)               0.00000       0.00000       0.00000       0.00000
     8  H(1)               0.00000       0.00000       0.00000       0.00000
     9  H(1)               0.00000       0.00000       0.00000       0.00000
    10  H(1)               0.00000       0.00000       0.00000       0.00000
    11  H(1)               0.00000       0.00000       0.00000       0.00000
 --------------------------------------------------------
       Center         ----  Spin Dipole Couplings  ----
                      3XX-RR        3YY-RR        3ZZ-RR
 --------------------------------------------------------
     1   Atom        0.000000      0.000000      0.000000
     2   Atom        0.000000      0.000000      0.000000
     3   Atom        0.000000      0.000000      0.000000
     4   Atom        0.000000      0.000000      0.000000
     5   Atom        0.000000      0.000000      0.000000
     6   Atom        0.000000      0.000000      0.000000
     7   Atom        0.000000      0.000000      0.000000
     8   Atom        0.000000      0.000000      0.000000
     9   Atom        0.000000      0.000000      0.000000
    10   Atom        0.000000      0.000000      0.000000
    11   Atom        0.000000      0.000000      0.000000
 --------------------------------------------------------
                        XY            XZ            YZ
 --------------------------------------------------------
     1   Atom        0.000000      0.000000      0.000000
     2   Atom        0.000000      0.000000      0.000000
     3   Atom        0.000000      0.000000      0.000000
     4   Atom        0.000000      0.000000      0.000000
     5   Atom        0.000000      0.000000      0.000000
     6   Atom        0.000000      0.000000      0.000000
     7   Atom        0.000000      0.000000      0.000000
     8   Atom        0.000000      0.000000      0.000000
     9   Atom        0.000000      0.000000      0.000000
    10   Atom        0.000000      0.000000      0.000000
    11   Atom        0.000000      0.000000      0.000000
 --------------------------------------------------------


 ---------------------------------------------------------------------------------
              Anisotropic Spin Dipole Couplings in Principal Axis System
 ---------------------------------------------------------------------------------

       Atom             a.u.   MegaHertz   Gauss  10(-4) cm-1        Axes

              Baa     0.0000     0.000     0.000     0.000  1.0000  0.0000  0.0000
     1 C(13)  Bbb     0.0000     0.000     0.000     0.000 -0.0000  1.0000  0.0000
              Bcc     0.0000     0.000     0.000     0.000  0.0000  0.0000  1.0000
 
              Baa     0.0000     0.000     0.000     0.000  1.0000  0.0000  0.0000
     2 C(13)  Bbb     0.0000     0.000     0.000     0.000 -0.0000  1.0000  0.0000
              Bcc     0.0000     0.000     0.000     0.000  0.0000  0.0000  1.0000
 
              Baa     0.0000     0.000     0.000     0.000  1.0000  0.0000  0.0000
     3 C(13)  Bbb     0.0000     0.000     0.000     0.000 -0.0000  1.0000  0.0000
              Bcc     0.0000     0.000     0.000     0.000  0.0000  0.0000  1.0000
 
              Baa     0.0000     0.000     0.000     0.000  1.0000  0.0000  0.0000
     4 C(13)  Bbb     0.0000     0.000     0.000     0.000 -0.0000  1.0000  0.0000
              Bcc     0.0000     0.000     0.000     0.000  0.0000  0.0000  1.0000
 
              Baa     0.0000     0.000     0.000     0.000  1.0000  0.0000  0.0000
     5 C(13)  Bbb     0.0000     0.000     0.000     0.000 -0.0000  1.0000  0.0000
              Bcc     0.0000     0.000     0.000     0.000  0.0000  0.0000  1.0000
 
              Baa     0.0000     0.000     0.000     0.000  1.0000  0.0000  0.0000
     6 H(1)   Bbb     0.0000     0.000     0.000     0.000 -0.0000  1.0000  0.0000
              Bcc     0.0000     0.000     0.000     0.000  0.0000  0.0000  1.0000
 
              Baa     0.0000     0.000     0.000     0.000  1.0000  0.0000  0.0000
     7 H(1)   Bbb     0.0000     0.000     0.000     0.000 -0.0000  1.0000  0.0000
              Bcc     0.0000     0.000     0.000     0.000  0.0000  0.0000  1.0000
 
              Baa     0.0000     0.000     0.000     0.000  1.0000  0.0000  0.0000
     8 H(1)   Bbb     0.0000     0.000     0.000     0.000 -0.0000  1.0000  0.0000
              Bcc     0.0000     0.000     0.000     0.000  0.0000  0.0000  1.0000
 
              Baa     0.0000     0.000     0.000     0.000  1.0000  0.0000  0.0000
     9 H(1)   Bbb     0.0000     0.000     0.000     0.000 -0.0000  1.0000  0.0000
              Bcc     0.0000     0.000     0.000     0.000  0.0000  0.0000  1.0000
 
              Baa     0.0000     0.000     0.000     0.000  1.0000  0.0000  0.0000
    10 H(1)   Bbb     0.0000     0.000     0.000     0.000 -0.0000  1.0000  0.0000
              Bcc     0.0000     0.000     0.000     0.000  0.0000  0.0000  1.0000
 
              Baa     0.0000     0.000     0.000     0.000  1.0000  0.0000  0.0000
    11 H(1)   Bbb     0.0000     0.000     0.000     0.000 -0.0000  1.0000  0.0000
              Bcc     0.0000     0.000     0.000     0.000  0.0000  0.0000  1.0000
 

 ---------------------------------------------------------------------------------

 No NMR shielding tensors so no spin-rotation constants.
 Leave Link  601 at Tue Feb 25 12:22:51 2020, MaxMem=  6710886400 cpu:               3.0 elap:               0.2
 (Enter /opt/ohpc/pub/libs/gaussian/g16-A.03/haswell/g16/l9999.exe)

 Test job not archived.
 1\1\GINC-HASWELL008\FOpt\ULC-wHPBE\6-31G\C5H6\SMGO234\25-Feb-2020\0\\#
 P uLC-wHPBE/6-31G iop(3/107=0272500000, 3/108=0272500000) iop(3/107=03
 14200000, 3/108=0314200000) opt\\H6 C5\\0,1\C,0.,0.8952125434,-0.93370
 6808\C,0.,1.131613222,0.424118395\C,0.,0.,1.2406657202\C,0.,-1.1316132
 22,0.424118395\C,0.,-0.8952125434,-0.933706808\H,0.,0.,-1.721050846\H,
 0.,1.6200849718,-1.7424704033\H,0.,2.1600066383,0.7728012331\H,0.,0.,2
 .3223352923\H,0.,-2.1600066383,0.7728012331\H,0.,-1.6200849718,-1.7424
 704033\\Version=ES64L-G16RevA.03\State=1-A1\HF=-193.7476314\S2=0.\S2-1
 =0.\S2A=0.\RMSD=3.518e-09\RMSF=2.947e-04\Dipole=0.,0.,-0.7657127\Quadr
 upole=-5.2069885,1.8962797,3.3107088,0.,0.,0.\PG=C02V [C2(H1C1H1),SGV(
 C4H4)]\\@


 THE MORE POWERFUL THE METHOD, THE MORE CATASTROPHIC THE ERRORS.
     -- M.D. KAMEN
 Job cpu time:       0 days  0 hours  1 minutes 34.0 seconds.
 Elapsed time:       0 days  0 hours  0 minutes  6.8 seconds.
 File lengths (MBytes):  RWF=    272 Int=      0 D2E=      0 Chk=     32 Scr=     32
 Normal termination of Gaussian 16 at Tue Feb 25 12:22:51 2020.
