 Entering Gaussian System, Link 0=g16
 Input=1b_tune_n0.gjf
 Output=1b_tune_n0.log
 Initial command:
 /opt/ohpc/pub/libs/gaussian/g16-A.03/haswell/g16/l1.exe "/scratch/smgo234/Ocelot/test/1b/tuning_1b_ocycle0/Gau-32522.inp" -scrdir="/scratch/smgo234/Ocelot/test/1b/tuning_1b_ocycle0/"
 Entering Link 1 = /opt/ohpc/pub/libs/gaussian/g16-A.03/haswell/g16/l1.exe PID=     32523.
  
 Copyright (c) 1988,1990,1992,1993,1995,1998,2003,2009,2016,
            Gaussian, Inc.  All Rights Reserved.
  
 This is part of the Gaussian(R) 16 program.  It is based on
 the Gaussian(R) 09 system (copyright 2009, Gaussian, Inc.),
 the Gaussian(R) 03 system (copyright 2003, Gaussian, Inc.),
 the Gaussian(R) 98 system (copyright 1998, Gaussian, Inc.),
 the Gaussian(R) 94 system (copyright 1995, Gaussian, Inc.),
 the Gaussian 92(TM) system (copyright 1992, Gaussian, Inc.),
 the Gaussian 90(TM) system (copyright 1990, Gaussian, Inc.),
 the Gaussian 88(TM) system (copyright 1988, Gaussian, Inc.),
 the Gaussian 86(TM) system (copyright 1986, Carnegie Mellon
 University), and the Gaussian 82(TM) system (copyright 1983,
 Carnegie Mellon University). Gaussian is a federally registered
 trademark of Gaussian, Inc.
  
 This software contains proprietary and confidential information,
 including trade secrets, belonging to Gaussian, Inc.
  
 This software is provided under written license and may be
 used, copied, transmitted, or stored only in accord with that
 written license.
  
 The following legend is applicable only to US Government
 contracts under FAR:
  
                    RESTRICTED RIGHTS LEGEND
  
 Use, reproduction and disclosure by the US Government is
 subject to restrictions as set forth in subparagraphs (a)
 and (c) of the Commercial Computer Software - Restricted
 Rights clause in FAR 52.227-19.
  
 Gaussian, Inc.
 340 Quinnipiac St., Bldg. 40, Wallingford CT 06492
  
  
 ---------------------------------------------------------------
 Warning -- This program may not be used in any manner that
 competes with the business of Gaussian, Inc. or will provide
 assistance to any competitor of Gaussian, Inc.  The licensee
 of this program is prohibited from giving any competitor of
 Gaussian, Inc. access to this program.  By using this program,
 the user acknowledges that Gaussian, Inc. is engaged in the
 business of creating and licensing software in the field of
 computational chemistry and represents and warrants to the
 licensee that it is not a competitor of Gaussian, Inc. and that
 it will not use this program in any manner prohibited above.
 ---------------------------------------------------------------
  

 Cite this work as:
 Gaussian 16, Revision A.03,
 M. J. Frisch, G. W. Trucks, H. B. Schlegel, G. E. Scuseria, 
 M. A. Robb, J. R. Cheeseman, G. Scalmani, V. Barone, 
 G. A. Petersson, H. Nakatsuji, X. Li, M. Caricato, A. V. Marenich, 
 J. Bloino, B. G. Janesko, R. Gomperts, B. Mennucci, H. P. Hratchian, 
 J. V. Ortiz, A. F. Izmaylov, J. L. Sonnenberg, D. Williams-Young, 
 F. Ding, F. Lipparini, F. Egidi, J. Goings, B. Peng, A. Petrone, 
 T. Henderson, D. Ranasinghe, V. G. Zakrzewski, J. Gao, N. Rega, 
 G. Zheng, W. Liang, M. Hada, M. Ehara, K. Toyota, R. Fukuda, 
 J. Hasegawa, M. Ishida, T. Nakajima, Y. Honda, O. Kitao, H. Nakai, 
 T. Vreven, K. Throssell, J. A. Montgomery, Jr., J. E. Peralta, 
 F. Ogliaro, M. J. Bearpark, J. J. Heyd, E. N. Brothers, K. N. Kudin, 
 V. N. Staroverov, T. A. Keith, R. Kobayashi, J. Normand, 
 K. Raghavachari, A. P. Rendell, J. C. Burant, S. S. Iyengar, 
 J. Tomasi, M. Cossi, J. M. Millam, M. Klene, C. Adamo, R. Cammi, 
 J. W. Ochterski, R. L. Martin, K. Morokuma, O. Farkas, 
 J. B. Foresman, and D. J. Fox, Gaussian, Inc., Wallingford CT, 2016.
 
 ******************************************
 Gaussian 16:  ES64L-G16RevA.03 25-Dec-2016
                25-Feb-2020 
 ******************************************
 %mem=50GB
 %nproc=16
 Will use up to   16 processors via shared memory.
 ----------------------------------------------------------------------
 #P uLC-wHPBE/6-31G iop(3/107=0221900000, 3/108=0221900000) scf=(conver
 =6,fermi,ndamp=35,noincfock,novaracc,vshift=500,xqc)
 ----------------------------------------------------------------------
 1/38=1,172=1/1;
 2/12=2,17=6,18=5,40=1/2;
 3/5=1,6=6,11=2,25=1,30=1,74=-71,107=221900000,108=221900000,116=2/1,2,3;
 4//1;
 5/5=100002,6=6,8=3,10=500,13=1,18=-1,22=13,38=1,93=35/2,8;
 6/7=2,8=2,9=2,10=2,28=1/1;
 99/5=1,9=1/99;
 Leave Link    1 at Tue Feb 25 12:19:18 2020, MaxMem=  6710886400 cpu:              11.3 elap:               0.7
 (Enter /opt/ohpc/pub/libs/gaussian/g16-A.03/haswell/g16/l101.exe)
 -----
 H6 C5
 -----
 Symbolic Z-matrix:
 Charge =  0 Multiplicity = 1
 C                    -1.20651   0.69658   0. 
 C                    -1.20651  -0.69658   0. 
 C                     0.       -1.39316   0. 
 C                     1.20651  -0.69658   0. 
 C                     1.20651   0.69658   0. 
 H                     0.        2.48268   0. 
 H                    -2.15007   1.24134   0. 
 H                    -2.15007  -1.24134   0. 
 H                     0.       -2.48268   0. 
 H                     2.15007  -1.24134   0. 
 H                     2.15007   1.24134   0. 
 
 ITRead=  0  0  0  0  0  0  0  0  0  0  0
 MicOpt= -1 -1 -1 -1 -1 -1 -1 -1 -1 -1 -1
 NAtoms=     11 NQM=       11 NQMF=       0 NMMI=      0 NMMIF=      0
                NMic=       0 NMicF=      0.
                    Isotopes and Nuclear Properties:
 (Nuclear quadrupole moments (NQMom) in fm**2, nuclear magnetic moments (NMagM)
  in nuclear magnetons)

  Atom         1           2           3           4           5           6           7           8           9          10
 IAtWgt=          12          12          12          12          12           1           1           1           1           1
 AtmWgt=  12.0000000  12.0000000  12.0000000  12.0000000  12.0000000   1.0078250   1.0078250   1.0078250   1.0078250   1.0078250
 NucSpn=           0           0           0           0           0           1           1           1           1           1
 AtZEff=  -0.0000000  -0.0000000  -0.0000000  -0.0000000  -0.0000000  -0.0000000  -0.0000000  -0.0000000  -0.0000000  -0.0000000
 NQMom=    0.0000000   0.0000000   0.0000000   0.0000000   0.0000000   0.0000000   0.0000000   0.0000000   0.0000000   0.0000000
 NMagM=    0.0000000   0.0000000   0.0000000   0.0000000   0.0000000   2.7928460   2.7928460   2.7928460   2.7928460   2.7928460
 AtZNuc=   6.0000000   6.0000000   6.0000000   6.0000000   6.0000000   1.0000000   1.0000000   1.0000000   1.0000000   1.0000000

  Atom        11
 IAtWgt=           1
 AtmWgt=   1.0078250
 NucSpn=           1
 AtZEff=  -0.0000000
 NQMom=    0.0000000
 NMagM=    2.7928460
 AtZNuc=   1.0000000
 Leave Link  101 at Tue Feb 25 12:19:18 2020, MaxMem=  6710886400 cpu:               2.7 elap:               0.2
 (Enter /opt/ohpc/pub/libs/gaussian/g16-A.03/haswell/g16/l202.exe)
                          Input orientation:                          
 ---------------------------------------------------------------------
 Center     Atomic      Atomic             Coordinates (Angstroms)
 Number     Number       Type             X           Y           Z
 ---------------------------------------------------------------------
      1          6           0       -1.206512    0.696580    0.000000
      2          6           0       -1.206512   -0.696580    0.000000
      3          6           0        0.000000   -1.393160    0.000000
      4          6           0        1.206512   -0.696580    0.000000
      5          6           0        1.206512    0.696580    0.000000
      6          1           0        0.000000    2.482681    0.000000
      7          1           0       -2.150065    1.241340    0.000000
      8          1           0       -2.150065   -1.241340    0.000000
      9          1           0        0.000000   -2.482681    0.000000
     10          1           0        2.150065   -1.241340    0.000000
     11          1           0        2.150065    1.241340    0.000000
 ---------------------------------------------------------------------
                    Distance matrix (angstroms):
                    1          2          3          4          5
     1  C    0.000000
     2  C    1.393160   0.000000
     3  C    2.413024   1.393160   0.000000
     4  C    2.786320   2.413024   1.393160   0.000000
     5  C    2.413024   2.786320   2.413024   1.393160   0.000000
     6  H    2.155418   3.400496   3.875841   3.400496   2.155418
     7  H    1.089521   2.155418   3.400496   3.875841   3.400496
     8  H    2.155418   1.089521   2.155418   3.400496   3.875841
     9  H    3.400496   2.155418   1.089521   2.155418   3.400496
    10  H    3.875841   3.400496   2.155418   1.089521   2.155418
    11  H    3.400496   3.875841   3.400496   2.155418   1.089521
                    6          7          8          9         10
     6  H    0.000000
     7  H    2.482681   0.000000
     8  H    4.300129   2.482680   0.000000
     9  H    4.965362   4.300129   2.482681   0.000000
    10  H    4.300129   4.965362   4.300130   2.482681   0.000000
    11  H    2.482681   4.300130   4.965362   4.300129   2.482680
                   11
    11  H    0.000000
 Stoichiometry    C5H6
 Framework group  C2V[C2(HCH),SGV(C4H4)]
 Deg. of freedom    10
 Full point group                 C2V     NOp   4
 Largest Abelian subgroup         C2V     NOp   4
 Largest concise Abelian subgroup C2      NOp   2
                         Standard orientation:                         
 ---------------------------------------------------------------------
 Center     Atomic      Atomic             Coordinates (Angstroms)
 Number     Number       Type             X           Y           Z
 ---------------------------------------------------------------------
      1          6           0       -0.000000    1.206512   -0.928773
      2          6           0       -0.000000    1.206512    0.464387
      3          6           0        0.000000    0.000000    1.160967
      4          6           0       -0.000000   -1.206512    0.464387
      5          6           0       -0.000000   -1.206512   -0.928773
      6          1           0       -0.000000   -0.000000   -2.714874
      7          1           0       -0.000000    2.150065   -1.473533
      8          1           0       -0.000000    2.150065    1.009147
      9          1           0        0.000000    0.000000    2.250488
     10          1           0       -0.000000   -2.150065    1.009147
     11          1           0       -0.000000   -2.150065   -1.473533
 ---------------------------------------------------------------------
 Rotational constants (GHZ):           8.2868568           5.7099792           3.3806054
 Leave Link  202 at Tue Feb 25 12:19:18 2020, MaxMem=  6710886400 cpu:               0.5 elap:               0.1
 (Enter /opt/ohpc/pub/libs/gaussian/g16-A.03/haswell/g16/l301.exe)
 Standard basis: 6-31G (6D, 7F)
 Ernie: Thresh=  0.10000D-02 Tol=  0.10000D-05 Strict=F.
 There are    27 symmetry adapted cartesian basis functions of A1  symmetry.
 There are     4 symmetry adapted cartesian basis functions of A2  symmetry.
 There are     6 symmetry adapted cartesian basis functions of B1  symmetry.
 There are    20 symmetry adapted cartesian basis functions of B2  symmetry.
 There are    27 symmetry adapted basis functions of A1  symmetry.
 There are     4 symmetry adapted basis functions of A2  symmetry.
 There are     6 symmetry adapted basis functions of B1  symmetry.
 There are    20 symmetry adapted basis functions of B2  symmetry.
    57 basis functions,   134 primitive gaussians,    57 cartesian basis functions
    18 alpha electrons       18 beta electrons
       nuclear repulsion energy       145.0218997931 Hartrees.
 IExCor=33909 DFT=T Ex+Corr=LC-wHPBE ExCW=0 ScaHFX=  1.000000
 ScaDFX=  1.000000  1.000000  1.000000  1.000000 ScalE2=  1.000000  1.000000
 IRadAn=      5 IRanWt=     -1 IRanGd=            0 ICorTp=0 IEmpDi=  4
 HFx  wShort=  0.000000 wLong=  0.221900 cFull=  0.000000 cShort=  0.000000 cLong=  1.000000
 DFx  wShort=  0.000000 wLong=  0.221900 cFull=  0.000000 cShort=  1.000000 cLong=  0.000000
 NAtoms=   11 NActive=   11 NUniq=    7 SFac= 2.47D+00 NAtFMM=   60 NAOKFM=F Big=F
 Integral buffers will be    131072 words long.
 Raffenetti 2 integral format.
 Two-electron integral symmetry is turned on.
 Leave Link  301 at Tue Feb 25 12:19:18 2020, MaxMem=  6710886400 cpu:               1.3 elap:               0.1
 (Enter /opt/ohpc/pub/libs/gaussian/g16-A.03/haswell/g16/l302.exe)
 NPDir=0 NMtPBC=     1 NCelOv=     1 NCel=       1 NClECP=     1 NCelD=      1
         NCelK=      1 NCelE2=     1 NClLst=     1 CellRange=     0.0.
 One-electron integrals computed using PRISM.
 One-electron integral symmetry used in STVInt
 NBasis=    57 RedAO= T EigKep=  2.88D-03  NBF=    27     4     6    20
 NBsUse=    57 1.00D-06 EigRej= -1.00D+00 NBFU=    27     4     6    20
 Precomputing XC quadrature grid using
 IXCGrd= 4 IRadAn=           5 IRanWt=          -1 IRanGd=           0 AccXCQ= 0.00D+00.
 Generated NRdTot=       0 NPtTot=           0 NUsed=           0 NTot=          32
 NSgBfM=    57    57    57    57    57 MxSgAt=    11 MxSgA2=    11.
 Leave Link  302 at Tue Feb 25 12:19:19 2020, MaxMem=  6710886400 cpu:               3.8 elap:               0.3
 (Enter /opt/ohpc/pub/libs/gaussian/g16-A.03/haswell/g16/l303.exe)
 DipDrv:  MaxL=1.
 Leave Link  303 at Tue Feb 25 12:19:19 2020, MaxMem=  6710886400 cpu:               0.6 elap:               0.1
 (Enter /opt/ohpc/pub/libs/gaussian/g16-A.03/haswell/g16/l401.exe)
 ExpMin= 1.61D-01 ExpMax= 3.05D+03 ExpMxC= 4.57D+02 IAcc=3 IRadAn=         5 AccDes= 0.00D+00
 Harris functional with IExCor=33909 and IRadAn=       5 diagonalized for initial guess.
 HarFok:  IExCor=33909 AccDes= 0.00D+00 IRadAn=         5 IDoV= 1 UseB2=F ITyADJ=14
 ICtDFT=  3500011 ScaDFX=  1.000000  1.000000  1.000000  1.000000
 FoFCou: FMM=F IPFlag=           0 FMFlag=      100000 FMFlg1=           0
         NFxFlg=           0 DoJE=T BraDBF=F KetDBF=T FulRan=T
         wScrn=  0.000000 ICntrl=       500 IOpCl=  0 I1Cent=   200000004 NGrid=           0
         NMat0=    1 NMatS0=      1 NMatT0=    0 NMatD0=    1 NMtDS0=    0 NMtDT0=    0
 Petite list used in FoFCou.
 Harris En= -189.408266183119    
 JPrj=0 DoOrth=F DoCkMO=F.
 Initial guess orbital symmetries:
 Alpha Orbitals:
       Occupied  (A1) (B2) (A1) (B2) (A1) (A1) (B2) (A1) (B2) (A1)
                 (A1) (B2) (B2) (A1) (B1) (A1) (A2) (B1)
       Virtual   (B2) (A1) (A2) (B1) (A1) (B2) (A1) (B2) (A1) (A1)
                 (B2) (A1) (B2) (B1) (B2) (A1) (B1) (A1) (A2) (B2)
                 (A1) (A2) (B1) (B2) (A1) (A1) (B2) (A1) (B2) (A1)
                 (A1) (B2) (A1) (A1) (B2) (B2) (A1) (A1) (B2)
 Beta  Orbitals:
       Occupied  (A1) (B2) (A1) (B2) (A1) (A1) (B2) (A1) (B2) (A1)
                 (A1) (B2) (B2) (A1) (B1) (A1) (A2) (B1)
       Virtual   (B2) (A1) (A2) (B1) (A1) (B2) (A1) (B2) (A1) (A1)
                 (B2) (A1) (B2) (B1) (B2) (A1) (B1) (A1) (A2) (B2)
                 (A1) (A2) (B1) (B2) (A1) (A1) (B2) (A1) (B2) (A1)
                 (A1) (B2) (A1) (A1) (B2) (B2) (A1) (A1) (B2)
 The electronic state of the initial guess is 1-A1.
 Initial guess <Sx>= 0.0000 <Sy>= 0.0000 <Sz>= 0.0000 <S**2>=-0.0000 S=-0.0000
 Leave Link  401 at Tue Feb 25 12:19:20 2020, MaxMem=  6710886400 cpu:               5.6 elap:               0.5
 (Enter /opt/ohpc/pub/libs/gaussian/g16-A.03/haswell/g16/l502.exe)
 Keep R1 and R2 ints in memory in symmetry-blocked form, NReq=16815659.
 FoFCou: FMM=F IPFlag=           0 FMFlag=           0 FMFlg1=           0
         NFxFlg=           0 DoJE=F BraDBF=F KetDBF=F FulRan=T
         wScrn=  0.000000 ICntrl=       600 IOpCl=  0 I1Cent=           0 NGrid=           0
         NMat0=    1 NMatS0=   1653 NMatT0=    0 NMatD0=    1 NMtDS0=    0 NMtDT0=    0
 Petite list used in FoFCou.
 UHF open shell SCF:
 Using DIIS extrapolation, IDIIS=    10.
 NGot=  6710886400 LenX=  6710059583 LenY=  6710055893
 Requested convergence on RMS density matrix=1.00D-06 within  32 cycles.
 Requested convergence on MAX density matrix=1.00D-04.
 Requested convergence on             energy=1.00D-04.
 Virtual orbitals will be shifted by   0.500 hartree.
 No special actions if energy rises.
 Dynamic level shift is on during FON iterations.

 Cycle   1  Pass 1  IDiag  1:
 E= -193.337831773177    
 DIIS: error= 4.97D-02 at cycle   1 NSaved=   1.
 NSaved= 1 IEnMin= 1 EnMin= -193.337831773177     IErMin= 1 ErrMin= 4.97D-02
 ErrMax= 4.97D-02  0.00D+00 EMaxC= 1.00D+00 BMatC= 5.17D-01 BMatP= 5.17D-01
 IDIUse=1 WtCom= 1.00D+00 WtEn= 0.00D+00
 Coeff-Com:  0.100D+01
 Coeff:      0.100D+01
 Gap=     0.072 Goal=   None    Shift=    0.500
 T= 1799. Gap= 0.510 NK=0 IS=   19 IE=   57 IFin=   18
          NO(<0.9)=   0  NV(>0.1)=   0     18.00e < EF      0.00e >EF  Err=0.0D+00
 Gap=     0.072 Goal=   None    Shift=    0.500
 T= 1799. Gap= 0.510 NK=0 IS=   19 IE=   57 IFin=   18
          NO(<0.9)=   0  NV(>0.1)=   0     18.00e < EF      0.00e >EF  Err=0.0D+00
 GapD=    0.072 DampG=0.500 DampE=0.500 DampFc=0.2500 IDamp=-1.
 Damping current iteration by 2.50D-01
 RMSDP=2.24D-02 MaxDP=4.81D-01              OVMax= 1.47D-01

 Cycle   2  Pass 1  IDiag  1:
 E= -193.407670435386     Delta-E=       -0.069838662209 Rises=F Damp=T
 DIIS: error= 2.35D-02 at cycle   2 NSaved=   2.
 NSaved= 2 IEnMin= 2 EnMin= -193.407670435386     IErMin= 2 ErrMin= 2.35D-02
 ErrMax= 2.35D-02  0.00D+00 EMaxC= 1.00D+00 BMatC= 1.42D-01 BMatP= 5.17D-01
 IDIUse=1 WtCom= 1.00D+00 WtEn= 0.00D+00
 Coeff-Com: -0.949D+00 0.195D+01
 Coeff:     -0.949D+00 0.195D+01
 Gap=     0.001 Goal=   None    Shift=    0.500
 T= 1683. Gap= 0.517 NK=0 IS=   19 IE=   57 IFin=   18
          NO(<0.9)=   0  NV(>0.1)=   0     18.00e < EF      0.00e >EF  Err=0.0D+00
 Gap=     0.001 Goal=   None    Shift=    0.500
 T= 1683. Gap= 0.517 NK=0 IS=   19 IE=   57 IFin=   18
          NO(<0.9)=   0  NV(>0.1)=   0     18.00e < EF      0.00e >EF  Err=0.0D+00
 GapD=    0.001 DampG=0.250 DampE=0.500 DampFc=0.1250 IDamp=-1.
 Damping current iteration by 1.25D-01
 RMSDP=8.86D-03 MaxDP=6.49D-02 DE=-6.98D-02 OVMax= 1.38D-01

 Cycle   3  Pass 1  IDiag  1:
 E= -193.421703586967     Delta-E=       -0.014033151582 Rises=F Damp=T
 DIIS: error= 2.03D-02 at cycle   3 NSaved=   3.
 NSaved= 3 IEnMin= 3 EnMin= -193.421703586967     IErMin= 3 ErrMin= 2.03D-02
 ErrMax= 2.03D-02  0.00D+00 EMaxC= 1.00D+00 BMatC= 1.03D-01 BMatP= 1.42D-01
 IDIUse=1 WtCom= 1.00D+00 WtEn= 0.00D+00
 Coeff-Com: -0.409D+00-0.276D+01 0.417D+01
 Coeff:     -0.409D+00-0.276D+01 0.417D+01
 Gap=     0.094 Goal=   None    Shift=    0.500
 T= 1519. Gap= 0.596 NK=0 IS=   19 IE=   57 IFin=   18
          NO(<0.9)=   0  NV(>0.1)=   0     18.00e < EF      0.00e >EF  Err=0.0D+00
 Gap=     0.094 Goal=   None    Shift=    0.500
 T= 1519. Gap= 0.596 NK=0 IS=   19 IE=   57 IFin=   18
          NO(<0.9)=   0  NV(>0.1)=   0     18.00e < EF      0.00e >EF  Err=0.0D+00
 GapD=    0.094 DampG=0.500 DampE=0.500 DampFc=0.2500 IDamp=-1.
 Damping current iteration by 2.50D-01
 RMSDP=7.14D-03 MaxDP=4.86D-02 DE=-1.40D-02 OVMax= 5.14D-02

 Cycle   4  Pass 1  IDiag  1:
 E= -193.447635958792     Delta-E=       -0.025932371825 Rises=F Damp=T
 DIIS: error= 1.62D-02 at cycle   4 NSaved=   4.
 NSaved= 4 IEnMin= 4 EnMin= -193.447635958792     IErMin= 4 ErrMin= 1.62D-02
 ErrMax= 1.62D-02  0.00D+00 EMaxC= 1.00D+00 BMatC= 6.08D-02 BMatP= 1.03D-01
 IDIUse=1 WtCom= 1.00D+00 WtEn= 0.00D+00
 Coeff-Com: -0.345D+00 0.349D+01-0.719D+01 0.504D+01
 Coeff:     -0.345D+00 0.349D+01-0.719D+01 0.504D+01
 Gap=     0.114 Goal=   None    Shift=    0.500
 T= 1252. Gap= 0.614 NK=0 IS=   19 IE=   57 IFin=   18
          NO(<0.9)=   0  NV(>0.1)=   0     18.00e < EF      0.00e >EF  Err=0.0D+00
 Gap=     0.114 Goal=   None    Shift=    0.500
 T= 1252. Gap= 0.614 NK=0 IS=   19 IE=   57 IFin=   18
          NO(<0.9)=   0  NV(>0.1)=   0     18.00e < EF      0.00e >EF  Err=0.0D+00
 GapD=    0.114 DampG=1.000 DampE=0.500 DampFc=0.5000 IDamp=-1.
 Damping current iteration by 5.00D-01
 RMSDP=5.41D-03 MaxDP=3.54D-02 DE=-2.59D-02 OVMax= 1.12D-02

 Cycle   5  Pass 1  IDiag  1:
 E= -193.491244751602     Delta-E=       -0.043608792810 Rises=F Damp=T
 DIIS: error= 1.03D-02 at cycle   5 NSaved=   5.
 NSaved= 5 IEnMin= 5 EnMin= -193.491244751602     IErMin= 5 ErrMin= 1.03D-02
 ErrMax= 1.03D-02  0.00D+00 EMaxC= 1.00D+00 BMatC= 2.15D-02 BMatP= 6.08D-02
 IDIUse=1 WtCom= 1.00D+00 WtEn= 0.00D+00
 Coeff-Com: -0.241D+00 0.252D+00 0.301D+01-0.578D+01 0.376D+01
 Coeff:     -0.241D+00 0.252D+00 0.301D+01-0.578D+01 0.376D+01
 Gap=     0.125 Goal=   None    Shift=    0.500
 T= 1104. Gap= 0.625 NK=0 IS=   19 IE=   57 IFin=   18
          NO(<0.9)=   0  NV(>0.1)=   0     18.00e < EF      0.00e >EF  Err=0.0D+00
 Gap=     0.125 Goal=   None    Shift=    0.500
 T= 1104. Gap= 0.625 NK=0 IS=   19 IE=   57 IFin=   18
          NO(<0.9)=   0  NV(>0.1)=   0     18.00e < EF      0.00e >EF  Err=0.0D+00
 GapD=    0.125 DampG=1.000 DampE=0.500 DampFc=0.5000 IDamp=-1.
 Damping current iteration by 5.00D-01
 RMSDP=2.91D-03 MaxDP=1.82D-02 DE=-4.36D-02 OVMax= 6.26D-03

 Cycle   6  Pass 1  IDiag  1:
 E= -193.515669670651     Delta-E=       -0.024424919049 Rises=F Damp=T
 DIIS: error= 7.61D-03 at cycle   6 NSaved=   6.
 NSaved= 6 IEnMin= 6 EnMin= -193.515669670651     IErMin= 6 ErrMin= 7.61D-03
 ErrMax= 7.61D-03  0.00D+00 EMaxC= 1.00D+00 BMatC= 9.06D-03 BMatP= 2.15D-02
 IDIUse=1 WtCom= 1.00D+00 WtEn= 0.00D+00
 Coeff-Com: -0.162D+00-0.663D+00 0.341D+01-0.361D+01-0.327D+00 0.235D+01
 Coeff:     -0.162D+00-0.663D+00 0.341D+01-0.361D+01-0.327D+00 0.235D+01
 Gap=     0.131 Goal=   None    Shift=    0.500
 T=  914. Gap= 0.631 NK=0 IS=   19 IE=   57 IFin=   18
          NO(<0.9)=   0  NV(>0.1)=   0     18.00e < EF      0.00e >EF  Err=0.0D+00
 Gap=     0.131 Goal=   None    Shift=    0.500
 T=  914. Gap= 0.631 NK=0 IS=   19 IE=   57 IFin=   18
          NO(<0.9)=   0  NV(>0.1)=   0     18.00e < EF      0.00e >EF  Err=0.0D+00
 GapD=    0.131 DampG=1.000 DampE=1.000 DampFc=1.0000 IDamp=-1.
 RMSDP=1.64D-03 MaxDP=1.13D-02 DE=-2.44D-02 OVMax= 4.12D-03

 Cycle   7  Pass 1  IDiag  1:
 E= -193.542222480167     Delta-E=       -0.026552809516 Rises=F Damp=F
 DIIS: error= 4.52D-03 at cycle   7 NSaved=   7.
 NSaved= 7 IEnMin= 7 EnMin= -193.542222480167     IErMin= 7 ErrMin= 4.52D-03
 ErrMax= 4.52D-03  0.00D+00 EMaxC= 1.00D+00 BMatC= 1.50D-03 BMatP= 9.06D-03
 IDIUse=1 WtCom= 1.00D+00 WtEn= 0.00D+00
 Coeff-Com: -0.847D-01-0.181D+00 0.382D+00-0.614D-01 0.170D+01-0.327D+01
 Coeff-Com:  0.252D+01
 Coeff:     -0.847D-01-0.181D+00 0.382D+00-0.614D-01 0.170D+01-0.327D+01
 Coeff:      0.252D+01
 Gap=     0.138 Goal=   None    Shift=    0.500
 T=  663. Gap= 0.638 NK=0 IS=   19 IE=   57 IFin=   18
          NO(<0.9)=   0  NV(>0.1)=   0     18.00e < EF      0.00e >EF  Err=0.0D+00
 Gap=     0.138 Goal=   None    Shift=    0.500
 T=  663. Gap= 0.638 NK=0 IS=   19 IE=   57 IFin=   18
          NO(<0.9)=   0  NV(>0.1)=   0     18.00e < EF      0.00e >EF  Err=0.0D+00
 GapD=    0.138 DampG=1.000 DampE=1.000 DampFc=1.0000 IDamp=-1.
 RMSDP=2.31D-04 MaxDP=1.66D-03 DE=-2.66D-02 OVMax= 4.67D-03

 Cycle   8  Pass 1  IDiag  1:
 E= -193.542650459590     Delta-E=       -0.000427979423 Rises=F Damp=F
 DIIS: error= 3.57D-03 at cycle   8 NSaved=   8.
 NSaved= 8 IEnMin= 8 EnMin= -193.542650459590     IErMin= 8 ErrMin= 3.57D-03
 ErrMax= 3.57D-03  0.00D+00 EMaxC= 1.00D+00 BMatC= 7.79D-04 BMatP= 1.50D-03
 IDIUse=1 WtCom= 1.00D+00 WtEn= 0.00D+00
 Coeff-Com: -0.426D-01 0.519D+00-0.714D+00-0.684D+00 0.365D+01-0.355D+01
 Coeff-Com: -0.140D+01 0.322D+01
 Coeff:     -0.426D-01 0.519D+00-0.714D+00-0.684D+00 0.365D+01-0.355D+01
 Coeff:     -0.140D+01 0.322D+01
 Gap=     0.144 Goal=   None    Shift=    0.500
 T=  448. Gap= 0.644 NK=0 IS=   19 IE=   57 IFin=   18
          NO(<0.9)=   0  NV(>0.1)=   0     18.00e < EF      0.00e >EF  Err=0.0D+00
 Gap=     0.144 Goal=   None    Shift=    0.500
 T=  448. Gap= 0.644 NK=0 IS=   19 IE=   57 IFin=   18
          NO(<0.9)=   0  NV(>0.1)=   0     18.00e < EF      0.00e >EF  Err=0.0D+00
 GapD=    0.144 DampG=1.000 DampE=1.000 DampFc=1.0000 IDamp=-1.
 RMSDP=1.61D-04 MaxDP=2.40D-03 DE=-4.28D-04 OVMax= 5.24D-03

 Cycle   9  Pass 1  IDiag  1:
 E= -193.542928021806     Delta-E=       -0.000277562217 Rises=F Damp=F
 DIIS: error= 2.56D-03 at cycle   9 NSaved=   9.
 NSaved= 9 IEnMin= 9 EnMin= -193.542928021806     IErMin= 9 ErrMin= 2.56D-03
 ErrMax= 2.56D-03  0.00D+00 EMaxC= 1.00D+00 BMatC= 3.45D-04 BMatP= 7.79D-04
 IDIUse=1 WtCom= 1.00D+00 WtEn= 0.00D+00
 Coeff-Com: -0.569D-02-0.635D+00 0.159D+01-0.104D+01-0.189D+01 0.337D+01
 Coeff-Com: -0.181D+01-0.191D+01 0.332D+01
 Coeff:     -0.569D-02-0.635D+00 0.159D+01-0.104D+01-0.189D+01 0.337D+01
 Coeff:     -0.181D+01-0.191D+01 0.332D+01
 Gap=     0.148 Goal=   None    Shift=    0.500
 T=  215. Gap= 0.648 NK=0 IS=   19 IE=   57 IFin=   18
          NO(<0.9)=   0  NV(>0.1)=   0     18.00e < EF      0.00e >EF  Err=0.0D+00
 Gap=     0.148 Goal=   None    Shift=    0.500
 T=  215. Gap= 0.648 NK=0 IS=   19 IE=   57 IFin=   18
          NO(<0.9)=   0  NV(>0.1)=   0     18.00e < EF      0.00e >EF  Err=0.0D+00
 GapD=    0.148 DampG=1.000 DampE=1.000 DampFc=1.0000 IDamp=-1.
 RMSDP=1.29D-04 MaxDP=2.14D-03 DE=-2.78D-04 OVMax= 4.58D-03

 Cycle  10  Pass 1  IDiag  1:
 E= -193.543074767577     Delta-E=       -0.000146745770 Rises=F Damp=F
 DIIS: error= 1.68D-03 at cycle  10 NSaved=  10.
 NSaved=10 IEnMin=10 EnMin= -193.543074767577     IErMin=10 ErrMin= 1.68D-03
 ErrMax= 1.68D-03  0.00D+00 EMaxC= 1.00D+00 BMatC= 1.27D-04 BMatP= 3.45D-04
 IDIUse=1 WtCom= 1.00D+00 WtEn= 0.00D+00
 Coeff-Com:  0.630D-02-0.266D+00 0.526D+00-0.380D+00 0.411D+00-0.515D+00
 Coeff-Com:  0.562D+00 0.541D+00-0.379D+01 0.391D+01
 Coeff:      0.630D-02-0.266D+00 0.526D+00-0.380D+00 0.411D+00-0.515D+00
 Coeff:      0.562D+00 0.541D+00-0.379D+01 0.391D+01
 Gap=     0.149 Goal=   None    Shift=    0.500
 T=   29. Gap= 0.649 NK=0 IS=   19 IE=   57 IFin=   18
          NO(<0.9)=   0  NV(>0.1)=   0     18.00e < EF      0.00e >EF  Err=0.0D+00
 Gap=     0.149 Goal=   None    Shift=    0.500
 T=   29. Gap= 0.649 NK=0 IS=   19 IE=   57 IFin=   18
          NO(<0.9)=   0  NV(>0.1)=   0     18.00e < EF      0.00e >EF  Err=0.0D+00
 GapD=    0.149 DampG=1.000 DampE=1.000 DampFc=1.0000 IDamp=-1.
 RMSDP=8.94D-05 MaxDP=1.50D-03 DE=-1.47D-04 OVMax= 3.45D-03

 Cycle  11  Pass 1  IDiag  1:
 E= -193.543137199594     Delta-E=       -0.000062432018 Rises=F Damp=F
 DIIS: error= 9.74D-04 at cycle  11 NSaved=  11.
 NSaved=11 IEnMin=11 EnMin= -193.543137199594     IErMin=11 ErrMin= 9.74D-04
 ErrMax= 9.74D-04  0.00D+00 EMaxC= 1.00D+00 BMatC= 3.79D-05 BMatP= 1.27D-04
 IDIUse=1 WtCom= 1.00D+00 WtEn= 0.00D+00
 Coeff-Com:  0.582D-02-0.935D-02-0.786D-01 0.155D+00-0.129D+00 0.720D-01
 Coeff-Com:  0.765D-01-0.235D+00 0.889D+00-0.318D+01 0.344D+01
 Coeff:      0.582D-02-0.935D-02-0.786D-01 0.155D+00-0.129D+00 0.720D-01
 Coeff:      0.765D-01-0.235D+00 0.889D+00-0.318D+01 0.344D+01
 Gap=     0.149 Goal=   None    Shift=    0.500
 Gap=     0.149 Goal=   None    Shift=    0.500
 RMSDP=5.13D-05 MaxDP=9.40D-04 DE=-6.24D-05 OVMax= 2.13D-03

 Cycle  12  Pass 1  IDiag  1:
 E= -193.543157537575     Delta-E=       -0.000020337981 Rises=F Damp=F
 DIIS: error= 5.40D-04 at cycle  12 NSaved=  12.
 NSaved=12 IEnMin=12 EnMin= -193.543157537575     IErMin=12 ErrMin= 5.40D-04
 ErrMax= 5.40D-04  0.00D+00 EMaxC= 1.00D+00 BMatC= 1.02D-05 BMatP= 3.79D-05
 IDIUse=1 WtCom= 1.00D+00 WtEn= 0.00D+00
 Coeff-Com:  0.198D-02-0.309D-01 0.751D-01-0.581D-01-0.113D+00 0.231D+00
 Coeff-Com: -0.107D+00-0.304D+00 0.731D+00-0.164D+00-0.231D+01 0.305D+01
 Coeff:      0.198D-02-0.309D-01 0.751D-01-0.581D-01-0.113D+00 0.231D+00
 Coeff:     -0.107D+00-0.304D+00 0.731D+00-0.164D+00-0.231D+01 0.305D+01
 Gap=     0.149 Goal=   None    Shift=    0.500
 Gap=     0.149 Goal=   None    Shift=    0.500
 RMSDP=2.50D-05 MaxDP=5.45D-04 DE=-2.03D-05 OVMax= 1.16D-03

 Cycle  13  Pass 1  IDiag  1:
 E= -193.543163174566     Delta-E=       -0.000005636991 Rises=F Damp=F
 DIIS: error= 3.09D-04 at cycle  13 NSaved=  13.
 NSaved=13 IEnMin=13 EnMin= -193.543163174566     IErMin=13 ErrMin= 3.09D-04
 ErrMax= 3.09D-04  0.00D+00 EMaxC= 1.00D+00 BMatC= 3.13D-06 BMatP= 1.02D-05
 IDIUse=1 WtCom= 1.00D+00 WtEn= 0.00D+00
 Coeff-Com: -0.426D-03 0.547D-02-0.722D-02-0.807D-02 0.660D-01-0.916D-01
 Coeff-Com:  0.418D-01 0.112D+00-0.310D+00 0.195D+00 0.718D+00-0.304D+01
 Coeff-Com:  0.331D+01
 Coeff:     -0.426D-03 0.547D-02-0.722D-02-0.807D-02 0.660D-01-0.916D-01
 Coeff:      0.418D-01 0.112D+00-0.310D+00 0.195D+00 0.718D+00-0.304D+01
 Coeff:      0.331D+01
 Gap=     0.149 Goal=   None    Shift=    0.500
 Gap=     0.149 Goal=   None    Shift=    0.500
 RMSDP=1.30D-05 MaxDP=2.97D-04 DE=-5.64D-06 OVMax= 6.21D-04

 Cycle  14  Pass 1  IDiag  1:
 E= -193.543164840685     Delta-E=       -0.000001666119 Rises=F Damp=F
 DIIS: error= 1.90D-04 at cycle  14 NSaved=  14.
 NSaved=14 IEnMin=14 EnMin= -193.543164840685     IErMin=14 ErrMin= 1.90D-04
 ErrMax= 1.90D-04  0.00D+00 EMaxC= 1.00D+00 BMatC= 1.16D-06 BMatP= 3.13D-06
 IDIUse=1 WtCom= 1.00D+00 WtEn= 0.00D+00
 Coeff-Com: -0.310D-03-0.413D-02 0.170D-01-0.118D-01-0.541D-01 0.931D-01
 Coeff-Com: -0.424D-01-0.766D-01 0.242D+00-0.346D+00-0.185D+00 0.189D+01
 Coeff-Com: -0.429D+01 0.377D+01
 Coeff:     -0.310D-03-0.413D-02 0.170D-01-0.118D-01-0.541D-01 0.931D-01
 Coeff:     -0.424D-01-0.766D-01 0.242D+00-0.346D+00-0.185D+00 0.189D+01
 Coeff:     -0.429D+01 0.377D+01
 Gap=     0.149 Goal=   None    Shift=    0.500
 Gap=     0.149 Goal=   None    Shift=    0.500
 RMSDP=7.69D-06 MaxDP=1.74D-04 DE=-1.67D-06 OVMax= 3.75D-04

 Cycle  15  Pass 1  IDiag  1:
 E= -193.543165442849     Delta-E=       -0.000000602164 Rises=F Damp=F
 DIIS: error= 1.19D-04 at cycle  15 NSaved=  15.
 NSaved=15 IEnMin=15 EnMin= -193.543165442849     IErMin=15 ErrMin= 1.19D-04
 ErrMax= 1.19D-04  0.00D+00 EMaxC= 1.00D+00 BMatC= 4.51D-07 BMatP= 1.16D-06
 IDIUse=1 WtCom= 1.00D+00 WtEn= 0.00D+00
 Coeff-Com:  0.303D-04-0.706D-02 0.198D-01-0.170D-01-0.647D-03 0.712D-02
 Coeff-Com:  0.699D-02-0.352D-01 0.605D-01 0.138D-01-0.155D+00-0.119D+00
 Coeff-Com:  0.141D+01-0.410D+01 0.391D+01
 Coeff:      0.303D-04-0.706D-02 0.198D-01-0.170D-01-0.647D-03 0.712D-02
 Coeff:      0.699D-02-0.352D-01 0.605D-01 0.138D-01-0.155D+00-0.119D+00
 Coeff:      0.141D+01-0.410D+01 0.391D+01
 Gap=     0.149 Goal=   None    Shift=    0.500
 Gap=     0.149 Goal=   None    Shift=    0.500
 RMSDP=5.04D-06 MaxDP=1.08D-04 DE=-6.02D-07 OVMax= 2.49D-04

 Cycle  16  Pass 1  IDiag  1:
 E= -193.543165687600     Delta-E=       -0.000000244752 Rises=F Damp=F
 DIIS: error= 7.23D-05 at cycle  16 NSaved=  16.
 NSaved=16 IEnMin=16 EnMin= -193.543165687600     IErMin=16 ErrMin= 7.23D-05
 ErrMax= 7.23D-05  0.00D+00 EMaxC= 1.00D+00 BMatC= 1.59D-07 BMatP= 4.51D-07
 IDIUse=1 WtCom= 1.00D+00 WtEn= 0.00D+00
 Coeff-Com:  0.869D-04-0.511D-02 0.122D-01-0.901D-02-0.343D-02 0.870D-02
 Coeff-Com: -0.229D-03-0.158D-02-0.847D-02 0.288D-02 0.973D-01-0.371D+00
 Coeff-Com:  0.612D+00-0.439D+00-0.154D+01 0.265D+01
 Coeff:      0.869D-04-0.511D-02 0.122D-01-0.901D-02-0.343D-02 0.870D-02
 Coeff:     -0.229D-03-0.158D-02-0.847D-02 0.288D-02 0.973D-01-0.371D+00
 Coeff:      0.612D+00-0.439D+00-0.154D+01 0.265D+01
 Gap=     0.149 Goal=   None    Shift=    0.500
 Gap=     0.149 Goal=   None    Shift=    0.500
 RMSDP=3.06D-06 MaxDP=6.71D-05 DE=-2.45D-07 OVMax= 1.53D-04

 Cycle  17  Pass 1  IDiag  1:
 E= -193.543165775867     Delta-E=       -0.000000088266 Rises=F Damp=F
 DIIS: error= 4.32D-05 at cycle  17 NSaved=  17.
 NSaved=17 IEnMin=17 EnMin= -193.543165775867     IErMin=17 ErrMin= 4.32D-05
 ErrMax= 4.32D-05  0.00D+00 EMaxC= 1.00D+00 BMatC= 5.49D-08 BMatP= 1.59D-07
 IDIUse=1 WtCom= 1.00D+00 WtEn= 0.00D+00
 Coeff-Com: -0.496D-04 0.675D-03 0.475D-03-0.269D-02-0.729D-03 0.601D-02
 Coeff-Com: -0.587D-02-0.119D-01 0.528D-01-0.818D-01 0.411D-02 0.281D+00
 Coeff-Com: -0.605D+00 0.483D+00 0.821D+00-0.378D+01 0.384D+01
 Coeff:     -0.496D-04 0.675D-03 0.475D-03-0.269D-02-0.729D-03 0.601D-02
 Coeff:     -0.587D-02-0.119D-01 0.528D-01-0.818D-01 0.411D-02 0.281D+00
 Coeff:     -0.605D+00 0.483D+00 0.821D+00-0.378D+01 0.384D+01
 Gap=     0.149 Goal=   None    Shift=    0.500
 Gap=     0.149 Goal=   None    Shift=    0.500
 RMSDP=1.73D-06 MaxDP=3.88D-05 DE=-8.83D-08 OVMax= 8.84D-05

 Cycle  18  Pass 1  IDiag  1:
 E= -193.543165805741     Delta-E=       -0.000000029874 Rises=F Damp=F
 DIIS: error= 2.65D-05 at cycle  18 NSaved=  18.
 NSaved=18 IEnMin=18 EnMin= -193.543165805741     IErMin=18 ErrMin= 2.65D-05
 ErrMax= 2.65D-05  0.00D+00 EMaxC= 1.00D+00 BMatC= 2.05D-08 BMatP= 5.49D-08
 IDIUse=1 WtCom= 1.00D+00 WtEn= 0.00D+00
 Coeff-Com: -0.270D-04-0.230D-03 0.188D-02-0.281D-02-0.393D-03 0.365D-02
 Coeff-Com: -0.169D-02-0.969D-02 0.268D-01-0.294D-01-0.211D-01 0.125D+00
 Coeff-Com: -0.128D+00-0.551D-01 0.359D+00-0.481D+00-0.147D+01 0.269D+01
 Coeff:     -0.270D-04-0.230D-03 0.188D-02-0.281D-02-0.393D-03 0.365D-02
 Coeff:     -0.169D-02-0.969D-02 0.268D-01-0.294D-01-0.211D-01 0.125D+00
 Coeff:     -0.128D+00-0.551D-01 0.359D+00-0.481D+00-0.147D+01 0.269D+01
 Gap=     0.149 Goal=   None    Shift=    0.500
 Gap=     0.149 Goal=   None    Shift=    0.500
 RMSDP=1.05D-06 MaxDP=2.37D-05 DE=-2.99D-08 OVMax= 5.43D-05

 Cycle  19  Pass 1  IDiag  1:
 E= -193.543165816891     Delta-E=       -0.000000011150 Rises=F Damp=F
 DIIS: error= 1.62D-05 at cycle  19 NSaved=  19.
 NSaved=19 IEnMin=19 EnMin= -193.543165816891     IErMin=19 ErrMin= 1.62D-05
 ErrMax= 1.62D-05  0.00D+00 EMaxC= 1.00D+00 BMatC= 7.61D-09 BMatP= 2.05D-08
 IDIUse=1 WtCom= 1.00D+00 WtEn= 0.00D+00
 Coeff-Com: -0.548D-05-0.107D-03 0.253D-03-0.972D-05-0.954D-03 0.132D-02
 Coeff-Com: -0.360D-03 0.208D-03 0.357D-03-0.639D-02 0.147D-01-0.679D-02
 Coeff-Com: -0.550D-01 0.145D+00-0.945D-01-0.137D+00 0.115D+01-0.399D+01
 Coeff-Com:  0.399D+01
 Coeff:     -0.548D-05-0.107D-03 0.253D-03-0.972D-05-0.954D-03 0.132D-02
 Coeff:     -0.360D-03 0.208D-03 0.357D-03-0.639D-02 0.147D-01-0.679D-02
 Coeff:     -0.550D-01 0.145D+00-0.945D-01-0.137D+00 0.115D+01-0.399D+01
 Coeff:      0.399D+01
 Gap=     0.149 Goal=   None    Shift=    0.500
 Gap=     0.149 Goal=   None    Shift=    0.500
 RMSDP=6.47D-07 MaxDP=1.46D-05 DE=-1.12D-08 OVMax= 3.34D-05

 SCF Done:  E(ULC-wHPBE) =  -193.543165817     A.U. after   19 cycles
            NFock= 19  Conv=0.65D-06     -V/T= 2.0084
 <Sx>= 0.0000 <Sy>= 0.0000 <Sz>= 0.0000 <S**2>=-0.0000 S=-0.0000
 <L.S>= 0.000000000000E+00
 KE= 1.919359761453D+02 PE=-7.384978402576D+02 EE= 2.079967985023D+02
 Annihilation of the first spin contaminant:
 S**2 before annihilation    -0.0000,   after    -0.0000
 Leave Link  502 at Tue Feb 25 12:19:22 2020, MaxMem=  6710886400 cpu:              30.0 elap:               2.0
 (Enter /opt/ohpc/pub/libs/gaussian/g16-A.03/haswell/g16/l508.exe)
 QCSCF skips out because SCF is already converged.
 Leave Link  508 at Tue Feb 25 12:19:22 2020, MaxMem=  6710886400 cpu:               0.1 elap:               0.0
 (Enter /opt/ohpc/pub/libs/gaussian/g16-A.03/haswell/g16/l601.exe)
 Copying SCF densities to generalized density rwf, IOpCl= 1 IROHF=0.

 **********************************************************************

            Population analysis using the SCF density.

 **********************************************************************

 Orbital symmetries:
 Alpha Orbitals:
       Occupied  (B2) (A1) (B2) (A1) (A1) (A1) (B2) (A1) (B2) (A1)
                 (A1) (B2) (B2) (A1) (B1) (A1) (A2) (B1)
       Virtual   (A1) (B2) (A2) (A1) (B1) (B2) (A1) (B2) (A1) (A1)
                 (B2) (A1) (B2) (B2) (B1) (A2) (B1) (A1) (A1) (B2)
                 (A1) (A2) (A1) (B1) (B2) (A1) (B2) (A1) (B2) (A1)
                 (A1) (A1) (B2) (A1) (B2) (B2) (A1) (A1) (B2)
 Beta  Orbitals:
       Occupied  (B2) (A1) (B2) (A1) (A1) (A1) (B2) (A1) (B2) (A1)
                 (A1) (B2) (B2) (A1) (B1) (A1) (A2) (B1)
       Virtual   (A1) (B2) (A2) (A1) (B1) (B2) (A1) (B2) (A1) (A1)
                 (B2) (A1) (B2) (B2) (B1) (A2) (B1) (A1) (A1) (B2)
                 (A1) (A2) (A1) (B1) (B2) (A1) (B2) (A1) (B2) (A1)
                 (A1) (A1) (B2) (A1) (B2) (B2) (A1) (A1) (B2)
 The electronic state is 1-A1.
 Alpha  occ. eigenvalues --  -10.07475 -10.07472 -10.02870 -10.02870  -9.97807
 Alpha  occ. eigenvalues --   -0.86805  -0.79308  -0.71700  -0.63151  -0.57667
 Alpha  occ. eigenvalues --   -0.55930  -0.49308  -0.44962  -0.42111  -0.40506
 Alpha  occ. eigenvalues --   -0.40485  -0.31856  -0.22507
 Alpha virt. eigenvalues --   -0.07622  -0.03494   0.07650   0.17372   0.18147
 Alpha virt. eigenvalues --    0.21121   0.24917   0.25855   0.27397   0.38163
 Alpha virt. eigenvalues --    0.39333   0.47292   0.48404   0.59391   0.59430
 Alpha virt. eigenvalues --    0.68119   0.68318   0.69306   0.69925   0.71637
 Alpha virt. eigenvalues --    0.72449   0.73914   0.76967   0.77447   0.78354
 Alpha virt. eigenvalues --    0.85418   0.90689   0.92680   0.95339   0.97245
 Alpha virt. eigenvalues --    1.01923   1.04405   1.06790   1.12859   1.19209
 Alpha virt. eigenvalues --    1.24598   1.28556   1.52215   1.52907
  Beta  occ. eigenvalues --  -10.07475 -10.07472 -10.02870 -10.02870  -9.97807
  Beta  occ. eigenvalues --   -0.86805  -0.79308  -0.71700  -0.63151  -0.57667
  Beta  occ. eigenvalues --   -0.55930  -0.49308  -0.44962  -0.42111  -0.40506
  Beta  occ. eigenvalues --   -0.40485  -0.31856  -0.22507
  Beta virt. eigenvalues --   -0.07622  -0.03494   0.07650   0.17372   0.18147
  Beta virt. eigenvalues --    0.21121   0.24917   0.25855   0.27397   0.38163
  Beta virt. eigenvalues --    0.39333   0.47292   0.48404   0.59391   0.59430
  Beta virt. eigenvalues --    0.68119   0.68318   0.69306   0.69925   0.71637
  Beta virt. eigenvalues --    0.72449   0.73914   0.76967   0.77447   0.78354
  Beta virt. eigenvalues --    0.85418   0.90689   0.92680   0.95339   0.97245
  Beta virt. eigenvalues --    1.01923   1.04405   1.06790   1.12859   1.19209
  Beta virt. eigenvalues --    1.24598   1.28556   1.52215   1.52907
          Condensed to atoms (all electrons):
               1          2          3          4          5          6
     1  C    5.285866   0.511420  -0.075708  -0.042910   0.146933   0.114837
     2  C    0.511420   4.907674   0.549508  -0.049058  -0.042910  -0.002249
     3  C   -0.075708   0.549508   4.859347   0.549508  -0.075708  -0.000804
     4  C   -0.042910  -0.049058   0.549508   4.907674   0.511420  -0.002249
     5  C    0.146933  -0.042910  -0.075708   0.511420   5.285866   0.114837
     6  H    0.114837  -0.002249  -0.000804  -0.002249   0.114837   0.665073
     7  H    0.348822  -0.037215   0.003292   0.000985  -0.004096  -0.008565
     8  H   -0.037145   0.353780  -0.014613   0.004949   0.000564   0.000226
     9  H    0.006299  -0.042225   0.366705  -0.042225   0.006299  -0.000006
    10  H    0.000564   0.004949  -0.014613   0.353780  -0.037145   0.000226
    11  H   -0.004096   0.000985   0.003292  -0.037215   0.348822  -0.008565
               7          8          9         10         11
     1  C    0.348822  -0.037145   0.006299   0.000564  -0.004096
     2  C   -0.037215   0.353780  -0.042225   0.004949   0.000985
     3  C    0.003292  -0.014613   0.366705  -0.014613   0.003292
     4  C    0.000985   0.004949  -0.042225   0.353780  -0.037215
     5  C   -0.004096   0.000564   0.006299  -0.037145   0.348822
     6  H   -0.008565   0.000226  -0.000006   0.000226  -0.008565
     7  H    0.523006   0.001021  -0.000173  -0.000013   0.000042
     8  H    0.001021   0.504378  -0.004839  -0.000110  -0.000013
     9  H   -0.000173  -0.004839   0.602522  -0.004839  -0.000173
    10  H   -0.000013  -0.000110  -0.004839   0.504378   0.001021
    11  H    0.000042  -0.000013  -0.000173   0.001021   0.523006
          Atomic-Atomic Spin Densities.
               1          2          3          4          5          6
     1  C    0.000000   0.000000   0.000000   0.000000   0.000000   0.000000
     2  C    0.000000   0.000000   0.000000   0.000000   0.000000   0.000000
     3  C    0.000000   0.000000   0.000000   0.000000   0.000000   0.000000
     4  C    0.000000   0.000000   0.000000   0.000000   0.000000   0.000000
     5  C    0.000000   0.000000   0.000000   0.000000   0.000000   0.000000
     6  H    0.000000   0.000000   0.000000   0.000000   0.000000   0.000000
     7  H    0.000000   0.000000   0.000000   0.000000   0.000000   0.000000
     8  H    0.000000   0.000000   0.000000   0.000000   0.000000   0.000000
     9  H    0.000000   0.000000   0.000000   0.000000   0.000000   0.000000
    10  H    0.000000   0.000000   0.000000   0.000000   0.000000   0.000000
    11  H    0.000000   0.000000   0.000000   0.000000   0.000000   0.000000
               7          8          9         10         11
     1  C    0.000000   0.000000   0.000000   0.000000   0.000000
     2  C    0.000000   0.000000   0.000000   0.000000   0.000000
     3  C    0.000000   0.000000   0.000000   0.000000   0.000000
     4  C    0.000000   0.000000   0.000000   0.000000   0.000000
     5  C    0.000000   0.000000   0.000000   0.000000   0.000000
     6  H    0.000000   0.000000   0.000000   0.000000   0.000000
     7  H    0.000000   0.000000   0.000000   0.000000   0.000000
     8  H    0.000000   0.000000   0.000000   0.000000   0.000000
     9  H    0.000000   0.000000   0.000000   0.000000   0.000000
    10  H    0.000000   0.000000   0.000000   0.000000   0.000000
    11  H    0.000000   0.000000   0.000000   0.000000   0.000000
 Mulliken charges and spin densities:
               1          2
     1  C   -0.254883   0.000000
     2  C   -0.154657   0.000000
     3  C   -0.150205   0.000000
     4  C   -0.154657   0.000000
     5  C   -0.254883   0.000000
     6  H    0.127237   0.000000
     7  H    0.172894   0.000000
     8  H    0.191801   0.000000
     9  H    0.112657   0.000000
    10  H    0.191801   0.000000
    11  H    0.172894   0.000000
 Sum of Mulliken charges =  -0.00000   0.00000
 Mulliken charges and spin densities with hydrogens summed into heavy atoms:
               1          2
     1  C    0.045248   0.000000
     2  C    0.037144   0.000000
     3  C   -0.037548   0.000000
     4  C    0.037144   0.000000
     5  C   -0.081989   0.000000
 Electronic spatial extent (au):  <R**2>=            395.7187
 Charge=             -0.0000 electrons
 Dipole moment (field-independent basis, Debye):
    X=             -0.0000    Y=              0.0000    Z=             -1.2081  Tot=              1.2081
 Quadrupole moment (field-independent basis, Debye-Ang):
   XX=            -36.5822   YY=            -23.4991   ZZ=            -24.1877
   XY=              0.0000   XZ=             -0.0000   YZ=             -0.0000
 Traceless Quadrupole moment (field-independent basis, Debye-Ang):
   XX=             -8.4925   YY=              4.5906   ZZ=              3.9020
   XY=              0.0000   XZ=             -0.0000   YZ=             -0.0000
 Octapole moment (field-independent basis, Debye-Ang**2):
  XXX=              0.0000  YYY=              0.0000  ZZZ=            -11.4311  XYY=              0.0000
  XXY=              0.0000  XXZ=              2.5918  XZZ=              0.0000  YZZ=              0.0000
  YYZ=              1.5202  XYZ=             -0.0000
 Hexadecapole moment (field-independent basis, Debye-Ang**3):
 XXXX=            -39.8304 YYYY=           -236.3797 ZZZZ=           -179.5682 XXXY=             -0.0000
 XXXZ=             -0.0000 YYYX=             -0.0000 YYYZ=             -0.0000 ZZZX=             -0.0000
 ZZZY=              0.0000 XXYY=            -62.0594 XXZZ=            -52.5948 YYZZ=            -72.1335
 XXYZ=              0.0000 YYXZ=             -0.0000 ZZXY=             -0.0000
 N-N= 1.450218997931D+02 E-N=-7.384976013109D+02  KE= 1.919359761453D+02
 Symmetry A1   KE= 1.102678972605D+02
 Symmetry A2   KE= 2.320186275904D+00
 Symmetry B1   KE= 4.320540650469D+00
 Symmetry B2   KE= 7.502735195840D+01
 Symmetry A1   SP= 0.000000000000D+00
 Symmetry A2   SP= 0.000000000000D+00
 Symmetry B1   SP= 0.000000000000D+00
 Symmetry B2   SP= 0.000000000000D+00
                          Isotropic Fermi Contact Couplings
        Atom                 a.u.       MegaHertz       Gauss      10(-4) cm-1
     1  C(13)              0.00000       0.00000       0.00000       0.00000
     2  C(13)              0.00000       0.00000       0.00000       0.00000
     3  C(13)              0.00000       0.00000       0.00000       0.00000
     4  C(13)              0.00000       0.00000       0.00000       0.00000
     5  C(13)              0.00000       0.00000       0.00000       0.00000
     6  H(1)               0.00000       0.00000       0.00000       0.00000
     7  H(1)               0.00000       0.00000       0.00000       0.00000
     8  H(1)               0.00000       0.00000       0.00000       0.00000
     9  H(1)               0.00000       0.00000       0.00000       0.00000
    10  H(1)               0.00000       0.00000       0.00000       0.00000
    11  H(1)               0.00000       0.00000       0.00000       0.00000
 --------------------------------------------------------
       Center         ----  Spin Dipole Couplings  ----
                      3XX-RR        3YY-RR        3ZZ-RR
 --------------------------------------------------------
     1   Atom        0.000000      0.000000      0.000000
     2   Atom        0.000000      0.000000      0.000000
     3   Atom        0.000000      0.000000      0.000000
     4   Atom        0.000000      0.000000      0.000000
     5   Atom        0.000000      0.000000      0.000000
     6   Atom        0.000000      0.000000      0.000000
     7   Atom        0.000000      0.000000      0.000000
     8   Atom        0.000000      0.000000      0.000000
     9   Atom        0.000000      0.000000      0.000000
    10   Atom        0.000000      0.000000      0.000000
    11   Atom        0.000000      0.000000      0.000000
 --------------------------------------------------------
                        XY            XZ            YZ
 --------------------------------------------------------
     1   Atom        0.000000      0.000000      0.000000
     2   Atom        0.000000      0.000000      0.000000
     3   Atom        0.000000      0.000000      0.000000
     4   Atom        0.000000      0.000000      0.000000
     5   Atom        0.000000      0.000000      0.000000
     6   Atom        0.000000      0.000000      0.000000
     7   Atom        0.000000      0.000000      0.000000
     8   Atom        0.000000      0.000000      0.000000
     9   Atom        0.000000      0.000000      0.000000
    10   Atom        0.000000      0.000000      0.000000
    11   Atom        0.000000      0.000000      0.000000
 --------------------------------------------------------


 ---------------------------------------------------------------------------------
              Anisotropic Spin Dipole Couplings in Principal Axis System
 ---------------------------------------------------------------------------------

       Atom             a.u.   MegaHertz   Gauss  10(-4) cm-1        Axes

              Baa     0.0000     0.000     0.000     0.000  1.0000  0.0000  0.0000
     1 C(13)  Bbb     0.0000     0.000     0.000     0.000 -0.0000  1.0000  0.0000
              Bcc     0.0000     0.000     0.000     0.000  0.0000  0.0000  1.0000
 
              Baa     0.0000     0.000     0.000     0.000  1.0000  0.0000  0.0000
     2 C(13)  Bbb     0.0000     0.000     0.000     0.000 -0.0000  1.0000  0.0000
              Bcc     0.0000     0.000     0.000     0.000  0.0000  0.0000  1.0000
 
              Baa     0.0000     0.000     0.000     0.000  1.0000  0.0000  0.0000
     3 C(13)  Bbb     0.0000     0.000     0.000     0.000 -0.0000  1.0000  0.0000
              Bcc     0.0000     0.000     0.000     0.000  0.0000  0.0000  1.0000
 
              Baa     0.0000     0.000     0.000     0.000  1.0000  0.0000  0.0000
     4 C(13)  Bbb     0.0000     0.000     0.000     0.000 -0.0000  1.0000  0.0000
              Bcc     0.0000     0.000     0.000     0.000  0.0000  0.0000  1.0000
 
              Baa     0.0000     0.000     0.000     0.000  1.0000  0.0000  0.0000
     5 C(13)  Bbb     0.0000     0.000     0.000     0.000 -0.0000  1.0000  0.0000
              Bcc     0.0000     0.000     0.000     0.000  0.0000  0.0000  1.0000
 
              Baa     0.0000     0.000     0.000     0.000  1.0000  0.0000  0.0000
     6 H(1)   Bbb     0.0000     0.000     0.000     0.000 -0.0000  1.0000  0.0000
              Bcc     0.0000     0.000     0.000     0.000  0.0000  0.0000  1.0000
 
              Baa     0.0000     0.000     0.000     0.000  1.0000  0.0000  0.0000
     7 H(1)   Bbb     0.0000     0.000     0.000     0.000 -0.0000  1.0000  0.0000
              Bcc     0.0000     0.000     0.000     0.000  0.0000  0.0000  1.0000
 
              Baa     0.0000     0.000     0.000     0.000  1.0000  0.0000  0.0000
     8 H(1)   Bbb     0.0000     0.000     0.000     0.000 -0.0000  1.0000  0.0000
              Bcc     0.0000     0.000     0.000     0.000  0.0000  0.0000  1.0000
 
              Baa     0.0000     0.000     0.000     0.000  1.0000  0.0000  0.0000
     9 H(1)   Bbb     0.0000     0.000     0.000     0.000 -0.0000  1.0000  0.0000
              Bcc     0.0000     0.000     0.000     0.000  0.0000  0.0000  1.0000
 
              Baa     0.0000     0.000     0.000     0.000  1.0000  0.0000  0.0000
    10 H(1)   Bbb     0.0000     0.000     0.000     0.000 -0.0000  1.0000  0.0000
              Bcc     0.0000     0.000     0.000     0.000  0.0000  0.0000  1.0000
 
              Baa     0.0000     0.000     0.000     0.000  1.0000  0.0000  0.0000
    11 H(1)   Bbb     0.0000     0.000     0.000     0.000 -0.0000  1.0000  0.0000
              Bcc     0.0000     0.000     0.000     0.000  0.0000  0.0000  1.0000
 

 ---------------------------------------------------------------------------------

 No NMR shielding tensors so no spin-rotation constants.
 Leave Link  601 at Tue Feb 25 12:19:22 2020, MaxMem=  6710886400 cpu:               3.8 elap:               0.3
 (Enter /opt/ohpc/pub/libs/gaussian/g16-A.03/haswell/g16/l9999.exe)

 Test job not archived.
 1\1\GINC-HASWELL008\SP\ULC-wHPBE\6-31G\C5H6\SMGO234\25-Feb-2020\0\\#P 
 uLC-wHPBE/6-31G iop(3/107=0221900000, 3/108=0221900000) scf=(conver=6,
 fermi,ndamp=35,noincfock,novaracc,vshift=500,xqc)\\H6 C5\\0,1\C,0,-1.2
 06512,0.69658,0.\C,0,-1.206512,-0.69658,0.\C,0,0.,-1.39316,0.\C,0,1.20
 6512,-0.69658,0.\C,0,1.206512,0.69658,0.\H,0,0.,2.482681,0.\H,0,-2.150
 065,1.24134,0.\H,0,-2.150065,-1.24134,0.\H,0,0.,-2.482681,0.\H,0,2.150
 065,-1.24134,0.\H,0,2.150065,1.24134,0.\\Version=ES64L-G16RevA.03\Stat
 e=1-A1\HF=-193.5431658\S2=0.\S2-1=0.\S2A=0.\RMSD=6.472e-07\Dipole=0.,0
 .4752927,0.\Quadrupole=3.4129708,2.9010196,-6.3139903,0.,0.,0.\PG=C02V
  [C2(H1C1H1),SGV(C4H4)]\\@


 TOM, TOM, THE BURGLAR'S SON
 STOLE A MACHINE AND AWAY HE RUN
 THE JOB WAS NEAT, BUT TOM GOT BEAT
 BY THE TIME HE GOT HOME IT WAS OBSOLETE.
 Job cpu time:       0 days  0 hours  1 minutes  3.7 seconds.
 Elapsed time:       0 days  0 hours  0 minutes  4.6 seconds.
 File lengths (MBytes):  RWF=    272 Int=      0 D2E=      0 Chk=     32 Scr=     32
 Normal termination of Gaussian 16 at Tue Feb 25 12:19:23 2020.
