 Entering Gaussian System, Link 0=g16
 Input=1b_tune_c3.gjf
 Output=1b_tune_c3.log
 Initial command:
 /opt/ohpc/pub/libs/gaussian/g16-A.03/haswell/g16/l1.exe "/scratch/smgo234/Ocelot/test/1b/tuning_1b_ocycle0/Gau-33716.inp" -scrdir="/scratch/smgo234/Ocelot/test/1b/tuning_1b_ocycle0/"
 Entering Link 1 = /opt/ohpc/pub/libs/gaussian/g16-A.03/haswell/g16/l1.exe PID=     33717.
  
 Copyright (c) 1988,1990,1992,1993,1995,1998,2003,2009,2016,
            Gaussian, Inc.  All Rights Reserved.
  
 This is part of the Gaussian(R) 16 program.  It is based on
 the Gaussian(R) 09 system (copyright 2009, Gaussian, Inc.),
 the Gaussian(R) 03 system (copyright 2003, Gaussian, Inc.),
 the Gaussian(R) 98 system (copyright 1998, Gaussian, Inc.),
 the Gaussian(R) 94 system (copyright 1995, Gaussian, Inc.),
 the Gaussian 92(TM) system (copyright 1992, Gaussian, Inc.),
 the Gaussian 90(TM) system (copyright 1990, Gaussian, Inc.),
 the Gaussian 88(TM) system (copyright 1988, Gaussian, Inc.),
 the Gaussian 86(TM) system (copyright 1986, Carnegie Mellon
 University), and the Gaussian 82(TM) system (copyright 1983,
 Carnegie Mellon University). Gaussian is a federally registered
 trademark of Gaussian, Inc.
  
 This software contains proprietary and confidential information,
 including trade secrets, belonging to Gaussian, Inc.
  
 This software is provided under written license and may be
 used, copied, transmitted, or stored only in accord with that
 written license.
  
 The following legend is applicable only to US Government
 contracts under FAR:
  
                    RESTRICTED RIGHTS LEGEND
  
 Use, reproduction and disclosure by the US Government is
 subject to restrictions as set forth in subparagraphs (a)
 and (c) of the Commercial Computer Software - Restricted
 Rights clause in FAR 52.227-19.
  
 Gaussian, Inc.
 340 Quinnipiac St., Bldg. 40, Wallingford CT 06492
  
  
 ---------------------------------------------------------------
 Warning -- This program may not be used in any manner that
 competes with the business of Gaussian, Inc. or will provide
 assistance to any competitor of Gaussian, Inc.  The licensee
 of this program is prohibited from giving any competitor of
 Gaussian, Inc. access to this program.  By using this program,
 the user acknowledges that Gaussian, Inc. is engaged in the
 business of creating and licensing software in the field of
 computational chemistry and represents and warrants to the
 licensee that it is not a competitor of Gaussian, Inc. and that
 it will not use this program in any manner prohibited above.
 ---------------------------------------------------------------
  

 Cite this work as:
 Gaussian 16, Revision A.03,
 M. J. Frisch, G. W. Trucks, H. B. Schlegel, G. E. Scuseria, 
 M. A. Robb, J. R. Cheeseman, G. Scalmani, V. Barone, 
 G. A. Petersson, H. Nakatsuji, X. Li, M. Caricato, A. V. Marenich, 
 J. Bloino, B. G. Janesko, R. Gomperts, B. Mennucci, H. P. Hratchian, 
 J. V. Ortiz, A. F. Izmaylov, J. L. Sonnenberg, D. Williams-Young, 
 F. Ding, F. Lipparini, F. Egidi, J. Goings, B. Peng, A. Petrone, 
 T. Henderson, D. Ranasinghe, V. G. Zakrzewski, J. Gao, N. Rega, 
 G. Zheng, W. Liang, M. Hada, M. Ehara, K. Toyota, R. Fukuda, 
 J. Hasegawa, M. Ishida, T. Nakajima, Y. Honda, O. Kitao, H. Nakai, 
 T. Vreven, K. Throssell, J. A. Montgomery, Jr., J. E. Peralta, 
 F. Ogliaro, M. J. Bearpark, J. J. Heyd, E. N. Brothers, K. N. Kudin, 
 V. N. Staroverov, T. A. Keith, R. Kobayashi, J. Normand, 
 K. Raghavachari, A. P. Rendell, J. C. Burant, S. S. Iyengar, 
 J. Tomasi, M. Cossi, J. M. Millam, M. Klene, C. Adamo, R. Cammi, 
 J. W. Ochterski, R. L. Martin, K. Morokuma, O. Farkas, 
 J. B. Foresman, and D. J. Fox, Gaussian, Inc., Wallingford CT, 2016.
 
 ******************************************
 Gaussian 16:  ES64L-G16RevA.03 25-Dec-2016
                25-Feb-2020 
 ******************************************
 %mem=50GB
 %nproc=16
 Will use up to   16 processors via shared memory.
 ----------------------------------------------------------------------
 #P uLC-wHPBE/6-31G iop(3/107=0280700000, 3/108=0280700000) scf=(conver
 =6,fermi,ndamp=35,noincfock,novaracc,vshift=500,xqc)
 ----------------------------------------------------------------------
 1/38=1,172=1/1;
 2/12=2,17=6,18=5,40=1/2;
 3/5=1,6=6,11=2,25=1,30=1,74=-71,107=280700000,108=280700000,116=2/1,2,3;
 4//1;
 5/5=100002,6=6,8=3,10=500,13=1,18=-1,22=13,38=1,93=35/2,8;
 6/7=2,8=2,9=2,10=2,28=1/1;
 99/5=1,9=1/99;
 Leave Link    1 at Tue Feb 25 12:19:48 2020, MaxMem=  6710886400 cpu:               9.4 elap:               0.6
 (Enter /opt/ohpc/pub/libs/gaussian/g16-A.03/haswell/g16/l101.exe)
 -----
 H6 C5
 -----
 Symbolic Z-matrix:
 Charge =  1 Multiplicity = 2
 C                    -1.20651   0.69658   0. 
 C                    -1.20651  -0.69658   0. 
 C                     0.       -1.39316   0. 
 C                     1.20651  -0.69658   0. 
 C                     1.20651   0.69658   0. 
 H                     0.        2.48268   0. 
 H                    -2.15007   1.24134   0. 
 H                    -2.15007  -1.24134   0. 
 H                     0.       -2.48268   0. 
 H                     2.15007  -1.24134   0. 
 H                     2.15007   1.24134   0. 
 
 ITRead=  0  0  0  0  0  0  0  0  0  0  0
 MicOpt= -1 -1 -1 -1 -1 -1 -1 -1 -1 -1 -1
 NAtoms=     11 NQM=       11 NQMF=       0 NMMI=      0 NMMIF=      0
                NMic=       0 NMicF=      0.
                    Isotopes and Nuclear Properties:
 (Nuclear quadrupole moments (NQMom) in fm**2, nuclear magnetic moments (NMagM)
  in nuclear magnetons)

  Atom         1           2           3           4           5           6           7           8           9          10
 IAtWgt=          12          12          12          12          12           1           1           1           1           1
 AtmWgt=  12.0000000  12.0000000  12.0000000  12.0000000  12.0000000   1.0078250   1.0078250   1.0078250   1.0078250   1.0078250
 NucSpn=           0           0           0           0           0           1           1           1           1           1
 AtZEff=  -0.0000000  -0.0000000  -0.0000000  -0.0000000  -0.0000000  -0.0000000  -0.0000000  -0.0000000  -0.0000000  -0.0000000
 NQMom=    0.0000000   0.0000000   0.0000000   0.0000000   0.0000000   0.0000000   0.0000000   0.0000000   0.0000000   0.0000000
 NMagM=    0.0000000   0.0000000   0.0000000   0.0000000   0.0000000   2.7928460   2.7928460   2.7928460   2.7928460   2.7928460
 AtZNuc=   6.0000000   6.0000000   6.0000000   6.0000000   6.0000000   1.0000000   1.0000000   1.0000000   1.0000000   1.0000000

  Atom        11
 IAtWgt=           1
 AtmWgt=   1.0078250
 NucSpn=           1
 AtZEff=  -0.0000000
 NQMom=    0.0000000
 NMagM=    2.7928460
 AtZNuc=   1.0000000
 Leave Link  101 at Tue Feb 25 12:19:48 2020, MaxMem=  6710886400 cpu:               1.9 elap:               0.1
 (Enter /opt/ohpc/pub/libs/gaussian/g16-A.03/haswell/g16/l202.exe)
                          Input orientation:                          
 ---------------------------------------------------------------------
 Center     Atomic      Atomic             Coordinates (Angstroms)
 Number     Number       Type             X           Y           Z
 ---------------------------------------------------------------------
      1          6           0       -1.206512    0.696580    0.000000
      2          6           0       -1.206512   -0.696580    0.000000
      3          6           0        0.000000   -1.393160    0.000000
      4          6           0        1.206512   -0.696580    0.000000
      5          6           0        1.206512    0.696580    0.000000
      6          1           0        0.000000    2.482681    0.000000
      7          1           0       -2.150065    1.241340    0.000000
      8          1           0       -2.150065   -1.241340    0.000000
      9          1           0        0.000000   -2.482681    0.000000
     10          1           0        2.150065   -1.241340    0.000000
     11          1           0        2.150065    1.241340    0.000000
 ---------------------------------------------------------------------
                    Distance matrix (angstroms):
                    1          2          3          4          5
     1  C    0.000000
     2  C    1.393160   0.000000
     3  C    2.413024   1.393160   0.000000
     4  C    2.786320   2.413024   1.393160   0.000000
     5  C    2.413024   2.786320   2.413024   1.393160   0.000000
     6  H    2.155418   3.400496   3.875841   3.400496   2.155418
     7  H    1.089521   2.155418   3.400496   3.875841   3.400496
     8  H    2.155418   1.089521   2.155418   3.400496   3.875841
     9  H    3.400496   2.155418   1.089521   2.155418   3.400496
    10  H    3.875841   3.400496   2.155418   1.089521   2.155418
    11  H    3.400496   3.875841   3.400496   2.155418   1.089521
                    6          7          8          9         10
     6  H    0.000000
     7  H    2.482681   0.000000
     8  H    4.300129   2.482680   0.000000
     9  H    4.965362   4.300129   2.482681   0.000000
    10  H    4.300129   4.965362   4.300130   2.482681   0.000000
    11  H    2.482681   4.300130   4.965362   4.300129   2.482680
                   11
    11  H    0.000000
 Stoichiometry    C5H6(1+,2)
 Framework group  C2V[C2(HCH),SGV(C4H4)]
 Deg. of freedom    10
 Full point group                 C2V     NOp   4
 Largest Abelian subgroup         C2V     NOp   4
 Largest concise Abelian subgroup C2      NOp   2
                         Standard orientation:                         
 ---------------------------------------------------------------------
 Center     Atomic      Atomic             Coordinates (Angstroms)
 Number     Number       Type             X           Y           Z
 ---------------------------------------------------------------------
      1          6           0       -0.000000    1.206512   -0.928773
      2          6           0       -0.000000    1.206512    0.464387
      3          6           0        0.000000    0.000000    1.160967
      4          6           0       -0.000000   -1.206512    0.464387
      5          6           0       -0.000000   -1.206512   -0.928773
      6          1           0       -0.000000   -0.000000   -2.714874
      7          1           0       -0.000000    2.150065   -1.473533
      8          1           0       -0.000000    2.150065    1.009147
      9          1           0        0.000000    0.000000    2.250488
     10          1           0       -0.000000   -2.150065    1.009147
     11          1           0       -0.000000   -2.150065   -1.473533
 ---------------------------------------------------------------------
 Rotational constants (GHZ):           8.2868568           5.7099792           3.3806054
 Leave Link  202 at Tue Feb 25 12:19:48 2020, MaxMem=  6710886400 cpu:               0.2 elap:               0.0
 (Enter /opt/ohpc/pub/libs/gaussian/g16-A.03/haswell/g16/l301.exe)
 Standard basis: 6-31G (6D, 7F)
 Ernie: Thresh=  0.10000D-02 Tol=  0.10000D-05 Strict=F.
 There are    27 symmetry adapted cartesian basis functions of A1  symmetry.
 There are     4 symmetry adapted cartesian basis functions of A2  symmetry.
 There are     6 symmetry adapted cartesian basis functions of B1  symmetry.
 There are    20 symmetry adapted cartesian basis functions of B2  symmetry.
 There are    27 symmetry adapted basis functions of A1  symmetry.
 There are     4 symmetry adapted basis functions of A2  symmetry.
 There are     6 symmetry adapted basis functions of B1  symmetry.
 There are    20 symmetry adapted basis functions of B2  symmetry.
    57 basis functions,   134 primitive gaussians,    57 cartesian basis functions
    18 alpha electrons       17 beta electrons
       nuclear repulsion energy       145.0218997931 Hartrees.
 IExCor=33909 DFT=T Ex+Corr=LC-wHPBE ExCW=0 ScaHFX=  1.000000
 ScaDFX=  1.000000  1.000000  1.000000  1.000000 ScalE2=  1.000000  1.000000
 IRadAn=      5 IRanWt=     -1 IRanGd=            0 ICorTp=0 IEmpDi=  4
 HFx  wShort=  0.000000 wLong=  0.280700 cFull=  0.000000 cShort=  0.000000 cLong=  1.000000
 DFx  wShort=  0.000000 wLong=  0.280700 cFull=  0.000000 cShort=  1.000000 cLong=  0.000000
 NAtoms=   11 NActive=   11 NUniq=    7 SFac= 2.47D+00 NAtFMM=   60 NAOKFM=F Big=F
 Integral buffers will be    131072 words long.
 Raffenetti 2 integral format.
 Two-electron integral symmetry is turned on.
 Leave Link  301 at Tue Feb 25 12:19:48 2020, MaxMem=  6710886400 cpu:               1.1 elap:               0.1
 (Enter /opt/ohpc/pub/libs/gaussian/g16-A.03/haswell/g16/l302.exe)
 NPDir=0 NMtPBC=     1 NCelOv=     1 NCel=       1 NClECP=     1 NCelD=      1
         NCelK=      1 NCelE2=     1 NClLst=     1 CellRange=     0.0.
 One-electron integrals computed using PRISM.
 One-electron integral symmetry used in STVInt
 NBasis=    57 RedAO= T EigKep=  2.88D-03  NBF=    27     4     6    20
 NBsUse=    57 1.00D-06 EigRej= -1.00D+00 NBFU=    27     4     6    20
 Precomputing XC quadrature grid using
 IXCGrd= 4 IRadAn=           5 IRanWt=          -1 IRanGd=           0 AccXCQ= 0.00D+00.
 Generated NRdTot=       0 NPtTot=           0 NUsed=           0 NTot=          32
 NSgBfM=    57    57    57    57    57 MxSgAt=    11 MxSgA2=    11.
 Leave Link  302 at Tue Feb 25 12:19:49 2020, MaxMem=  6710886400 cpu:               3.8 elap:               0.3
 (Enter /opt/ohpc/pub/libs/gaussian/g16-A.03/haswell/g16/l303.exe)
 DipDrv:  MaxL=1.
 Leave Link  303 at Tue Feb 25 12:19:49 2020, MaxMem=  6710886400 cpu:               0.5 elap:               0.1
 (Enter /opt/ohpc/pub/libs/gaussian/g16-A.03/haswell/g16/l401.exe)
 ExpMin= 1.61D-01 ExpMax= 3.05D+03 ExpMxC= 4.57D+02 IAcc=3 IRadAn=         5 AccDes= 0.00D+00
 Harris functional with IExCor=33909 and IRadAn=       5 diagonalized for initial guess.
 HarFok:  IExCor=33909 AccDes= 0.00D+00 IRadAn=         5 IDoV= 1 UseB2=F ITyADJ=14
 ICtDFT=  3500011 ScaDFX=  1.000000  1.000000  1.000000  1.000000
 FoFCou: FMM=F IPFlag=           0 FMFlag=      100000 FMFlg1=           0
         NFxFlg=           0 DoJE=T BraDBF=F KetDBF=T FulRan=T
         wScrn=  0.000000 ICntrl=       500 IOpCl=  0 I1Cent=   200000004 NGrid=           0
         NMat0=    1 NMatS0=      1 NMatT0=    0 NMatD0=    1 NMtDS0=    0 NMtDT0=    0
 Petite list used in FoFCou.
 Harris En= -188.323735035560    
 JPrj=0 DoOrth=F DoCkMO=F.
 Initial guess orbital symmetries:
 Alpha Orbitals:
       Occupied  (A1) (B2) (A1) (B2) (A1) (A1) (B2) (A1) (B2) (A1)
                 (A1) (B2) (B2) (A1) (B1) (A1) (A2) (B1)
       Virtual   (B2) (A1) (A2) (B1) (A1) (B2) (A1) (B2) (A1) (A1)
                 (B2) (A1) (B2) (B1) (B2) (A1) (B1) (A1) (A2) (B2)
                 (A1) (A2) (B1) (B2) (A1) (A1) (B2) (A1) (B2) (A1)
                 (A1) (B2) (A1) (A1) (B2) (B2) (A1) (A1) (B2)
 Beta  Orbitals:
       Occupied  (A1) (B2) (A1) (B2) (A1) (A1) (B2) (A1) (B2) (A1)
                 (A1) (B2) (B2) (A1) (B1) (A1) (A2)
       Virtual   (B1) (B2) (A1) (A2) (B1) (A1) (B2) (A1) (B2) (A1)
                 (A1) (B2) (A1) (B2) (B1) (B2) (A1) (B1) (A1) (A2)
                 (B2) (A1) (A2) (B1) (B2) (A1) (A1) (B2) (A1) (B2)
                 (A1) (A1) (B2) (A1) (A1) (B2) (B2) (A1) (A1) (B2)
 The electronic state of the initial guess is 2-B1.
 Initial guess <Sx>= 0.0000 <Sy>= 0.0000 <Sz>= 0.5000 <S**2>= 0.7500 S= 0.5000
 Leave Link  401 at Tue Feb 25 12:19:49 2020, MaxMem=  6710886400 cpu:               4.2 elap:               0.3
 (Enter /opt/ohpc/pub/libs/gaussian/g16-A.03/haswell/g16/l502.exe)
 Keep R1 and R2 ints in memory in symmetry-blocked form, NReq=16815659.
 FoFCou: FMM=F IPFlag=           0 FMFlag=           0 FMFlg1=           0
         NFxFlg=           0 DoJE=F BraDBF=F KetDBF=F FulRan=T
         wScrn=  0.000000 ICntrl=       600 IOpCl=  0 I1Cent=           0 NGrid=           0
         NMat0=    1 NMatS0=   1653 NMatT0=    0 NMatD0=    1 NMtDS0=    0 NMtDT0=    0
 Petite list used in FoFCou.
 UHF open shell SCF:
 Using DIIS extrapolation, IDIIS=    10.
 NGot=  6710886400 LenX=  6710059583 LenY=  6710055893
 Requested convergence on RMS density matrix=1.00D-06 within  32 cycles.
 Requested convergence on MAX density matrix=1.00D-04.
 Requested convergence on             energy=1.00D-04.
 Virtual orbitals will be shifted by   0.500 hartree.
 No special actions if energy rises.
 Dynamic level shift is on during FON iterations.

 Cycle   1  Pass 1  IDiag  1:
 E= -193.192832548360    
 DIIS: error= 5.82D-02 at cycle   1 NSaved=   1.
 NSaved= 1 IEnMin= 1 EnMin= -193.192832548360     IErMin= 1 ErrMin= 5.82D-02
 ErrMax= 5.82D-02  0.00D+00 EMaxC= 1.00D+00 BMatC= 2.91D-01 BMatP= 2.91D-01
 IDIUse=1 WtCom= 1.00D+00 WtEn= 0.00D+00
 Coeff-Com:  0.100D+01
 Coeff:      0.100D+01
 Gap=     0.072 Goal=   None    Shift=    0.500
 T= 1894. Gap= 0.530 NK=0 IS=   19 IE=   57 IFin=   18
          NO(<0.9)=   0  NV(>0.1)=   0     18.00e < EF      0.00e >EF  Err=0.0D+00
 Gap=     0.097 Goal=   None    Shift=    0.500
 T= 1894. Gap= 0.603 NK=0 IS=   18 IE=   57 IFin=   17
          NO(<0.9)=   0  NV(>0.1)=   0     17.00e < EF      0.00e >EF  Err=0.0D+00
 GapD=    0.072 DampG=0.500 DampE=0.500 DampFc=0.2500 IDamp=-1.
 Damping current iteration by 2.50D-01
 RMSDP=7.73D-03 MaxDP=6.06D-02              OVMax= 1.24D-01

 Cycle   2  Pass 1  IDiag  1:
 E= -193.229178799743     Delta-E=       -0.036346251383 Rises=F Damp=T
 DIIS: error= 4.30D-02 at cycle   2 NSaved=   2.
 NSaved= 2 IEnMin= 2 EnMin= -193.229178799743     IErMin= 2 ErrMin= 4.30D-02
 ErrMax= 4.30D-02  0.00D+00 EMaxC= 1.00D+00 BMatC= 1.43D-01 BMatP= 2.91D-01
 IDIUse=1 WtCom= 1.00D+00 WtEn= 0.00D+00
 Coeff-Com: -0.203D+01 0.303D+01
 Coeff:     -0.203D+01 0.303D+01
 Gap=     0.171 Goal=   None    Shift=    0.500
 T= 1839. Gap= 0.651 NK=4 IS=   19 IE=   24 IFin=   18
          NO(<0.9)=   0  NV(>0.1)=   0     18.00e < EF      0.00e >EF  Err=0.0D+00
 Gap=     0.203 Goal=   None    Shift=    0.500
 T= 1839. Gap= 0.705 NK=4 IS=   18 IE=   21 IFin=   17
          NO(<0.9)=   0  NV(>0.1)=   0     17.00e < EF      0.00e >EF  Err=0.0D+00
 GapD=    0.171 DampG=1.000 DampE=0.500 DampFc=0.5000 IDamp=-1.
 Damping current iteration by 5.00D-01
 RMSDP=6.31D-03 MaxDP=5.21D-02 DE=-3.63D-02 OVMax= 5.10D-02

 Cycle   3  Pass 1  IDiag  1:
 E= -193.273486389792     Delta-E=       -0.044307590049 Rises=F Damp=T
 DIIS: error= 2.33D-02 at cycle   3 NSaved=   3.
 NSaved= 3 IEnMin= 3 EnMin= -193.273486389792     IErMin= 3 ErrMin= 2.33D-02
 ErrMax= 2.33D-02  0.00D+00 EMaxC= 1.00D+00 BMatC= 3.16D-02 BMatP= 1.43D-01
 IDIUse=1 WtCom= 1.00D+00 WtEn= 0.00D+00
 Coeff-Com:  0.103D+01-0.262D+01 0.259D+01
 Coeff:      0.103D+01-0.262D+01 0.259D+01
 Gap=     0.201 Goal=   None    Shift=    0.500
 T= 1691. Gap= 0.701 NK=4 IS=   19 IE=   24 IFin=   18
          NO(<0.9)=   0  NV(>0.1)=   0     18.00e < EF      0.00e >EF  Err=0.0D+00
 Gap=     0.256 Goal=   None    Shift=    0.500
 T= 1691. Gap= 0.756 NK=4 IS=   18 IE=   21 IFin=   17
          NO(<0.9)=   0  NV(>0.1)=   0     17.00e < EF      0.00e >EF  Err=0.0D+00
 GapD=    0.201 DampG=1.000 DampE=0.500 DampFc=0.5000 IDamp=-1.
 Damping current iteration by 5.00D-01
 RMSDP=3.19D-03 MaxDP=2.60D-02 DE=-4.43D-02 OVMax= 2.25D-02

 Cycle   4  Pass 1  IDiag  1:
 E= -193.292094144044     Delta-E=       -0.018607754252 Rises=F Damp=T
 DIIS: error= 1.37D-02 at cycle   4 NSaved=   4.
 NSaved= 4 IEnMin= 4 EnMin= -193.292094144044     IErMin= 4 ErrMin= 1.37D-02
 ErrMax= 1.37D-02  0.00D+00 EMaxC= 1.00D+00 BMatC= 8.76D-03 BMatP= 3.16D-02
 IDIUse=1 WtCom= 1.00D+00 WtEn= 0.00D+00
 Coeff-Com:  0.326D+00-0.955D-01-0.223D+01 0.299D+01
 Coeff:      0.326D+00-0.955D-01-0.223D+01 0.299D+01
 Gap=     0.215 Goal=   None    Shift=    0.500
 T= 1425. Gap= 0.715 NK=4 IS=   19 IE=   24 IFin=   18
          NO(<0.9)=   0  NV(>0.1)=   0     18.00e < EF      0.00e >EF  Err=0.0D+00
 Gap=     0.268 Goal=   None    Shift=    0.500
 T= 1425. Gap= 0.768 NK=4 IS=   18 IE=   21 IFin=   17
          NO(<0.9)=   0  NV(>0.1)=   0     17.00e < EF      0.00e >EF  Err=0.0D+00
 GapD=    0.215 DampG=1.000 DampE=0.500 DampFc=0.5000 IDamp=-1.
 Damping current iteration by 5.00D-01
 RMSDP=1.80D-03 MaxDP=1.86D-02 DE=-1.86D-02 OVMax= 1.56D-02

 Cycle   5  Pass 1  IDiag  1:
 E= -193.301176005512     Delta-E=       -0.009081861468 Rises=F Damp=T
 DIIS: error= 9.09D-03 at cycle   5 NSaved=   5.
 NSaved= 5 IEnMin= 5 EnMin= -193.301176005512     IErMin= 5 ErrMin= 9.09D-03
 ErrMax= 9.09D-03  0.00D+00 EMaxC= 1.00D+00 BMatC= 3.10D-03 BMatP= 8.76D-03
 IDIUse=1 WtCom= 1.00D+00 WtEn= 0.00D+00
 Coeff-Com: -0.355D+00 0.761D+00 0.191D+00-0.377D+01 0.417D+01
 Coeff:     -0.355D+00 0.761D+00 0.191D+00-0.377D+01 0.417D+01
 Gap=     0.220 Goal=   None    Shift=    0.500
 T= 1094. Gap= 0.720 NK=4 IS=   19 IE=   24 IFin=   18
          NO(<0.9)=   0  NV(>0.1)=   0     18.00e < EF      0.00e >EF  Err=0.0D+00
 Gap=     0.272 Goal=   None    Shift=    0.500
 T= 1094. Gap= 0.772 NK=4 IS=   18 IE=   21 IFin=   17
          NO(<0.9)=   0  NV(>0.1)=   0     17.00e < EF      0.00e >EF  Err=0.0D+00
 GapD=    0.220 DampG=1.000 DampE=1.000 DampFc=1.0000 IDamp=-1.
 RMSDP=1.29D-03 MaxDP=1.57D-02 DE=-9.08D-03 OVMax= 1.64D-02

 Cycle   6  Pass 1  IDiag  1:
 E= -193.311237443558     Delta-E=       -0.010061438046 Rises=F Damp=F
 DIIS: error= 3.54D-03 at cycle   6 NSaved=   6.
 NSaved= 6 IEnMin= 6 EnMin= -193.311237443558     IErMin= 6 ErrMin= 3.54D-03
 ErrMax= 3.54D-03  0.00D+00 EMaxC= 1.00D+00 BMatC= 3.45D-04 BMatP= 3.10D-03
 IDIUse=1 WtCom= 1.00D+00 WtEn= 0.00D+00
 Coeff-Com:  0.150D+00-0.421D+00 0.435D+00 0.166D+01-0.339D+01 0.256D+01
 Coeff:      0.150D+00-0.421D+00 0.435D+00 0.166D+01-0.339D+01 0.256D+01
 Gap=     0.222 Goal=   None    Shift=    0.500
 T=  758. Gap= 0.722 NK=4 IS=   19 IE=   24 IFin=   18
          NO(<0.9)=   0  NV(>0.1)=   0     18.00e < EF      0.00e >EF  Err=0.0D+00
 Gap=     0.271 Goal=   None    Shift=    0.500
 T=  758. Gap= 0.772 NK=4 IS=   18 IE=   21 IFin=   17
          NO(<0.9)=   0  NV(>0.1)=   0     17.00e < EF      0.00e >EF  Err=0.0D+00
 GapD=    0.222 DampG=1.000 DampE=1.000 DampFc=1.0000 IDamp=-1.
 RMSDP=3.77D-04 MaxDP=5.08D-03 DE=-1.01D-02 OVMax= 1.47D-02

 Cycle   7  Pass 1  IDiag  1:
 E= -193.311788496510     Delta-E=       -0.000551052953 Rises=F Damp=F
 DIIS: error= 2.64D-03 at cycle   7 NSaved=   7.
 NSaved= 7 IEnMin= 7 EnMin= -193.311788496510     IErMin= 7 ErrMin= 2.64D-03
 ErrMax= 2.64D-03  0.00D+00 EMaxC= 1.00D+00 BMatC= 1.68D-04 BMatP= 3.45D-04
 IDIUse=1 WtCom= 1.00D+00 WtEn= 0.00D+00
 Coeff-Com:  0.383D-01-0.311D-01-0.334D+00 0.624D+00-0.782D-01-0.217D+01
 Coeff-Com:  0.296D+01
 Coeff:      0.383D-01-0.311D-01-0.334D+00 0.624D+00-0.782D-01-0.217D+01
 Coeff:      0.296D+01
 Gap=     0.224 Goal=   None    Shift=    0.500
 T=  432. Gap= 0.724 NK=4 IS=   19 IE=   24 IFin=   18
          NO(<0.9)=   0  NV(>0.1)=   0     18.00e < EF      0.00e >EF  Err=0.0D+00
 Gap=     0.271 Goal=   None    Shift=    0.500
 T=  432. Gap= 0.772 NK=4 IS=   18 IE=   21 IFin=   17
          NO(<0.9)=   0  NV(>0.1)=   0     17.00e < EF      0.00e >EF  Err=0.0D+00
 GapD=    0.224 DampG=1.000 DampE=1.000 DampFc=1.0000 IDamp=-1.
 RMSDP=3.03D-04 MaxDP=4.45D-03 DE=-5.51D-04 OVMax= 1.27D-02

 Cycle   8  Pass 1  IDiag  1:
 E= -193.312112724283     Delta-E=       -0.000324227772 Rises=F Damp=F
 DIIS: error= 1.80D-03 at cycle   8 NSaved=   8.
 NSaved= 8 IEnMin= 8 EnMin= -193.312112724283     IErMin= 8 ErrMin= 1.80D-03
 ErrMax= 1.80D-03  0.00D+00 EMaxC= 1.00D+00 BMatC= 8.60D-05 BMatP= 1.68D-04
 IDIUse=1 WtCom= 1.00D+00 WtEn= 0.00D+00
 Coeff-Com: -0.303D-01 0.104D+00-0.190D+00-0.424D+00 0.109D+01-0.164D+01
 Coeff-Com:  0.591D+00 0.150D+01
 Coeff:     -0.303D-01 0.104D+00-0.190D+00-0.424D+00 0.109D+01-0.164D+01
 Coeff:      0.591D+00 0.150D+01
 Gap=     0.226 Goal=   None    Shift=    0.500
 T=   43. Gap= 0.726 NK=4 IS=   19 IE=   24 IFin=   18
          NO(<0.9)=   0  NV(>0.1)=   0     18.00e < EF      0.00e >EF  Err=0.0D+00
 Gap=     0.271 Goal=   None    Shift=    0.500
 T=   43. Gap= 0.771 NK=4 IS=   18 IE=   21 IFin=   17
          NO(<0.9)=   0  NV(>0.1)=   0     17.00e < EF      0.00e >EF  Err=0.0D+00
 GapD=    0.226 DampG=1.000 DampE=1.000 DampFc=1.0000 IDamp=-1.
 RMSDP=2.01D-04 MaxDP=2.57D-03 DE=-3.24D-04 OVMax= 8.54D-03

 Cycle   9  Pass 1  IDiag  1:
 E= -193.312273185223     Delta-E=       -0.000160460940 Rises=F Damp=F
 DIIS: error= 1.36D-03 at cycle   9 NSaved=   9.
 NSaved= 9 IEnMin= 9 EnMin= -193.312273185223     IErMin= 9 ErrMin= 1.36D-03
 ErrMax= 1.36D-03  0.00D+00 EMaxC= 1.00D+00 BMatC= 5.08D-05 BMatP= 8.60D-05
 IDIUse=1 WtCom= 1.00D+00 WtEn= 0.00D+00
 Coeff-Com:  0.962D-02-0.814D-01 0.429D+00-0.468D+00-0.220D+00 0.208D+01
 Coeff-Com: -0.253D+01-0.186D+01 0.364D+01
 Coeff:      0.962D-02-0.814D-01 0.429D+00-0.468D+00-0.220D+00 0.208D+01
 Coeff:     -0.253D+01-0.186D+01 0.364D+01
 Gap=     0.227 Goal=   None    Shift=    0.500
 Gap=     0.270 Goal=   None    Shift=    0.500
 GapD=    0.227 DampG=1.000 DampE=1.000 DampFc=1.0000 IDamp=-1.
 RMSDP=2.00D-04 MaxDP=3.07D-03 DE=-1.60D-04 OVMax= 8.58D-03

 Cycle  10  Pass 1  IDiag  1:
 E= -193.312405428551     Delta-E=       -0.000132243328 Rises=F Damp=F
 DIIS: error= 1.20D-03 at cycle  10 NSaved=  10.
 NSaved=10 IEnMin=10 EnMin= -193.312405428551     IErMin=10 ErrMin= 1.20D-03
 ErrMax= 1.20D-03  0.00D+00 EMaxC= 1.00D+00 BMatC= 3.27D-05 BMatP= 5.08D-05
 IDIUse=1 WtCom= 1.00D+00 WtEn= 0.00D+00
 Coeff-Com:  0.236D-02 0.201D-02-0.275D-01 0.122D+00-0.174D+00 0.129D+00
 Coeff-Com:  0.265D+00-0.372D+00-0.174D+01 0.279D+01
 Coeff:      0.236D-02 0.201D-02-0.275D-01 0.122D+00-0.174D+00 0.129D+00
 Coeff:      0.265D+00-0.372D+00-0.174D+01 0.279D+01
 Gap=     0.229 Goal=   None    Shift=    0.500
 Gap=     0.269 Goal=   None    Shift=    0.500
 GapD=    0.229 DampG=1.000 DampE=1.000 DampFc=1.0000 IDamp=-1.
 RMSDP=1.65D-04 MaxDP=3.00D-03 DE=-1.32D-04 OVMax= 8.23D-03

 Cycle  11  Pass 1  IDiag  1:
 E= -193.312501598212     Delta-E=       -0.000096169661 Rises=F Damp=F
 DIIS: error= 1.09D-03 at cycle  11 NSaved=  11.
 NSaved=11 IEnMin=11 EnMin= -193.312501598212     IErMin=11 ErrMin= 1.09D-03
 ErrMax= 1.09D-03  0.00D+00 EMaxC= 1.00D+00 BMatC= 2.51D-05 BMatP= 3.27D-05
 IDIUse=1 WtCom= 1.00D+00 WtEn= 0.00D+00
 Large coefficients: NSaved= 11 BigCof=   12.18 CofMax=   10.00 Det=-1.62D-08
 Inversion failed.  Reducing to 10 matrices.
 Large coefficients: NSaved= 10 BigCof=   12.18 CofMax=   10.00 Det=-1.62D-08
 Inversion failed.  Reducing to  9 matrices.
 Coeff-Com:  0.980D-02-0.222D+00 0.396D+00-0.284D+00-0.360D+00 0.430D+00
 Coeff-Com:  0.361D+01-0.949D+01 0.692D+01
 Coeff:      0.980D-02-0.222D+00 0.396D+00-0.284D+00-0.360D+00 0.430D+00
 Coeff:      0.361D+01-0.949D+01 0.692D+01
 Gap=     0.232 Goal=   None    Shift=    0.500
 Gap=     0.267 Goal=   None    Shift=    0.500
 GapD=    0.232 DampG=1.000 DampE=1.000 DampFc=1.0000 IDamp=-1.
 RMSDP=2.09D-04 MaxDP=3.99D-03 DE=-9.62D-05 OVMax= 1.13D-02

 Cycle  12  Pass 1  IDiag  1:
 E= -193.312613319844     Delta-E=       -0.000111721631 Rises=F Damp=F
 DIIS: error= 1.01D-03 at cycle  12 NSaved=  10.
 NSaved=10 IEnMin=10 EnMin= -193.312613319844     IErMin=10 ErrMin= 1.01D-03
 ErrMax= 1.01D-03  0.00D+00 EMaxC= 1.00D+00 BMatC= 2.17D-05 BMatP= 2.51D-05
 IDIUse=1 WtCom= 1.00D+00 WtEn= 0.00D+00
 Coeff-Com:  0.169D-01-0.226D+00 0.377D+00-0.223D+00-0.375D+00 0.333D+00
 Coeff-Com:  0.331D+01-0.829D+01 0.563D+01 0.457D+00
 Coeff:      0.169D-01-0.226D+00 0.377D+00-0.223D+00-0.375D+00 0.333D+00
 Coeff:      0.331D+01-0.829D+01 0.563D+01 0.457D+00
 Gap=     0.232 Goal=   None    Shift=    0.500
 Gap=     0.267 Goal=   None    Shift=    0.500
 GapD=    0.232 DampG=1.000 DampE=1.000 DampFc=1.0000 IDamp=-1.
 RMSDP=1.29D-04 MaxDP=2.80D-03 DE=-1.12D-04 OVMax= 7.23D-03

 Cycle  13  Pass 1  IDiag  1:
 E= -193.312678658290     Delta-E=       -0.000065338447 Rises=F Damp=F
 DIIS: error= 9.38D-04 at cycle  13 NSaved=  11.
 NSaved=11 IEnMin=11 EnMin= -193.312678658290     IErMin=11 ErrMin= 9.38D-04
 ErrMax= 9.38D-04  0.00D+00 EMaxC= 1.00D+00 BMatC= 1.88D-05 BMatP= 2.17D-05
 IDIUse=1 WtCom= 1.00D+00 WtEn= 0.00D+00
 Large coefficients: NSaved= 11 BigCof=   13.88 CofMax=   10.00 Det=-7.19D-09
 Inversion failed.  Reducing to 10 matrices.
 Large coefficients: NSaved= 10 BigCof=   13.90 CofMax=   10.00 Det=-7.23D-09
 Inversion failed.  Reducing to  9 matrices.
 Coeff-Com:  0.170D-01-0.153D+00 0.246D+00-0.593D-01-0.141D+01 0.621D+01
 Coeff-Com: -0.734D+01-0.379D+01 0.728D+01
 Coeff:      0.170D-01-0.153D+00 0.246D+00-0.593D-01-0.141D+01 0.621D+01
 Coeff:     -0.734D+01-0.379D+01 0.728D+01
 Gap=     0.237 Goal=   None    Shift=    0.500
 Gap=     0.264 Goal=   None    Shift=    0.500
 RMSDP=3.72D-04 MaxDP=7.10D-03 DE=-6.53D-05 OVMax= 2.08D-02

 Cycle  14  Pass 1  IDiag  1:
 E= -193.312842470804     Delta-E=       -0.000163812514 Rises=F Damp=F
 DIIS: error= 8.32D-04 at cycle  14 NSaved=  10.
 NSaved=10 IEnMin=10 EnMin= -193.312842470804     IErMin=10 ErrMin= 8.32D-04
 ErrMax= 8.32D-04  0.00D+00 EMaxC= 1.00D+00 BMatC= 1.91D-05 BMatP= 1.88D-05
 IDIUse=1 WtCom= 1.00D+00 WtEn= 0.00D+00
 Large coefficients: NSaved= 10 BigCof=   16.24 CofMax=   10.00 Det=-1.61D-08
 Inversion failed.  Reducing to  9 matrices.
 Large coefficients: NSaved=  9 BigCof=   16.35 CofMax=   10.00 Det=-1.82D-08
 Inversion failed.  Reducing to  8 matrices.
 Large coefficients: NSaved=  8 BigCof=   16.37 CofMax=   10.00 Det=-2.54D-08
 Inversion failed.  Reducing to  7 matrices.
 Large coefficients: NSaved=  7 BigCof=   16.22 CofMax=   10.00 Det=-1.65D-08
 Inversion failed.  Reducing to  6 matrices.
 Large coefficients: NSaved=  6 BigCof=   15.54 CofMax=   10.00 Det=-1.70D-08
 Inversion failed.  Reducing to  5 matrices.
 Large coefficients: NSaved=  5 BigCof=   14.95 CofMax=   10.00 Det=-3.40D-08
 Inversion failed.  Reducing to  4 matrices.
 Large coefficients: NSaved=  4 BigCof=   14.32 CofMax=   10.00 Det=-4.62D-08
 Inversion failed.  Reducing to  3 matrices.
 Coeff-Com: -0.365D+01 0.400D+01 0.656D+00
 Coeff:     -0.365D+01 0.400D+01 0.656D+00
 Gap=     0.237 Goal=   None    Shift=    0.500
 Gap=     0.265 Goal=   None    Shift=    0.500
 RMSDP=1.74D-04 MaxDP=4.01D-03 DE=-1.64D-04 OVMax= 9.72D-03

 Cycle  15  Pass 1  IDiag  1:
 E= -193.312910967293     Delta-E=       -0.000068496488 Rises=F Damp=F
 DIIS: error= 7.49D-04 at cycle  15 NSaved=   4.
 NSaved= 4 IEnMin= 4 EnMin= -193.312910967293     IErMin= 4 ErrMin= 7.49D-04
 ErrMax= 7.49D-04  0.00D+00 EMaxC= 1.00D+00 BMatC= 1.38D-05 BMatP= 1.88D-05
 IDIUse=1 WtCom= 1.00D+00 WtEn= 0.00D+00
 Coeff-Com:  0.288D+01-0.364D+01-0.358D+01 0.535D+01
 Coeff:      0.288D+01-0.364D+01-0.358D+01 0.535D+01
 Gap=     0.235 Goal=   None    Shift=    0.500
 Gap=     0.263 Goal=   None    Shift=    0.500
 RMSDP=3.03D-04 MaxDP=6.03D-03 DE=-6.85D-05 OVMax= 1.73D-02

 Cycle  16  Pass 1  IDiag  1:
 E= -193.313006739631     Delta-E=       -0.000095772338 Rises=F Damp=F
 DIIS: error= 6.31D-04 at cycle  16 NSaved=   5.
 NSaved= 5 IEnMin= 5 EnMin= -193.313006739631     IErMin= 5 ErrMin= 6.31D-04
 ErrMax= 6.31D-04  0.00D+00 EMaxC= 1.00D+00 BMatC= 1.42D-05 BMatP= 1.38D-05
 IDIUse=1 WtCom= 1.00D+00 WtEn= 0.00D+00
 Coeff-Com:  0.229D+01-0.221D+01-0.401D+01 0.372D+01 0.121D+01
 Coeff:      0.229D+01-0.221D+01-0.401D+01 0.372D+01 0.121D+01
 Gap=     0.235 Goal=   None    Shift=    0.500
 Gap=     0.263 Goal=   None    Shift=    0.500
 RMSDP=1.96D-04 MaxDP=4.35D-03 DE=-9.58D-05 OVMax= 1.13D-02

 Cycle  17  Pass 1  IDiag  1:
 E= -193.313057060006     Delta-E=       -0.000050320376 Rises=F Damp=F
 DIIS: error= 5.27D-04 at cycle  17 NSaved=   6.
 NSaved= 6 IEnMin= 6 EnMin= -193.313057060006     IErMin= 6 ErrMin= 5.27D-04
 ErrMax= 5.27D-04  0.00D+00 EMaxC= 1.00D+00 BMatC= 9.48D-06 BMatP= 1.38D-05
 IDIUse=1 WtCom= 1.00D+00 WtEn= 0.00D+00
 Coeff-Com: -0.424D+01 0.547D+01 0.354D+01-0.504D+01-0.458D+01 0.584D+01
 Coeff:     -0.424D+01 0.547D+01 0.354D+01-0.504D+01-0.458D+01 0.584D+01
 Gap=     0.235 Goal=   None    Shift=    0.500
 Gap=     0.263 Goal=   None    Shift=    0.500
 RMSDP=1.34D-04 MaxDP=2.94D-03 DE=-5.03D-05 OVMax= 8.01D-03

 Cycle  18  Pass 1  IDiag  1:
 E= -193.313085798008     Delta-E=       -0.000028738002 Rises=F Damp=F
 DIIS: error= 4.61D-04 at cycle  18 NSaved=   7.
 NSaved= 7 IEnMin= 7 EnMin= -193.313085798008     IErMin= 7 ErrMin= 4.61D-04
 ErrMax= 4.61D-04  0.00D+00 EMaxC= 1.00D+00 BMatC= 5.85D-06 BMatP= 9.48D-06
 IDIUse=1 WtCom= 1.00D+00 WtEn= 0.00D+00
 Coeff-Com: -0.466D+00 0.439D+00 0.130D+00-0.437D-01-0.938D-01-0.212D+01
 Coeff-Com:  0.316D+01
 Coeff:     -0.466D+00 0.439D+00 0.130D+00-0.437D-01-0.938D-01-0.212D+01
 Coeff:      0.316D+01
 Gap=     0.235 Goal=   None    Shift=    0.500
 Gap=     0.262 Goal=   None    Shift=    0.500
 RMSDP=1.46D-04 MaxDP=3.09D-03 DE=-2.87D-05 OVMax= 8.33D-03

 Cycle  19  Pass 1  IDiag  1:
 E= -193.313108682522     Delta-E=       -0.000022884514 Rises=F Damp=F
 DIIS: error= 3.05D-04 at cycle  19 NSaved=   8.
 NSaved= 8 IEnMin= 8 EnMin= -193.313108682522     IErMin= 8 ErrMin= 3.05D-04
 ErrMax= 3.05D-04  0.00D+00 EMaxC= 1.00D+00 BMatC= 3.98D-06 BMatP= 5.85D-06
 IDIUse=1 WtCom= 1.00D+00 WtEn= 0.00D+00
 Coeff-Com:  0.282D+01-0.312D+01-0.312D+01 0.352D+01 0.276D+01-0.515D+01
 Coeff-Com:  0.108D+01 0.220D+01
 Coeff:      0.282D+01-0.312D+01-0.312D+01 0.352D+01 0.276D+01-0.515D+01
 Coeff:      0.108D+01 0.220D+01
 Gap=     0.234 Goal=   None    Shift=    0.500
 Gap=     0.262 Goal=   None    Shift=    0.500
 RMSDP=1.03D-04 MaxDP=2.26D-03 DE=-2.29D-05 OVMax= 6.04D-03

 Cycle  20  Pass 1  IDiag  1:
 E= -193.313120649354     Delta-E=       -0.000011966832 Rises=F Damp=F
 DIIS: error= 2.30D-04 at cycle  20 NSaved=   9.
 NSaved= 9 IEnMin= 9 EnMin= -193.313120649354     IErMin= 9 ErrMin= 2.30D-04
 ErrMax= 2.30D-04  0.00D+00 EMaxC= 1.00D+00 BMatC= 2.28D-06 BMatP= 3.98D-06
 IDIUse=1 WtCom= 1.00D+00 WtEn= 0.00D+00
 Coeff-Com:  0.107D+00 0.321D+00-0.587D+00 0.244D+00-0.562D+00 0.119D+01
 Coeff-Com: -0.158D+01-0.491D+00 0.236D+01
 Coeff:      0.107D+00 0.321D+00-0.587D+00 0.244D+00-0.562D+00 0.119D+01
 Coeff:     -0.158D+01-0.491D+00 0.236D+01
 Gap=     0.235 Goal=   None    Shift=    0.500
 Gap=     0.262 Goal=   None    Shift=    0.500
 RMSDP=4.80D-05 MaxDP=1.13D-03 DE=-1.20D-05 OVMax= 2.69D-03

 Cycle  21  Pass 1  IDiag  1:
 E= -193.313125001214     Delta-E=       -0.000004351860 Rises=F Damp=F
 DIIS: error= 2.11D-04 at cycle  21 NSaved=  10.
 NSaved=10 IEnMin=10 EnMin= -193.313125001214     IErMin=10 ErrMin= 2.11D-04
 ErrMax= 2.11D-04  0.00D+00 EMaxC= 1.00D+00 BMatC= 1.02D-06 BMatP= 2.28D-06
 IDIUse=1 WtCom= 1.00D+00 WtEn= 0.00D+00
 Coeff-Com: -0.411D+00 0.697D+00 0.161D+00-0.479D+00-0.822D+00 0.209D+01
 Coeff-Com: -0.208D+01 0.165D+00 0.163D-01 0.166D+01
 Coeff:     -0.411D+00 0.697D+00 0.161D+00-0.479D+00-0.822D+00 0.209D+01
 Coeff:     -0.208D+01 0.165D+00 0.163D-01 0.166D+01
 Gap=     0.234 Goal=   None    Shift=    0.500
 Gap=     0.262 Goal=   None    Shift=    0.500
 RMSDP=4.63D-05 MaxDP=1.02D-03 DE=-4.35D-06 OVMax= 2.62D-03

 Cycle  22  Pass 1  IDiag  1:
 E= -193.313127768703     Delta-E=       -0.000002767488 Rises=F Damp=F
 DIIS: error= 1.60D-04 at cycle  22 NSaved=  11.
 NSaved=11 IEnMin=11 EnMin= -193.313127768703     IErMin=11 ErrMin= 1.60D-04
 ErrMax= 1.60D-04  0.00D+00 EMaxC= 1.00D+00 BMatC= 5.81D-07 BMatP= 1.02D-06
 IDIUse=1 WtCom= 1.00D+00 WtEn= 0.00D+00
 Coeff-Com: -0.431D-01 0.306D+00-0.433D+00 0.122D+00-0.419D-01-0.183D+00
 Coeff-Com:  0.359D+00 0.176D+00 0.756D+00-0.430D+01 0.428D+01
 Coeff:     -0.431D-01 0.306D+00-0.433D+00 0.122D+00-0.419D-01-0.183D+00
 Coeff:      0.359D+00 0.176D+00 0.756D+00-0.430D+01 0.428D+01
 Gap=     0.234 Goal=   None    Shift=    0.500
 Gap=     0.262 Goal=   None    Shift=    0.500
 RMSDP=3.21D-05 MaxDP=7.24D-04 DE=-2.77D-06 OVMax= 1.81D-03

 Cycle  23  Pass 1  IDiag  1:
 E= -193.313129077943     Delta-E=       -0.000001309241 Rises=F Damp=F
 DIIS: error= 1.21D-04 at cycle  23 NSaved=  12.
 NSaved=12 IEnMin=12 EnMin= -193.313129077943     IErMin=12 ErrMin= 1.21D-04
 ErrMax= 1.21D-04  0.00D+00 EMaxC= 1.00D+00 BMatC= 3.07D-07 BMatP= 5.81D-07
 IDIUse=1 WtCom= 1.00D+00 WtEn= 0.00D+00
 Coeff-Com:  0.356D+00-0.338D+00-0.573D+00 0.621D+00 0.288D+00-0.299D+00
 Coeff-Com: -0.505D+00 0.135D+00 0.572D+00 0.930D+00-0.366D+01 0.348D+01
 Coeff:      0.356D+00-0.338D+00-0.573D+00 0.621D+00 0.288D+00-0.299D+00
 Coeff:     -0.505D+00 0.135D+00 0.572D+00 0.930D+00-0.366D+01 0.348D+01
 Gap=     0.234 Goal=   None    Shift=    0.500
 Gap=     0.262 Goal=   None    Shift=    0.500
 RMSDP=2.51D-05 MaxDP=5.78D-04 DE=-1.31D-06 OVMax= 1.45D-03

 Cycle  24  Pass 1  IDiag  1:
 E= -193.313129737628     Delta-E=       -0.000000659685 Rises=F Damp=F
 DIIS: error= 8.11D-05 at cycle  24 NSaved=  13.
 NSaved=13 IEnMin=13 EnMin= -193.313129737628     IErMin=13 ErrMin= 8.11D-05
 ErrMax= 8.11D-05  0.00D+00 EMaxC= 1.00D+00 BMatC= 1.54D-07 BMatP= 3.07D-07
 IDIUse=1 WtCom= 1.00D+00 WtEn= 0.00D+00
 Coeff-Com: -0.265D-02 0.868D-01-0.180D+00 0.109D+00-0.804D-02 0.128D+00
 Coeff-Com: -0.277D+00-0.551D-01 0.239D+00 0.470D+00-0.828D+00-0.117D+01
 Coeff-Com:  0.248D+01
 Coeff:     -0.265D-02 0.868D-01-0.180D+00 0.109D+00-0.804D-02 0.128D+00
 Coeff:     -0.277D+00-0.551D-01 0.239D+00 0.470D+00-0.828D+00-0.117D+01
 Coeff:      0.248D+01
 Gap=     0.234 Goal=   None    Shift=    0.500
 Gap=     0.262 Goal=   None    Shift=    0.500
 RMSDP=1.18D-05 MaxDP=3.09D-04 DE=-6.60D-07 OVMax= 6.76D-04

 Cycle  25  Pass 1  IDiag  1:
 E= -193.313129958278     Delta-E=       -0.000000220650 Rises=F Damp=F
 DIIS: error= 5.98D-05 at cycle  25 NSaved=  14.
 NSaved=14 IEnMin=14 EnMin= -193.313129958278     IErMin=14 ErrMin= 5.98D-05
 ErrMax= 5.98D-05  0.00D+00 EMaxC= 1.00D+00 BMatC= 6.94D-08 BMatP= 1.54D-07
 IDIUse=1 WtCom= 1.00D+00 WtEn= 0.00D+00
 Coeff-Com: -0.215D+00 0.297D+00 0.115D+00-0.231D+00-0.158D+00 0.205D+00
 Coeff-Com:  0.124D+00 0.306D-02-0.679D-01-0.110D+01 0.278D+01-0.356D+01
 Coeff-Com:  0.871D+00 0.194D+01
 Coeff:     -0.215D+00 0.297D+00 0.115D+00-0.231D+00-0.158D+00 0.205D+00
 Coeff:      0.124D+00 0.306D-02-0.679D-01-0.110D+01 0.278D+01-0.356D+01
 Coeff:      0.871D+00 0.194D+01
 Gap=     0.234 Goal=   None    Shift=    0.500
 Gap=     0.262 Goal=   None    Shift=    0.500
 RMSDP=8.55D-06 MaxDP=2.21D-04 DE=-2.21D-07 OVMax= 5.12D-04

 Cycle  26  Pass 1  IDiag  1:
 E= -193.313130064909     Delta-E=       -0.000000106632 Rises=F Damp=F
 DIIS: error= 4.16D-05 at cycle  26 NSaved=  15.
 NSaved=15 IEnMin=15 EnMin= -193.313130064909     IErMin=15 ErrMin= 4.16D-05
 ErrMax= 4.16D-05  0.00D+00 EMaxC= 1.00D+00 BMatC= 3.20D-08 BMatP= 6.94D-08
 IDIUse=1 WtCom= 1.00D+00 WtEn= 0.00D+00
 Coeff-Com:  0.374D-01-0.129D-01-0.106D+00 0.835D-01 0.397D-01-0.308D-01
 Coeff-Com: -0.130D+00 0.104D+00 0.155D+00-0.109D+00-0.551D+00 0.137D+01
 Coeff-Com: -0.690D+00-0.248D+01 0.332D+01
 Coeff:      0.374D-01-0.129D-01-0.106D+00 0.835D-01 0.397D-01-0.308D-01
 Coeff:     -0.130D+00 0.104D+00 0.155D+00-0.109D+00-0.551D+00 0.137D+01
 Coeff:     -0.690D+00-0.248D+01 0.332D+01
 Gap=     0.234 Goal=   None    Shift=    0.500
 Gap=     0.262 Goal=   None    Shift=    0.500
 RMSDP=6.17D-06 MaxDP=1.56D-04 DE=-1.07D-07 OVMax= 3.73D-04

 Cycle  27  Pass 1  IDiag  1:
 E= -193.313130114085     Delta-E=       -0.000000049176 Rises=F Damp=F
 DIIS: error= 2.79D-05 at cycle  27 NSaved=  16.
 NSaved=16 IEnMin=16 EnMin= -193.313130114085     IErMin=16 ErrMin= 2.79D-05
 ErrMax= 2.79D-05  0.00D+00 EMaxC= 1.00D+00 BMatC= 1.48D-08 BMatP= 3.20D-08
 IDIUse=1 WtCom= 1.00D+00 WtEn= 0.00D+00
 Coeff-Com: -0.391D-01 0.626D-01-0.859D-02-0.128D-01-0.139D-01 0.302D-01
 Coeff-Com: -0.400D-01 0.940D-02 0.312D-01 0.204D-01-0.926D-01-0.107D-01
 Coeff-Com:  0.151D+00 0.191D+00-0.230D+01 0.302D+01
 Coeff:     -0.391D-01 0.626D-01-0.859D-02-0.128D-01-0.139D-01 0.302D-01
 Coeff:     -0.400D-01 0.940D-02 0.312D-01 0.204D-01-0.926D-01-0.107D-01
 Coeff:      0.151D+00 0.191D+00-0.230D+01 0.302D+01
 Gap=     0.234 Goal=   None    Shift=    0.500
 Gap=     0.262 Goal=   None    Shift=    0.500
 RMSDP=3.23D-06 MaxDP=8.73D-05 DE=-4.92D-08 OVMax= 1.99D-04

 Cycle  28  Pass 1  IDiag  1:
 E= -193.313130132421     Delta-E=       -0.000000018336 Rises=F Damp=F
 DIIS: error= 1.91D-05 at cycle  28 NSaved=  17.
 NSaved=17 IEnMin=17 EnMin= -193.313130132421     IErMin=17 ErrMin= 1.91D-05
 ErrMax= 1.91D-05  0.00D+00 EMaxC= 1.00D+00 BMatC= 6.44D-09 BMatP= 1.48D-08
 IDIUse=1 WtCom= 1.00D+00 WtEn= 0.00D+00
 Coeff-Com: -0.192D-01 0.257D-01 0.156D-01-0.208D-01-0.302D-01 0.381D-01
 Coeff-Com: -0.129D-01 0.171D-01 0.149D-01-0.160D+00 0.323D+00-0.412D+00
 Coeff-Com:  0.247D+00-0.220D-01 0.773D+00-0.323D+01 0.345D+01
 Coeff:     -0.192D-01 0.257D-01 0.156D-01-0.208D-01-0.302D-01 0.381D-01
 Coeff:     -0.129D-01 0.171D-01 0.149D-01-0.160D+00 0.323D+00-0.412D+00
 Coeff:      0.247D+00-0.220D-01 0.773D+00-0.323D+01 0.345D+01
 Gap=     0.234 Goal=   None    Shift=    0.500
 Gap=     0.262 Goal=   None    Shift=    0.500
 RMSDP=2.69D-06 MaxDP=6.79D-05 DE=-1.83D-08 OVMax= 1.68D-04

 Cycle  29  Pass 1  IDiag  1:
 E= -193.313130141642     Delta-E=       -0.000000009221 Rises=F Damp=F
 DIIS: error= 1.21D-05 at cycle  29 NSaved=  18.
 NSaved=18 IEnMin=18 EnMin= -193.313130141642     IErMin=18 ErrMin= 1.21D-05
 ErrMax= 1.21D-05  0.00D+00 EMaxC= 1.00D+00 BMatC= 2.77D-09 BMatP= 6.44D-09
 IDIUse=1 WtCom= 1.00D+00 WtEn= 0.00D+00
 Coeff-Com: -0.248D-01 0.379D-01-0.129D-02-0.160D-01 0.276D-02 0.352D-02
 Coeff-Com:  0.158D-02-0.128D-01-0.889D-02 0.970D-01-0.177D+00 0.198D+00
 Coeff-Com: -0.112D+00-0.150D+00-0.215D+00 0.198D+01-0.465D+01 0.405D+01
 Coeff:     -0.248D-01 0.379D-01-0.129D-02-0.160D-01 0.276D-02 0.352D-02
 Coeff:      0.158D-02-0.128D-01-0.889D-02 0.970D-01-0.177D+00 0.198D+00
 Coeff:     -0.112D+00-0.150D+00-0.215D+00 0.198D+01-0.465D+01 0.405D+01
 Gap=     0.234 Goal=   None    Shift=    0.500
 Gap=     0.262 Goal=   None    Shift=    0.500
 RMSDP=1.18D-06 MaxDP=3.45D-05 DE=-9.22D-09 OVMax= 7.44D-05

 Cycle  30  Pass 1  IDiag  1:
 E= -193.313130144617     Delta-E=       -0.000000002975 Rises=F Damp=F
 DIIS: error= 8.39D-06 at cycle  30 NSaved=  19.
 NSaved=19 IEnMin=19 EnMin= -193.313130144617     IErMin=19 ErrMin= 8.39D-06
 ErrMax= 8.39D-06  0.00D+00 EMaxC= 1.00D+00 BMatC= 1.20D-09 BMatP= 2.77D-09
 IDIUse=1 WtCom= 1.00D+00 WtEn= 0.00D+00
 Coeff-Com:  0.394D-02-0.391D-02-0.339D-02 0.638D-02-0.494D-02 0.400D-02
 Coeff-Com: -0.166D-01 0.181D-01 0.220D-01-0.650D-01 0.590D-01-0.429D-01
 Coeff-Com:  0.744D-01-0.520D-01-0.138D+00 0.152D+00 0.599D+00-0.282D+01
 Coeff-Com:  0.321D+01
 Coeff:      0.394D-02-0.391D-02-0.339D-02 0.638D-02-0.494D-02 0.400D-02
 Coeff:     -0.166D-01 0.181D-01 0.220D-01-0.650D-01 0.590D-01-0.429D-01
 Coeff:      0.744D-01-0.520D-01-0.138D+00 0.152D+00 0.599D+00-0.282D+01
 Coeff:      0.321D+01
 Gap=     0.234 Goal=   None    Shift=    0.500
 Gap=     0.262 Goal=   None    Shift=    0.500
 RMSDP=1.17D-06 MaxDP=2.93D-05 DE=-2.97D-09 OVMax= 7.35D-05

 Cycle  31  Pass 1  IDiag  1:
 E= -193.313130146285     Delta-E=       -0.000000001668 Rises=F Damp=F
 DIIS: error= 5.23D-06 at cycle  31 NSaved=  20.
 NSaved=20 IEnMin=20 EnMin= -193.313130146285     IErMin=20 ErrMin= 5.23D-06
 ErrMax= 5.23D-06  0.00D+00 EMaxC= 1.00D+00 BMatC= 5.24D-10 BMatP= 1.20D-09
 IDIUse=1 WtCom= 1.00D+00 WtEn= 0.00D+00
 Coeff-Com: -0.956D-02 0.134D-01 0.368D-02-0.767D-02-0.648D-02 0.882D-02
 Coeff-Com:  0.402D-03-0.220D-02-0.224D-02-0.598D-02 0.333D-01-0.598D-01
 Coeff-Com:  0.326D-01 0.191D-01 0.191D-01-0.363D+00 0.766D+00-0.231D+00
 Coeff-Com: -0.225D+01 0.304D+01
 Coeff:     -0.956D-02 0.134D-01 0.368D-02-0.767D-02-0.648D-02 0.882D-02
 Coeff:      0.402D-03-0.220D-02-0.224D-02-0.598D-02 0.333D-01-0.598D-01
 Coeff:      0.326D-01 0.191D-01 0.191D-01-0.363D+00 0.766D+00-0.231D+00
 Coeff:     -0.225D+01 0.304D+01
 Gap=     0.234 Goal=   None    Shift=    0.500
 Gap=     0.262 Goal=   None    Shift=    0.500
 RMSDP=5.33D-07 MaxDP=1.54D-05 DE=-1.67D-09 OVMax= 3.44D-05

 SCF Done:  E(ULC-wHPBE) =  -193.313130146     A.U. after   31 cycles
            NFock= 31  Conv=0.53D-06     -V/T= 2.0082
 <Sx>= 0.0000 <Sy>= 0.0000 <Sz>= 0.5000 <S**2>= 0.9350 S= 0.5886
 <L.S>= 0.000000000000E+00
 KE= 1.917352314832D+02 PE=-7.299781894066D+02 EE= 1.999079279840D+02
 Annihilation of the first spin contaminant:
 S**2 before annihilation     0.9350,   after     0.7745
 Leave Link  502 at Tue Feb 25 12:19:51 2020, MaxMem=  6710886400 cpu:              38.0 elap:               2.4
 (Enter /opt/ohpc/pub/libs/gaussian/g16-A.03/haswell/g16/l508.exe)
 QCSCF skips out because SCF is already converged.
 Leave Link  508 at Tue Feb 25 12:19:51 2020, MaxMem=  6710886400 cpu:               0.1 elap:               0.0
 (Enter /opt/ohpc/pub/libs/gaussian/g16-A.03/haswell/g16/l601.exe)
 Copying SCF densities to generalized density rwf, IOpCl= 1 IROHF=0.

 **********************************************************************

            Population analysis using the SCF density.

 **********************************************************************

 Orbital symmetries:
 Alpha Orbitals:
       Occupied  (B2) (A1) (B2) (A1) (A1) (A1) (B2) (A1) (B2) (A1)
                 (A1) (B2) (B2) (A1) (B1) (A1) (A2) (B1)
       Virtual   (B2) (A1) (A2) (B1) (A1) (B2) (A1) (B2) (A1) (A1)
                 (B2) (A1) (B2) (B1) (B2) (B1) (A1) (A2) (A1) (B2)
                 (A1) (A2) (A1) (B1) (B2) (A1) (B2) (A1) (B2) (A1)
                 (A1) (A1) (B2) (A1) (B2) (B2) (A1) (A1) (B2)
 Beta  Orbitals:
       Occupied  (B2) (A1) (B2) (A1) (A1) (A1) (B2) (A1) (B2) (A1)
                 (A1) (B2) (B2) (A1) (A1) (B1) (A2)
       Virtual   (A1) (B2) (B1) (A2) (B1) (A1) (B2) (A1) (B2) (A1)
                 (A1) (B2) (A1) (B2) (B1) (B2) (A1) (A2) (B1) (A1)
                 (B2) (A1) (A2) (A1) (B2) (B1) (A1) (B2) (A1) (B2)
                 (A1) (A1) (A1) (B2) (A1) (B2) (B2) (A1) (A1) (B2)
 The electronic state is 2-B1.
 Alpha  occ. eigenvalues --  -10.36028 -10.36027 -10.28387 -10.28387 -10.27622
 Alpha  occ. eigenvalues --   -1.14635  -1.05880  -0.99445  -0.88908  -0.82084
 Alpha  occ. eigenvalues --   -0.81427  -0.74356  -0.69770  -0.67531  -0.67120
 Alpha  occ. eigenvalues --   -0.63876  -0.57836  -0.50806
 Alpha virt. eigenvalues --   -0.27381  -0.25691  -0.14359  -0.03664   0.00026
 Alpha virt. eigenvalues --    0.03975   0.07389   0.08823   0.10190   0.18246
 Alpha virt. eigenvalues --    0.19556   0.27531   0.29062   0.37653   0.40133
 Alpha virt. eigenvalues --    0.47528   0.47567   0.47814   0.50124   0.51357
 Alpha virt. eigenvalues --    0.53283   0.54870   0.55895   0.57641   0.58127
 Alpha virt. eigenvalues --    0.69044   0.72526   0.74288   0.77960   0.77979
 Alpha virt. eigenvalues --    0.83601   0.85258   0.87183   0.93243   1.00275
 Alpha virt. eigenvalues --    1.04940   1.09686   1.32312   1.32940
  Beta  occ. eigenvalues --  -10.35092 -10.35089 -10.28743 -10.28742 -10.26817
  Beta  occ. eigenvalues --   -1.13728  -1.05224  -0.96942  -0.87956  -0.81660
  Beta  occ. eigenvalues --   -0.80627  -0.73873  -0.69478  -0.66917  -0.64593
  Beta  occ. eigenvalues --   -0.64041  -0.55389
  Beta virt. eigenvalues --   -0.29158  -0.23435  -0.23401  -0.11462  -0.01161
  Beta virt. eigenvalues --    0.00293   0.04293   0.07900   0.08914   0.10625
  Beta virt. eigenvalues --    0.18865   0.20034   0.28048   0.29302   0.40404
  Beta virt. eigenvalues --    0.40686   0.48108   0.49266   0.49587   0.50763
  Beta virt. eigenvalues --    0.51898   0.53588   0.55516   0.57729   0.58937
  Beta virt. eigenvalues --    0.58948   0.65382   0.72978   0.73727   0.78050
  Beta virt. eigenvalues --    0.78888   0.84018   0.85473   0.87642   0.94543
  Beta virt. eigenvalues --    1.00498   1.05595   1.10257   1.33069   1.34183
          Condensed to atoms (all electrons):
               1          2          3          4          5          6
     1  C    5.179637   0.511756  -0.061481  -0.041958   0.139347   0.099749
     2  C    0.511756   4.950559   0.493984  -0.059397  -0.041958  -0.003233
     3  C   -0.061481   0.493984   4.847451   0.493984  -0.061481   0.000380
     4  C   -0.041958  -0.059397   0.493984   4.950559   0.511756  -0.003233
     5  C    0.139347  -0.041958  -0.061481   0.511756   5.179637   0.099749
     6  H    0.099749  -0.003233   0.000380  -0.003233   0.099749   0.535061
     7  H    0.348405  -0.028087   0.002554   0.000727  -0.002695  -0.004941
     8  H   -0.024382   0.354573  -0.010508   0.003296   0.000427   0.000103
     9  H    0.004289  -0.028879   0.368794  -0.028879   0.004289  -0.000002
    10  H    0.000427   0.003296  -0.010508   0.354573  -0.024382   0.000103
    11  H   -0.002695   0.000727   0.002554  -0.028087   0.348405  -0.004941
               7          8          9         10         11
     1  C    0.348405  -0.024382   0.004289   0.000427  -0.002695
     2  C   -0.028087   0.354573  -0.028879   0.003296   0.000727
     3  C    0.002554  -0.010508   0.368794  -0.010508   0.002554
     4  C    0.000727   0.003296  -0.028879   0.354573  -0.028087
     5  C   -0.002695   0.000427   0.004289  -0.024382   0.348405
     6  H   -0.004941   0.000103  -0.000002   0.000103  -0.004941
     7  H    0.402329   0.000585  -0.000089  -0.000007   0.000020
     8  H    0.000585   0.383582  -0.002709  -0.000058  -0.000007
     9  H   -0.000089  -0.002709   0.441189  -0.002709  -0.000089
    10  H   -0.000007  -0.000058  -0.002709   0.383582   0.000585
    11  H    0.000020  -0.000007  -0.000089   0.000585   0.402329
          Atomic-Atomic Spin Densities.
               1          2          3          4          5          6
     1  C    0.735812  -0.035274  -0.021129  -0.010927   0.052671  -0.012640
     2  C   -0.035274  -0.307910   0.012937   0.006015  -0.010927  -0.000526
     3  C   -0.021129   0.012937   0.654609   0.012937  -0.021129  -0.000006
     4  C   -0.010927   0.006015   0.012937  -0.307910  -0.035274  -0.000526
     5  C    0.052671  -0.010927  -0.021129  -0.035274   0.735812  -0.012640
     6  H   -0.012640  -0.000526  -0.000006  -0.000526  -0.012640  -0.285536
     7  H   -0.007580   0.001962  -0.000068   0.000035  -0.000214   0.002321
     8  H   -0.001897   0.004200  -0.001066  -0.000179   0.000197  -0.000013
     9  H    0.000004   0.000054  -0.001365   0.000054   0.000004   0.000000
    10  H    0.000197  -0.000179  -0.001066   0.004200  -0.001897  -0.000013
    11  H   -0.000214   0.000035  -0.000068   0.001962  -0.007580   0.002321
               7          8          9         10         11
     1  C   -0.007580  -0.001897   0.000004   0.000197  -0.000214
     2  C    0.001962   0.004200   0.000054  -0.000179   0.000035
     3  C   -0.000068  -0.001066  -0.001365  -0.001066  -0.000068
     4  C    0.000035  -0.000179   0.000054   0.004200   0.001962
     5  C   -0.000214   0.000197   0.000004  -0.001897  -0.007580
     6  H    0.002321  -0.000013   0.000000  -0.000013   0.002321
     7  H   -0.031460   0.000063   0.000005  -0.000000  -0.000006
     8  H    0.000063   0.014926   0.000043   0.000007  -0.000000
     9  H    0.000005   0.000043  -0.027670   0.000043   0.000005
    10  H   -0.000000   0.000007   0.000043   0.014926   0.000063
    11  H   -0.000006  -0.000000   0.000005   0.000063  -0.031460
 Mulliken charges and spin densities:
               1          2
     1  C   -0.153093   0.699023
     2  C   -0.153342  -0.329613
     3  C   -0.065725   0.634585
     4  C   -0.153342  -0.329613
     5  C   -0.153093   0.699023
     6  H    0.281205  -0.307257
     7  H    0.281200  -0.034943
     8  H    0.295097   0.016280
     9  H    0.244796  -0.028822
    10  H    0.295097   0.016280
    11  H    0.281200  -0.034943
 Sum of Mulliken charges =   1.00000   1.00000
 Mulliken charges and spin densities with hydrogens summed into heavy atoms:
               1          2
     1  C    0.409312   0.356823
     2  C    0.141755  -0.313333
     3  C    0.179071   0.605763
     4  C    0.141755  -0.313333
     5  C    0.128107   0.664080
 Electronic spatial extent (au):  <R**2>=            374.8723
 Charge=              1.0000 electrons
 Dipole moment (field-independent basis, Debye):
    X=             -0.0000    Y=             -0.0000    Z=             -2.7530  Tot=              2.7530
 Quadrupole moment (field-independent basis, Debye-Ang):
   XX=            -32.5465   YY=            -13.1665   ZZ=            -10.5170
   XY=              0.0000   XZ=              0.0000   YZ=             -0.0000
 Traceless Quadrupole moment (field-independent basis, Debye-Ang):
   XX=            -13.8031   YY=              5.5768   ZZ=              8.2264
   XY=              0.0000   XZ=              0.0000   YZ=             -0.0000
 Octapole moment (field-independent basis, Debye-Ang**2):
  XXX=              0.0000  YYY=             -0.0000  ZZZ=            -22.2792  XYY=             -0.0000
  XXY=              0.0000  XXZ=              1.6049  XZZ=              0.0000  YZZ=              0.0000
  YYZ=             -3.2673  XYZ=             -0.0000
 Hexadecapole moment (field-independent basis, Debye-Ang**3):
 XXXX=            -33.2313 YYYY=           -180.2909 ZZZZ=            -97.7267 XXXY=             -0.0000
 XXXZ=             -0.0000 YYYX=             -0.0000 YYYZ=             -0.0000 ZZZX=             -0.0000
 ZZZY=              0.0000 XXYY=            -55.3574 XXZZ=            -44.4065 YYZZ=            -50.8913
 XXYZ=             -0.0000 YYXZ=              0.0000 ZZXY=             -0.0000
 N-N= 1.450218997931D+02 E-N=-7.299781437267D+02  KE= 1.917352314832D+02
 Symmetry A1   KE= 1.107540210539D+02
 Symmetry A2   KE= 2.409592912221D+00
 Symmetry B1   KE= 3.299656336996D+00
 Symmetry B2   KE= 7.527196118015D+01
 Symmetry A1   SP=-3.217728035362D-16
 Symmetry A2   SP= 2.695902270366D-15
 Symmetry B1   SP= 1.000000000000D+00
 Symmetry B2   SP=-1.374946394574D-14
                          Isotropic Fermi Contact Couplings
        Atom                 a.u.       MegaHertz       Gauss      10(-4) cm-1
     1  C(13)              0.12655     142.26234      50.76274      47.45361
     2  C(13)             -0.05227     -58.76375     -20.96837     -19.60148
     3  C(13)              0.09565     107.53316      38.37050      35.86920
     4  C(13)             -0.05227     -58.76375     -20.96837     -19.60148
     5  C(13)              0.12655     142.26234      50.76274      47.45361
     6  H(1)              -0.10358    -462.98870    -165.20588    -154.43641
     7  H(1)              -0.01298     -58.01732     -20.70202     -19.35249
     8  H(1)               0.00675      30.16386      10.76322      10.06158
     9  H(1)              -0.01041     -46.51256     -16.59684     -15.51492
    10  H(1)               0.00675      30.16386      10.76322      10.06158
    11  H(1)              -0.01298     -58.01732     -20.70202     -19.35249
 --------------------------------------------------------
       Center         ----  Spin Dipole Couplings  ----
                      3XX-RR        3YY-RR        3ZZ-RR
 --------------------------------------------------------
     1   Atom        0.506394     -0.212126     -0.294268
     2   Atom       -0.259355      0.102392      0.156963
     3   Atom        0.603258     -0.323837     -0.279421
     4   Atom       -0.259355      0.102392      0.156963
     5   Atom        0.506394     -0.212126     -0.294268
     6   Atom       -0.015248     -0.005439      0.020687
     7   Atom       -0.012173      0.033582     -0.021408
     8   Atom       -0.008007      0.000433      0.007574
     9   Atom       -0.006037     -0.040056      0.046093
    10   Atom       -0.008007      0.000433      0.007574
    11   Atom       -0.012173      0.033582     -0.021408
 --------------------------------------------------------
                        XY            XZ            YZ
 --------------------------------------------------------
     1   Atom        0.000000      0.000000      0.085238
     2   Atom       -0.000000      0.000000     -0.000472
     3   Atom       -0.000000      0.000000     -0.000000
     4   Atom       -0.000000     -0.000000      0.000472
     5   Atom        0.000000      0.000000     -0.085238
     6   Atom        0.000000     -0.000000      0.000000
     7   Atom        0.000000      0.000000     -0.040932
     8   Atom        0.000000      0.000000     -0.008747
     9   Atom       -0.000000     -0.000000     -0.000000
    10   Atom        0.000000     -0.000000      0.008747
    11   Atom        0.000000      0.000000      0.040932
 --------------------------------------------------------


 ---------------------------------------------------------------------------------
              Anisotropic Spin Dipole Couplings in Principal Axis System
 ---------------------------------------------------------------------------------

       Atom             a.u.   MegaHertz   Gauss  10(-4) cm-1        Axes

              Baa    -0.3478   -46.673   -16.654   -15.569 -0.0000 -0.5319  0.8468
     1 C(13)  Bbb    -0.1586   -21.280    -7.593    -7.098  0.0000  0.8468  0.5319
              Bcc     0.5064    67.953    24.247    22.667  1.0000 -0.0000  0.0000
 
              Baa    -0.2594   -34.803   -12.419   -11.609  1.0000  0.0000 -0.0000
     2 C(13)  Bbb     0.1024    13.739     4.903     4.583 -0.0000  1.0000  0.0086
              Bcc     0.1570    21.064     7.516     7.026  0.0000 -0.0086  1.0000
 
              Baa    -0.3238   -43.456   -15.506   -14.495  0.0000  1.0000  0.0000
     3 C(13)  Bbb    -0.2794   -37.496   -13.379   -12.507  0.0000  0.0000  1.0000
              Bcc     0.6033    80.951    28.885    27.002  1.0000 -0.0000  0.0000
 
              Baa    -0.2594   -34.803   -12.419   -11.609  1.0000  0.0000  0.0000
     4 C(13)  Bbb     0.1024    13.739     4.903     4.583 -0.0000  1.0000 -0.0086
              Bcc     0.1570    21.064     7.516     7.026 -0.0000  0.0086  1.0000
 
              Baa    -0.3478   -46.673   -16.654   -15.569 -0.0000  0.5319  0.8468
     5 C(13)  Bbb    -0.1586   -21.280    -7.593    -7.098 -0.0000  0.8468 -0.5319
              Bcc     0.5064    67.953    24.247    22.667  1.0000  0.0000  0.0000
 
              Baa    -0.0152    -8.135    -2.903    -2.714  1.0000 -0.0000  0.0000
     6 H(1)   Bbb    -0.0054    -2.902    -1.036    -0.968  0.0000  1.0000 -0.0000
              Bcc     0.0207    11.038     3.938     3.682 -0.0000  0.0000  1.0000
 
              Baa    -0.0432   -23.062    -8.229    -7.692 -0.0000  0.4703  0.8825
     7 H(1)   Bbb    -0.0122    -6.495    -2.318    -2.167  1.0000  0.0000  0.0000
              Bcc     0.0554    29.557    10.547     9.859 -0.0000  0.8825 -0.4703
 
              Baa    -0.0080    -4.272    -1.524    -1.425  1.0000  0.0000  0.0000
     8 H(1)   Bbb    -0.0054    -2.905    -1.036    -0.969 -0.0000  0.8300  0.5577
              Bcc     0.0135     7.177     2.561     2.394  0.0000 -0.5577  0.8300
 
              Baa    -0.0401   -21.372    -7.626    -7.129 -0.0000  1.0000 -0.0000
     9 H(1)   Bbb    -0.0060    -3.221    -1.149    -1.074  1.0000  0.0000 -0.0000
              Bcc     0.0461    24.593     8.775     8.203  0.0000  0.0000  1.0000
 
              Baa    -0.0080    -4.272    -1.524    -1.425  1.0000 -0.0000  0.0000
    10 H(1)   Bbb    -0.0054    -2.905    -1.036    -0.969  0.0000  0.8300 -0.5577
              Bcc     0.0135     7.177     2.561     2.394  0.0000  0.5577  0.8300
 
              Baa    -0.0432   -23.062    -8.229    -7.692 -0.0000 -0.4703  0.8825
    11 H(1)   Bbb    -0.0122    -6.495    -2.318    -2.167  1.0000 -0.0000  0.0000
              Bcc     0.0554    29.557    10.547     9.859  0.0000  0.8825  0.4703
 

 ---------------------------------------------------------------------------------

 No NMR shielding tensors so no spin-rotation constants.
 Leave Link  601 at Tue Feb 25 12:19:52 2020, MaxMem=  6710886400 cpu:               4.9 elap:               0.3
 (Enter /opt/ohpc/pub/libs/gaussian/g16-A.03/haswell/g16/l9999.exe)

 Test job not archived.
 1\1\GINC-HASWELL008\SP\ULC-wHPBE\6-31G\C5H6(1+,2)\SMGO234\25-Feb-2020\
 0\\#P uLC-wHPBE/6-31G iop(3/107=0280700000, 3/108=0280700000) scf=(con
 ver=6,fermi,ndamp=35,noincfock,novaracc,vshift=500,xqc)\\H6 C5\\1,2\C,
 0,-1.206512,0.69658,0.\C,0,-1.206512,-0.69658,0.\C,0,0.,-1.39316,0.\C,
 0,1.206512,-0.69658,0.\C,0,1.206512,0.69658,0.\H,0,0.,2.482681,0.\H,0,
 -2.150065,1.24134,0.\H,0,-2.150065,-1.24134,0.\H,0,0.,-2.482681,0.\H,0
 ,2.150065,-1.24134,0.\H,0,2.150065,1.24134,0.\\Version=ES64L-G16RevA.0
 3\State=2-B1\HF=-193.3131301\S2=0.935029\S2-1=0.\S2A=0.774505\RMSD=5.3
 34e-07\Dipole=0.,1.0831162,0.\Quadrupole=4.146195,6.1161015,-10.262296
 4,0.,0.,0.\PG=C02V [C2(H1C1H1),SGV(C4H4)]\\@


 I think that all right-thinking people in this
 country are sick and tired of being told that
 ordinary, decent people are fed up in this country
 with being sick and tired.  I'm certainly not!
 But I'm sick and tired of being told that I am!
                               -- Monty Python
 Job cpu time:       0 days  0 hours  1 minutes  4.4 seconds.
 Elapsed time:       0 days  0 hours  0 minutes  4.3 seconds.
 File lengths (MBytes):  RWF=    272 Int=      0 D2E=      0 Chk=     32 Scr=     32
 Normal termination of Gaussian 16 at Tue Feb 25 12:19:52 2020.
