 Entering Gaussian System, Link 0=g16
 Input=1b_tune_c9.gjf
 Output=1b_tune_c9.log
 Initial command:
 /opt/ohpc/pub/libs/gaussian/g16-A.03/haswell/g16/l1.exe "/scratch/smgo234/Ocelot/test/1b/tuning_1b_ocycle0/Gau-35776.inp" -scrdir="/scratch/smgo234/Ocelot/test/1b/tuning_1b_ocycle0/"
 Entering Link 1 = /opt/ohpc/pub/libs/gaussian/g16-A.03/haswell/g16/l1.exe PID=     35777.
  
 Copyright (c) 1988,1990,1992,1993,1995,1998,2003,2009,2016,
            Gaussian, Inc.  All Rights Reserved.
  
 This is part of the Gaussian(R) 16 program.  It is based on
 the Gaussian(R) 09 system (copyright 2009, Gaussian, Inc.),
 the Gaussian(R) 03 system (copyright 2003, Gaussian, Inc.),
 the Gaussian(R) 98 system (copyright 1998, Gaussian, Inc.),
 the Gaussian(R) 94 system (copyright 1995, Gaussian, Inc.),
 the Gaussian 92(TM) system (copyright 1992, Gaussian, Inc.),
 the Gaussian 90(TM) system (copyright 1990, Gaussian, Inc.),
 the Gaussian 88(TM) system (copyright 1988, Gaussian, Inc.),
 the Gaussian 86(TM) system (copyright 1986, Carnegie Mellon
 University), and the Gaussian 82(TM) system (copyright 1983,
 Carnegie Mellon University). Gaussian is a federally registered
 trademark of Gaussian, Inc.
  
 This software contains proprietary and confidential information,
 including trade secrets, belonging to Gaussian, Inc.
  
 This software is provided under written license and may be
 used, copied, transmitted, or stored only in accord with that
 written license.
  
 The following legend is applicable only to US Government
 contracts under FAR:
  
                    RESTRICTED RIGHTS LEGEND
  
 Use, reproduction and disclosure by the US Government is
 subject to restrictions as set forth in subparagraphs (a)
 and (c) of the Commercial Computer Software - Restricted
 Rights clause in FAR 52.227-19.
  
 Gaussian, Inc.
 340 Quinnipiac St., Bldg. 40, Wallingford CT 06492
  
  
 ---------------------------------------------------------------
 Warning -- This program may not be used in any manner that
 competes with the business of Gaussian, Inc. or will provide
 assistance to any competitor of Gaussian, Inc.  The licensee
 of this program is prohibited from giving any competitor of
 Gaussian, Inc. access to this program.  By using this program,
 the user acknowledges that Gaussian, Inc. is engaged in the
 business of creating and licensing software in the field of
 computational chemistry and represents and warrants to the
 licensee that it is not a competitor of Gaussian, Inc. and that
 it will not use this program in any manner prohibited above.
 ---------------------------------------------------------------
  

 Cite this work as:
 Gaussian 16, Revision A.03,
 M. J. Frisch, G. W. Trucks, H. B. Schlegel, G. E. Scuseria, 
 M. A. Robb, J. R. Cheeseman, G. Scalmani, V. Barone, 
 G. A. Petersson, H. Nakatsuji, X. Li, M. Caricato, A. V. Marenich, 
 J. Bloino, B. G. Janesko, R. Gomperts, B. Mennucci, H. P. Hratchian, 
 J. V. Ortiz, A. F. Izmaylov, J. L. Sonnenberg, D. Williams-Young, 
 F. Ding, F. Lipparini, F. Egidi, J. Goings, B. Peng, A. Petrone, 
 T. Henderson, D. Ranasinghe, V. G. Zakrzewski, J. Gao, N. Rega, 
 G. Zheng, W. Liang, M. Hada, M. Ehara, K. Toyota, R. Fukuda, 
 J. Hasegawa, M. Ishida, T. Nakajima, Y. Honda, O. Kitao, H. Nakai, 
 T. Vreven, K. Throssell, J. A. Montgomery, Jr., J. E. Peralta, 
 F. Ogliaro, M. J. Bearpark, J. J. Heyd, E. N. Brothers, K. N. Kudin, 
 V. N. Staroverov, T. A. Keith, R. Kobayashi, J. Normand, 
 K. Raghavachari, A. P. Rendell, J. C. Burant, S. S. Iyengar, 
 J. Tomasi, M. Cossi, J. M. Millam, M. Klene, C. Adamo, R. Cammi, 
 J. W. Ochterski, R. L. Martin, K. Morokuma, O. Farkas, 
 J. B. Foresman, and D. J. Fox, Gaussian, Inc., Wallingford CT, 2016.
 
 ******************************************
 Gaussian 16:  ES64L-G16RevA.03 25-Dec-2016
                25-Feb-2020 
 ******************************************
 %mem=50GB
 %nproc=16
 Will use up to   16 processors via shared memory.
 ----------------------------------------------------------------------
 #P uLC-wHPBE/6-31G iop(3/107=0274100000, 3/108=0274100000) scf=(conver
 =6,fermi,ndamp=35,noincfock,novaracc,vshift=500,xqc)
 ----------------------------------------------------------------------
 1/38=1,172=1/1;
 2/12=2,17=6,18=5,40=1/2;
 3/5=1,6=6,11=2,25=1,30=1,74=-71,107=274100000,108=274100000,116=2/1,2,3;
 4//1;
 5/5=100002,6=6,8=3,10=500,13=1,18=-1,22=13,38=1,93=35/2,8;
 6/7=2,8=2,9=2,10=2,28=1/1;
 99/5=1,9=1/99;
 Leave Link    1 at Tue Feb 25 12:20:36 2020, MaxMem=  6710886400 cpu:               9.7 elap:               0.6
 (Enter /opt/ohpc/pub/libs/gaussian/g16-A.03/haswell/g16/l101.exe)
 -----
 H6 C5
 -----
 Symbolic Z-matrix:
 Charge =  1 Multiplicity = 2
 C                    -1.20651   0.69658   0. 
 C                    -1.20651  -0.69658   0. 
 C                     0.       -1.39316   0. 
 C                     1.20651  -0.69658   0. 
 C                     1.20651   0.69658   0. 
 H                     0.        2.48268   0. 
 H                    -2.15007   1.24134   0. 
 H                    -2.15007  -1.24134   0. 
 H                     0.       -2.48268   0. 
 H                     2.15007  -1.24134   0. 
 H                     2.15007   1.24134   0. 
 
 ITRead=  0  0  0  0  0  0  0  0  0  0  0
 MicOpt= -1 -1 -1 -1 -1 -1 -1 -1 -1 -1 -1
 NAtoms=     11 NQM=       11 NQMF=       0 NMMI=      0 NMMIF=      0
                NMic=       0 NMicF=      0.
                    Isotopes and Nuclear Properties:
 (Nuclear quadrupole moments (NQMom) in fm**2, nuclear magnetic moments (NMagM)
  in nuclear magnetons)

  Atom         1           2           3           4           5           6           7           8           9          10
 IAtWgt=          12          12          12          12          12           1           1           1           1           1
 AtmWgt=  12.0000000  12.0000000  12.0000000  12.0000000  12.0000000   1.0078250   1.0078250   1.0078250   1.0078250   1.0078250
 NucSpn=           0           0           0           0           0           1           1           1           1           1
 AtZEff=  -0.0000000  -0.0000000  -0.0000000  -0.0000000  -0.0000000  -0.0000000  -0.0000000  -0.0000000  -0.0000000  -0.0000000
 NQMom=    0.0000000   0.0000000   0.0000000   0.0000000   0.0000000   0.0000000   0.0000000   0.0000000   0.0000000   0.0000000
 NMagM=    0.0000000   0.0000000   0.0000000   0.0000000   0.0000000   2.7928460   2.7928460   2.7928460   2.7928460   2.7928460
 AtZNuc=   6.0000000   6.0000000   6.0000000   6.0000000   6.0000000   1.0000000   1.0000000   1.0000000   1.0000000   1.0000000

  Atom        11
 IAtWgt=           1
 AtmWgt=   1.0078250
 NucSpn=           1
 AtZEff=  -0.0000000
 NQMom=    0.0000000
 NMagM=    2.7928460
 AtZNuc=   1.0000000
 Leave Link  101 at Tue Feb 25 12:20:36 2020, MaxMem=  6710886400 cpu:               2.2 elap:               0.2
 (Enter /opt/ohpc/pub/libs/gaussian/g16-A.03/haswell/g16/l202.exe)
                          Input orientation:                          
 ---------------------------------------------------------------------
 Center     Atomic      Atomic             Coordinates (Angstroms)
 Number     Number       Type             X           Y           Z
 ---------------------------------------------------------------------
      1          6           0       -1.206512    0.696580    0.000000
      2          6           0       -1.206512   -0.696580    0.000000
      3          6           0        0.000000   -1.393160    0.000000
      4          6           0        1.206512   -0.696580    0.000000
      5          6           0        1.206512    0.696580    0.000000
      6          1           0        0.000000    2.482681    0.000000
      7          1           0       -2.150065    1.241340    0.000000
      8          1           0       -2.150065   -1.241340    0.000000
      9          1           0        0.000000   -2.482681    0.000000
     10          1           0        2.150065   -1.241340    0.000000
     11          1           0        2.150065    1.241340    0.000000
 ---------------------------------------------------------------------
                    Distance matrix (angstroms):
                    1          2          3          4          5
     1  C    0.000000
     2  C    1.393160   0.000000
     3  C    2.413024   1.393160   0.000000
     4  C    2.786320   2.413024   1.393160   0.000000
     5  C    2.413024   2.786320   2.413024   1.393160   0.000000
     6  H    2.155418   3.400496   3.875841   3.400496   2.155418
     7  H    1.089521   2.155418   3.400496   3.875841   3.400496
     8  H    2.155418   1.089521   2.155418   3.400496   3.875841
     9  H    3.400496   2.155418   1.089521   2.155418   3.400496
    10  H    3.875841   3.400496   2.155418   1.089521   2.155418
    11  H    3.400496   3.875841   3.400496   2.155418   1.089521
                    6          7          8          9         10
     6  H    0.000000
     7  H    2.482681   0.000000
     8  H    4.300129   2.482680   0.000000
     9  H    4.965362   4.300129   2.482681   0.000000
    10  H    4.300129   4.965362   4.300130   2.482681   0.000000
    11  H    2.482681   4.300130   4.965362   4.300129   2.482680
                   11
    11  H    0.000000
 Stoichiometry    C5H6(1+,2)
 Framework group  C2V[C2(HCH),SGV(C4H4)]
 Deg. of freedom    10
 Full point group                 C2V     NOp   4
 Largest Abelian subgroup         C2V     NOp   4
 Largest concise Abelian subgroup C2      NOp   2
                         Standard orientation:                         
 ---------------------------------------------------------------------
 Center     Atomic      Atomic             Coordinates (Angstroms)
 Number     Number       Type             X           Y           Z
 ---------------------------------------------------------------------
      1          6           0       -0.000000    1.206512   -0.928773
      2          6           0       -0.000000    1.206512    0.464387
      3          6           0        0.000000    0.000000    1.160967
      4          6           0       -0.000000   -1.206512    0.464387
      5          6           0       -0.000000   -1.206512   -0.928773
      6          1           0       -0.000000   -0.000000   -2.714874
      7          1           0       -0.000000    2.150065   -1.473533
      8          1           0       -0.000000    2.150065    1.009147
      9          1           0        0.000000    0.000000    2.250488
     10          1           0       -0.000000   -2.150065    1.009147
     11          1           0       -0.000000   -2.150065   -1.473533
 ---------------------------------------------------------------------
 Rotational constants (GHZ):           8.2868568           5.7099792           3.3806054
 Leave Link  202 at Tue Feb 25 12:20:36 2020, MaxMem=  6710886400 cpu:               0.2 elap:               0.0
 (Enter /opt/ohpc/pub/libs/gaussian/g16-A.03/haswell/g16/l301.exe)
 Standard basis: 6-31G (6D, 7F)
 Ernie: Thresh=  0.10000D-02 Tol=  0.10000D-05 Strict=F.
 There are    27 symmetry adapted cartesian basis functions of A1  symmetry.
 There are     4 symmetry adapted cartesian basis functions of A2  symmetry.
 There are     6 symmetry adapted cartesian basis functions of B1  symmetry.
 There are    20 symmetry adapted cartesian basis functions of B2  symmetry.
 There are    27 symmetry adapted basis functions of A1  symmetry.
 There are     4 symmetry adapted basis functions of A2  symmetry.
 There are     6 symmetry adapted basis functions of B1  symmetry.
 There are    20 symmetry adapted basis functions of B2  symmetry.
    57 basis functions,   134 primitive gaussians,    57 cartesian basis functions
    18 alpha electrons       17 beta electrons
       nuclear repulsion energy       145.0218997931 Hartrees.
 IExCor=33909 DFT=T Ex+Corr=LC-wHPBE ExCW=0 ScaHFX=  1.000000
 ScaDFX=  1.000000  1.000000  1.000000  1.000000 ScalE2=  1.000000  1.000000
 IRadAn=      5 IRanWt=     -1 IRanGd=            0 ICorTp=0 IEmpDi=  4
 HFx  wShort=  0.000000 wLong=  0.274100 cFull=  0.000000 cShort=  0.000000 cLong=  1.000000
 DFx  wShort=  0.000000 wLong=  0.274100 cFull=  0.000000 cShort=  1.000000 cLong=  0.000000
 NAtoms=   11 NActive=   11 NUniq=    7 SFac= 2.47D+00 NAtFMM=   60 NAOKFM=F Big=F
 Integral buffers will be    131072 words long.
 Raffenetti 2 integral format.
 Two-electron integral symmetry is turned on.
 Leave Link  301 at Tue Feb 25 12:20:36 2020, MaxMem=  6710886400 cpu:               0.8 elap:               0.1
 (Enter /opt/ohpc/pub/libs/gaussian/g16-A.03/haswell/g16/l302.exe)
 NPDir=0 NMtPBC=     1 NCelOv=     1 NCel=       1 NClECP=     1 NCelD=      1
         NCelK=      1 NCelE2=     1 NClLst=     1 CellRange=     0.0.
 One-electron integrals computed using PRISM.
 One-electron integral symmetry used in STVInt
 NBasis=    57 RedAO= T EigKep=  2.88D-03  NBF=    27     4     6    20
 NBsUse=    57 1.00D-06 EigRej= -1.00D+00 NBFU=    27     4     6    20
 Precomputing XC quadrature grid using
 IXCGrd= 4 IRadAn=           5 IRanWt=          -1 IRanGd=           0 AccXCQ= 0.00D+00.
 Generated NRdTot=       0 NPtTot=           0 NUsed=           0 NTot=          32
 NSgBfM=    57    57    57    57    57 MxSgAt=    11 MxSgA2=    11.
 Leave Link  302 at Tue Feb 25 12:20:37 2020, MaxMem=  6710886400 cpu:               2.9 elap:               0.2
 (Enter /opt/ohpc/pub/libs/gaussian/g16-A.03/haswell/g16/l303.exe)
 DipDrv:  MaxL=1.
 Leave Link  303 at Tue Feb 25 12:20:37 2020, MaxMem=  6710886400 cpu:               0.4 elap:               0.0
 (Enter /opt/ohpc/pub/libs/gaussian/g16-A.03/haswell/g16/l401.exe)
 ExpMin= 1.61D-01 ExpMax= 3.05D+03 ExpMxC= 4.57D+02 IAcc=3 IRadAn=         5 AccDes= 0.00D+00
 Harris functional with IExCor=33909 and IRadAn=       5 diagonalized for initial guess.
 HarFok:  IExCor=33909 AccDes= 0.00D+00 IRadAn=         5 IDoV= 1 UseB2=F ITyADJ=14
 ICtDFT=  3500011 ScaDFX=  1.000000  1.000000  1.000000  1.000000
 FoFCou: FMM=F IPFlag=           0 FMFlag=      100000 FMFlg1=           0
         NFxFlg=           0 DoJE=T BraDBF=F KetDBF=T FulRan=T
         wScrn=  0.000000 ICntrl=       500 IOpCl=  0 I1Cent=   200000004 NGrid=           0
         NMat0=    1 NMatS0=      1 NMatT0=    0 NMatD0=    1 NMtDS0=    0 NMtDT0=    0
 Petite list used in FoFCou.
 Harris En= -188.427498666082    
 JPrj=0 DoOrth=F DoCkMO=F.
 Initial guess orbital symmetries:
 Alpha Orbitals:
       Occupied  (A1) (B2) (A1) (B2) (A1) (A1) (B2) (A1) (B2) (A1)
                 (A1) (B2) (B2) (A1) (B1) (A1) (A2) (B1)
       Virtual   (B2) (A1) (A2) (B1) (A1) (B2) (A1) (B2) (A1) (A1)
                 (B2) (A1) (B2) (B1) (B2) (A1) (B1) (A1) (A2) (B2)
                 (A1) (A2) (B1) (B2) (A1) (A1) (B2) (A1) (B2) (A1)
                 (A1) (B2) (A1) (A1) (B2) (B2) (A1) (A1) (B2)
 Beta  Orbitals:
       Occupied  (A1) (B2) (A1) (B2) (A1) (A1) (B2) (A1) (B2) (A1)
                 (A1) (B2) (B2) (A1) (B1) (A1) (A2)
       Virtual   (B1) (B2) (A1) (A2) (B1) (A1) (B2) (A1) (B2) (A1)
                 (A1) (B2) (A1) (B2) (B1) (B2) (A1) (B1) (A1) (A2)
                 (B2) (A1) (A2) (B1) (B2) (A1) (A1) (B2) (A1) (B2)
                 (A1) (A1) (B2) (A1) (A1) (B2) (B2) (A1) (A1) (B2)
 The electronic state of the initial guess is 2-B1.
 Initial guess <Sx>= 0.0000 <Sy>= 0.0000 <Sz>= 0.5000 <S**2>= 0.7500 S= 0.5000
 Leave Link  401 at Tue Feb 25 12:20:37 2020, MaxMem=  6710886400 cpu:               4.8 elap:               0.3
 (Enter /opt/ohpc/pub/libs/gaussian/g16-A.03/haswell/g16/l502.exe)
 Keep R1 and R2 ints in memory in symmetry-blocked form, NReq=16815659.
 FoFCou: FMM=F IPFlag=           0 FMFlag=           0 FMFlg1=           0
         NFxFlg=           0 DoJE=F BraDBF=F KetDBF=F FulRan=T
         wScrn=  0.000000 ICntrl=       600 IOpCl=  0 I1Cent=           0 NGrid=           0
         NMat0=    1 NMatS0=   1653 NMatT0=    0 NMatD0=    1 NMtDS0=    0 NMtDT0=    0
 Petite list used in FoFCou.
 UHF open shell SCF:
 Using DIIS extrapolation, IDIIS=    10.
 NGot=  6710886400 LenX=  6710059583 LenY=  6710055893
 Requested convergence on RMS density matrix=1.00D-06 within  32 cycles.
 Requested convergence on MAX density matrix=1.00D-04.
 Requested convergence on             energy=1.00D-04.
 Virtual orbitals will be shifted by   0.500 hartree.
 No special actions if energy rises.
 Dynamic level shift is on during FON iterations.

 Cycle   1  Pass 1  IDiag  1:
 E= -193.191416367871    
 DIIS: error= 5.82D-02 at cycle   1 NSaved=   1.
 NSaved= 1 IEnMin= 1 EnMin= -193.191416367871     IErMin= 1 ErrMin= 5.82D-02
 ErrMax= 5.82D-02  0.00D+00 EMaxC= 1.00D+00 BMatC= 2.94D-01 BMatP= 2.94D-01
 IDIUse=1 WtCom= 1.00D+00 WtEn= 0.00D+00
 Coeff-Com:  0.100D+01
 Coeff:      0.100D+01
 Gap=     0.068 Goal=   None    Shift=    0.500
 T= 1894. Gap= 0.526 NK=0 IS=   19 IE=   57 IFin=   18
          NO(<0.9)=   0  NV(>0.1)=   0     18.00e < EF      0.00e >EF  Err=0.0D+00
 Gap=     0.093 Goal=   None    Shift=    0.500
 T= 1894. Gap= 0.599 NK=0 IS=   18 IE=   57 IFin=   17
          NO(<0.9)=   0  NV(>0.1)=   0     17.00e < EF      0.00e >EF  Err=0.0D+00
 GapD=    0.068 DampG=0.500 DampE=0.500 DampFc=0.2500 IDamp=-1.
 Damping current iteration by 2.50D-01
 RMSDP=7.75D-03 MaxDP=6.05D-02              OVMax= 1.24D-01

 Cycle   2  Pass 1  IDiag  1:
 E= -193.228238299449     Delta-E=       -0.036821931578 Rises=F Damp=T
 DIIS: error= 4.29D-02 at cycle   2 NSaved=   2.
 NSaved= 2 IEnMin= 2 EnMin= -193.228238299449     IErMin= 2 ErrMin= 4.29D-02
 ErrMax= 4.29D-02  0.00D+00 EMaxC= 1.00D+00 BMatC= 1.44D-01 BMatP= 2.94D-01
 IDIUse=1 WtCom= 1.00D+00 WtEn= 0.00D+00
 Coeff-Com: -0.202D+01 0.302D+01
 Coeff:     -0.202D+01 0.302D+01
 Gap=     0.168 Goal=   None    Shift=    0.500
 T= 1838. Gap= 0.648 NK=4 IS=   19 IE=   24 IFin=   18
          NO(<0.9)=   0  NV(>0.1)=   0     18.00e < EF      0.00e >EF  Err=0.0D+00
 Gap=     0.200 Goal=   None    Shift=    0.500
 T= 1838. Gap= 0.702 NK=4 IS=   18 IE=   21 IFin=   17
          NO(<0.9)=   0  NV(>0.1)=   0     17.00e < EF      0.00e >EF  Err=0.0D+00
 GapD=    0.168 DampG=1.000 DampE=0.500 DampFc=0.5000 IDamp=-1.
 Damping current iteration by 5.00D-01
 RMSDP=6.30D-03 MaxDP=5.18D-02 DE=-3.68D-02 OVMax= 5.12D-02

 Cycle   3  Pass 1  IDiag  1:
 E= -193.272997485981     Delta-E=       -0.044759186532 Rises=F Damp=T
 DIIS: error= 2.31D-02 at cycle   3 NSaved=   3.
 NSaved= 3 IEnMin= 3 EnMin= -193.272997485981     IErMin= 3 ErrMin= 2.31D-02
 ErrMax= 2.31D-02  0.00D+00 EMaxC= 1.00D+00 BMatC= 3.15D-02 BMatP= 1.44D-01
 IDIUse=1 WtCom= 1.00D+00 WtEn= 0.00D+00
 Coeff-Com:  0.101D+01-0.258D+01 0.257D+01
 Coeff:      0.101D+01-0.258D+01 0.257D+01
 Gap=     0.198 Goal=   None    Shift=    0.500
 T= 1689. Gap= 0.698 NK=4 IS=   19 IE=   24 IFin=   18
          NO(<0.9)=   0  NV(>0.1)=   0     18.00e < EF      0.00e >EF  Err=0.0D+00
 Gap=     0.253 Goal=   None    Shift=    0.500
 T= 1689. Gap= 0.753 NK=4 IS=   18 IE=   21 IFin=   17
          NO(<0.9)=   0  NV(>0.1)=   0     17.00e < EF      0.00e >EF  Err=0.0D+00
 GapD=    0.198 DampG=1.000 DampE=0.500 DampFc=0.5000 IDamp=-1.
 Damping current iteration by 5.00D-01
 RMSDP=3.17D-03 MaxDP=2.57D-02 DE=-4.48D-02 OVMax= 2.23D-02

 Cycle   4  Pass 1  IDiag  1:
 E= -193.291687631448     Delta-E=       -0.018690145466 Rises=F Damp=T
 DIIS: error= 1.35D-02 at cycle   4 NSaved=   4.
 NSaved= 4 IEnMin= 4 EnMin= -193.291687631448     IErMin= 4 ErrMin= 1.35D-02
 ErrMax= 1.35D-02  0.00D+00 EMaxC= 1.00D+00 BMatC= 8.66D-03 BMatP= 3.15D-02
 IDIUse=1 WtCom= 1.00D+00 WtEn= 0.00D+00
 Coeff-Com:  0.330D+00-0.114D+00-0.218D+01 0.296D+01
 Coeff:      0.330D+00-0.114D+00-0.218D+01 0.296D+01
 Gap=     0.212 Goal=   None    Shift=    0.500
 T= 1421. Gap= 0.712 NK=4 IS=   19 IE=   24 IFin=   18
          NO(<0.9)=   0  NV(>0.1)=   0     18.00e < EF      0.00e >EF  Err=0.0D+00
 Gap=     0.265 Goal=   None    Shift=    0.500
 T= 1421. Gap= 0.766 NK=4 IS=   18 IE=   21 IFin=   17
          NO(<0.9)=   0  NV(>0.1)=   0     17.00e < EF      0.00e >EF  Err=0.0D+00
 GapD=    0.212 DampG=1.000 DampE=0.500 DampFc=0.5000 IDamp=-1.
 Damping current iteration by 5.00D-01
 RMSDP=1.78D-03 MaxDP=1.87D-02 DE=-1.87D-02 OVMax= 1.53D-02

 Cycle   5  Pass 1  IDiag  1:
 E= -193.300759971429     Delta-E=       -0.009072339982 Rises=F Damp=T
 DIIS: error= 8.93D-03 at cycle   5 NSaved=   5.
 NSaved= 5 IEnMin= 5 EnMin= -193.300759971429     IErMin= 5 ErrMin= 8.93D-03
 ErrMax= 8.93D-03  0.00D+00 EMaxC= 1.00D+00 BMatC= 3.04D-03 BMatP= 8.66D-03
 IDIUse=1 WtCom= 1.00D+00 WtEn= 0.00D+00
 Coeff-Com: -0.346D+00 0.744D+00 0.195D+00-0.375D+01 0.415D+01
 Coeff:     -0.346D+00 0.744D+00 0.195D+00-0.375D+01 0.415D+01
 Gap=     0.217 Goal=   None    Shift=    0.500
 T= 1087. Gap= 0.718 NK=4 IS=   19 IE=   24 IFin=   18
          NO(<0.9)=   0  NV(>0.1)=   0     18.00e < EF      0.00e >EF  Err=0.0D+00
 Gap=     0.269 Goal=   None    Shift=    0.500
 T= 1087. Gap= 0.769 NK=4 IS=   18 IE=   21 IFin=   17
          NO(<0.9)=   0  NV(>0.1)=   0     17.00e < EF      0.00e >EF  Err=0.0D+00
 GapD=    0.217 DampG=1.000 DampE=1.000 DampFc=1.0000 IDamp=-1.
 RMSDP=1.27D-03 MaxDP=1.54D-02 DE=-9.07D-03 OVMax= 1.59D-02

 Cycle   6  Pass 1  IDiag  1:
 E= -193.310732803533     Delta-E=       -0.009972832103 Rises=F Damp=F
 DIIS: error= 3.45D-03 at cycle   6 NSaved=   6.
 NSaved= 6 IEnMin= 6 EnMin= -193.310732803533     IErMin= 6 ErrMin= 3.45D-03
 ErrMax= 3.45D-03  0.00D+00 EMaxC= 1.00D+00 BMatC= 3.33D-04 BMatP= 3.04D-03
 IDIUse=1 WtCom= 1.00D+00 WtEn= 0.00D+00
 Coeff-Com:  0.144D+00-0.404D+00 0.409D+00 0.167D+01-0.337D+01 0.255D+01
 Coeff:      0.144D+00-0.404D+00 0.409D+00 0.167D+01-0.337D+01 0.255D+01
 Gap=     0.219 Goal=   None    Shift=    0.500
 T=  748. Gap= 0.719 NK=4 IS=   19 IE=   24 IFin=   18
          NO(<0.9)=   0  NV(>0.1)=   0     18.00e < EF      0.00e >EF  Err=0.0D+00
 Gap=     0.269 Goal=   None    Shift=    0.500
 T=  748. Gap= 0.769 NK=4 IS=   18 IE=   21 IFin=   17
          NO(<0.9)=   0  NV(>0.1)=   0     17.00e < EF      0.00e >EF  Err=0.0D+00
 GapD=    0.219 DampG=1.000 DampE=1.000 DampFc=1.0000 IDamp=-1.
 RMSDP=3.69D-04 MaxDP=4.96D-03 DE=-9.97D-03 OVMax= 1.42D-02

 Cycle   7  Pass 1  IDiag  1:
 E= -193.311262040457     Delta-E=       -0.000529236924 Rises=F Damp=F
 DIIS: error= 2.58D-03 at cycle   7 NSaved=   7.
 NSaved= 7 IEnMin= 7 EnMin= -193.311262040457     IErMin= 7 ErrMin= 2.58D-03
 ErrMax= 2.58D-03  0.00D+00 EMaxC= 1.00D+00 BMatC= 1.63D-04 BMatP= 3.33D-04
 IDIUse=1 WtCom= 1.00D+00 WtEn= 0.00D+00
 Coeff-Com:  0.406D-01-0.373D-01-0.330D+00 0.645D+00-0.112D+00-0.217D+01
 Coeff-Com:  0.296D+01
 Coeff:      0.406D-01-0.373D-01-0.330D+00 0.645D+00-0.112D+00-0.217D+01
 Coeff:      0.296D+01
 Gap=     0.221 Goal=   None    Shift=    0.500
 T=  419. Gap= 0.721 NK=4 IS=   19 IE=   24 IFin=   18
          NO(<0.9)=   0  NV(>0.1)=   0     18.00e < EF      0.00e >EF  Err=0.0D+00
 Gap=     0.269 Goal=   None    Shift=    0.500
 T=  419. Gap= 0.769 NK=4 IS=   18 IE=   21 IFin=   17
          NO(<0.9)=   0  NV(>0.1)=   0     17.00e < EF      0.00e >EF  Err=0.0D+00
 GapD=    0.221 DampG=1.000 DampE=1.000 DampFc=1.0000 IDamp=-1.
 RMSDP=2.98D-04 MaxDP=4.37D-03 DE=-5.29D-04 OVMax= 1.25D-02

 Cycle   8  Pass 1  IDiag  1:
 E= -193.311575490940     Delta-E=       -0.000313450483 Rises=F Damp=F
 DIIS: error= 1.77D-03 at cycle   8 NSaved=   8.
 NSaved= 8 IEnMin= 8 EnMin= -193.311575490940     IErMin= 8 ErrMin= 1.77D-03
 ErrMax= 1.77D-03  0.00D+00 EMaxC= 1.00D+00 BMatC= 8.33D-05 BMatP= 1.63D-04
 IDIUse=1 WtCom= 1.00D+00 WtEn= 0.00D+00
 Coeff-Com: -0.269D-01 0.963D-01-0.185D+00-0.408D+00 0.107D+01-0.165D+01
 Coeff-Com:  0.625D+00 0.148D+01
 Coeff:     -0.269D-01 0.963D-01-0.185D+00-0.408D+00 0.107D+01-0.165D+01
 Coeff:      0.625D+00 0.148D+01
 Gap=     0.222 Goal=   None    Shift=    0.500
 T=   29. Gap= 0.723 NK=4 IS=   19 IE=   24 IFin=   18
          NO(<0.9)=   0  NV(>0.1)=   0     18.00e < EF      0.00e >EF  Err=0.0D+00
 Gap=     0.268 Goal=   None    Shift=    0.500
 T=   29. Gap= 0.768 NK=4 IS=   18 IE=   21 IFin=   17
          NO(<0.9)=   0  NV(>0.1)=   0     17.00e < EF      0.00e >EF  Err=0.0D+00
 GapD=    0.222 DampG=1.000 DampE=1.000 DampFc=1.0000 IDamp=-1.
 RMSDP=1.97D-04 MaxDP=2.52D-03 DE=-3.13D-04 OVMax= 8.36D-03

 Cycle   9  Pass 1  IDiag  1:
 E= -193.311730408567     Delta-E=       -0.000154917627 Rises=F Damp=F
 DIIS: error= 1.34D-03 at cycle   9 NSaved=   9.
 NSaved= 9 IEnMin= 9 EnMin= -193.311730408567     IErMin= 9 ErrMin= 1.34D-03
 ErrMax= 1.34D-03  0.00D+00 EMaxC= 1.00D+00 BMatC= 4.90D-05 BMatP= 8.33D-05
 IDIUse=1 WtCom= 1.00D+00 WtEn= 0.00D+00
 Coeff-Com:  0.639D-02-0.730D-01 0.422D+00-0.493D+00-0.181D+00 0.209D+01
 Coeff-Com: -0.255D+01-0.188D+01 0.367D+01
 Coeff:      0.639D-02-0.730D-01 0.422D+00-0.493D+00-0.181D+00 0.209D+01
 Coeff:     -0.255D+01-0.188D+01 0.367D+01
 Gap=     0.224 Goal=   None    Shift=    0.500
 Gap=     0.267 Goal=   None    Shift=    0.500
 GapD=    0.224 DampG=1.000 DampE=1.000 DampFc=1.0000 IDamp=-1.
 RMSDP=1.96D-04 MaxDP=3.01D-03 DE=-1.55D-04 OVMax= 8.44D-03

 Cycle  10  Pass 1  IDiag  1:
 E= -193.311857719340     Delta-E=       -0.000127310773 Rises=F Damp=F
 DIIS: error= 1.18D-03 at cycle  10 NSaved=  10.
 NSaved=10 IEnMin=10 EnMin= -193.311857719340     IErMin=10 ErrMin= 1.18D-03
 ErrMax= 1.18D-03  0.00D+00 EMaxC= 1.00D+00 BMatC= 3.13D-05 BMatP= 4.90D-05
 IDIUse=1 WtCom= 1.00D+00 WtEn= 0.00D+00
 Coeff-Com:  0.189D-02 0.267D-02-0.280D-01 0.129D+00-0.186D+00 0.147D+00
 Coeff-Com:  0.253D+00-0.376D+00-0.177D+01 0.282D+01
 Coeff:      0.189D-02 0.267D-02-0.280D-01 0.129D+00-0.186D+00 0.147D+00
 Coeff:      0.253D+00-0.376D+00-0.177D+01 0.282D+01
 Gap=     0.226 Goal=   None    Shift=    0.500
 Gap=     0.266 Goal=   None    Shift=    0.500
 GapD=    0.226 DampG=1.000 DampE=1.000 DampFc=1.0000 IDamp=-1.
 RMSDP=1.63D-04 MaxDP=2.95D-03 DE=-1.27D-04 OVMax= 8.11D-03

 Cycle  11  Pass 1  IDiag  1:
 E= -193.311950145830     Delta-E=       -0.000092426490 Rises=F Damp=F
 DIIS: error= 1.07D-03 at cycle  11 NSaved=  11.
 NSaved=11 IEnMin=11 EnMin= -193.311950145830     IErMin=11 ErrMin= 1.07D-03
 ErrMax= 1.07D-03  0.00D+00 EMaxC= 1.00D+00 BMatC= 2.38D-05 BMatP= 3.13D-05
 IDIUse=1 WtCom= 1.00D+00 WtEn= 0.00D+00
 Large coefficients: NSaved= 11 BigCof=   12.11 CofMax=   10.00 Det=-1.59D-08
 Inversion failed.  Reducing to 10 matrices.
 Large coefficients: NSaved= 10 BigCof=   12.10 CofMax=   10.00 Det=-1.59D-08
 Inversion failed.  Reducing to  9 matrices.
 Coeff-Com:  0.126D-01-0.242D+00 0.424D+00-0.318D+00-0.334D+00 0.440D+00
 Coeff-Com:  0.364D+01-0.958D+01 0.697D+01
 Coeff:      0.126D-01-0.242D+00 0.424D+00-0.318D+00-0.334D+00 0.440D+00
 Coeff:      0.364D+01-0.958D+01 0.697D+01
 Gap=     0.229 Goal=   None    Shift=    0.500
 Gap=     0.265 Goal=   None    Shift=    0.500
 GapD=    0.229 DampG=1.000 DampE=1.000 DampFc=1.0000 IDamp=-1.
 RMSDP=2.05D-04 MaxDP=3.92D-03 DE=-9.24D-05 OVMax= 1.11D-02

 Cycle  12  Pass 1  IDiag  1:
 E= -193.312056651264     Delta-E=       -0.000106505434 Rises=F Damp=F
 DIIS: error= 9.85D-04 at cycle  12 NSaved=  10.
 NSaved=10 IEnMin=10 EnMin= -193.312056651264     IErMin=10 ErrMin= 9.85D-04
 ErrMax= 9.85D-04  0.00D+00 EMaxC= 1.00D+00 BMatC= 2.05D-05 BMatP= 2.38D-05
 IDIUse=1 WtCom= 1.00D+00 WtEn= 0.00D+00
 Coeff-Com:  0.197D-01-0.244D+00 0.402D+00-0.252D+00-0.351D+00 0.338D+00
 Coeff-Com:  0.332D+01-0.832D+01 0.563D+01 0.469D+00
 Coeff:      0.197D-01-0.244D+00 0.402D+00-0.252D+00-0.351D+00 0.338D+00
 Coeff:      0.332D+01-0.832D+01 0.563D+01 0.469D+00
 Gap=     0.229 Goal=   None    Shift=    0.500
 Gap=     0.265 Goal=   None    Shift=    0.500
 RMSDP=1.27D-04 MaxDP=2.75D-03 DE=-1.07D-04 OVMax= 7.12D-03

 Cycle  13  Pass 1  IDiag  1:
 E= -193.312118810471     Delta-E=       -0.000062159207 Rises=F Damp=F
 DIIS: error= 9.10D-04 at cycle  13 NSaved=  11.
 NSaved=11 IEnMin=11 EnMin= -193.312118810471     IErMin=11 ErrMin= 9.10D-04
 ErrMax= 9.10D-04  0.00D+00 EMaxC= 1.00D+00 BMatC= 1.76D-05 BMatP= 2.05D-05
 IDIUse=1 WtCom= 1.00D+00 WtEn= 0.00D+00
 Large coefficients: NSaved= 11 BigCof=   13.63 CofMax=   10.00 Det=-7.01D-09
 Inversion failed.  Reducing to 10 matrices.
 Large coefficients: NSaved= 10 BigCof=   13.66 CofMax=   10.00 Det=-7.02D-09
 Inversion failed.  Reducing to  9 matrices.
 Coeff-Com:  0.170D-01-0.148D+00 0.230D+00-0.532D-01-0.134D+01 0.603D+01
 Coeff-Com: -0.715D+01-0.391D+01 0.733D+01
 Coeff:      0.170D-01-0.148D+00 0.230D+00-0.532D-01-0.134D+01 0.603D+01
 Coeff:     -0.715D+01-0.391D+01 0.733D+01
 Gap=     0.234 Goal=   None    Shift=    0.500
 Gap=     0.261 Goal=   None    Shift=    0.500
 RMSDP=3.63D-04 MaxDP=6.93D-03 DE=-6.22D-05 OVMax= 2.03D-02

 Cycle  14  Pass 1  IDiag  1:
 E= -193.312272077709     Delta-E=       -0.000153267238 Rises=F Damp=F
 DIIS: error= 7.99D-04 at cycle  14 NSaved=  10.
 NSaved=10 IEnMin=10 EnMin= -193.312272077709     IErMin=10 ErrMin= 7.99D-04
 ErrMax= 7.99D-04  0.00D+00 EMaxC= 1.00D+00 BMatC= 1.78D-05 BMatP= 1.76D-05
 IDIUse=1 WtCom= 1.00D+00 WtEn= 0.00D+00
 Large coefficients: NSaved= 10 BigCof=   15.65 CofMax=   10.00 Det=-1.60D-08
 Inversion failed.  Reducing to  9 matrices.
 Large coefficients: NSaved=  9 BigCof=   15.76 CofMax=   10.00 Det=-1.81D-08
 Inversion failed.  Reducing to  8 matrices.
 Large coefficients: NSaved=  8 BigCof=   15.73 CofMax=   10.00 Det=-2.48D-08
 Inversion failed.  Reducing to  7 matrices.
 Large coefficients: NSaved=  7 BigCof=   15.63 CofMax=   10.00 Det=-1.63D-08
 Inversion failed.  Reducing to  6 matrices.
 Large coefficients: NSaved=  6 BigCof=   15.04 CofMax=   10.00 Det=-1.68D-08
 Inversion failed.  Reducing to  5 matrices.
 Large coefficients: NSaved=  5 BigCof=   14.45 CofMax=   10.00 Det=-3.39D-08
 Inversion failed.  Reducing to  4 matrices.
 Large coefficients: NSaved=  4 BigCof=   13.95 CofMax=   10.00 Det=-4.65D-08
 Inversion failed.  Reducing to  3 matrices.
 Coeff-Com: -0.366D+01 0.402D+01 0.640D+00
 Coeff:     -0.366D+01 0.402D+01 0.640D+00
 Gap=     0.235 Goal=   None    Shift=    0.500
 Gap=     0.262 Goal=   None    Shift=    0.500
 RMSDP=1.68D-04 MaxDP=3.87D-03 DE=-1.53D-04 OVMax= 9.39D-03

 Cycle  15  Pass 1  IDiag  1:
 E= -193.312335150966     Delta-E=       -0.000063073257 Rises=F Damp=F
 DIIS: error= 7.14D-04 at cycle  15 NSaved=   4.
 NSaved= 4 IEnMin= 4 EnMin= -193.312335150966     IErMin= 4 ErrMin= 7.14D-04
 ErrMax= 7.14D-04  0.00D+00 EMaxC= 1.00D+00 BMatC= 1.26D-05 BMatP= 1.76D-05
 IDIUse=1 WtCom= 1.00D+00 WtEn= 0.00D+00
 Coeff-Com:  0.260D+01-0.335D+01-0.334D+01 0.510D+01
 Coeff:      0.260D+01-0.335D+01-0.334D+01 0.510D+01
 Gap=     0.233 Goal=   None    Shift=    0.500
 Gap=     0.260 Goal=   None    Shift=    0.500
 RMSDP=2.84D-04 MaxDP=5.68D-03 DE=-6.31D-05 OVMax= 1.63D-02

 Cycle  16  Pass 1  IDiag  1:
 E= -193.312420691506     Delta-E=       -0.000085540540 Rises=F Damp=F
 DIIS: error= 6.00D-04 at cycle  16 NSaved=   5.
 NSaved= 5 IEnMin= 5 EnMin= -193.312420691506     IErMin= 5 ErrMin= 6.00D-04
 ErrMax= 6.00D-04  0.00D+00 EMaxC= 1.00D+00 BMatC= 1.28D-05 BMatP= 1.26D-05
 IDIUse=1 WtCom= 1.00D+00 WtEn= 0.00D+00
 Coeff-Com:  0.221D+01-0.217D+01-0.385D+01 0.356D+01 0.125D+01
 Coeff:      0.221D+01-0.217D+01-0.385D+01 0.356D+01 0.125D+01
 Gap=     0.233 Goal=   None    Shift=    0.500
 Gap=     0.260 Goal=   None    Shift=    0.500
 RMSDP=1.88D-04 MaxDP=4.16D-03 DE=-8.55D-05 OVMax= 1.09D-02

 Cycle  17  Pass 1  IDiag  1:
 E= -193.312466622658     Delta-E=       -0.000045931152 Rises=F Damp=F
 DIIS: error= 4.99D-04 at cycle  17 NSaved=   6.
 NSaved= 6 IEnMin= 6 EnMin= -193.312466622658     IErMin= 6 ErrMin= 4.99D-04
 ErrMax= 4.99D-04  0.00D+00 EMaxC= 1.00D+00 BMatC= 8.65D-06 BMatP= 1.26D-05
 IDIUse=1 WtCom= 1.00D+00 WtEn= 0.00D+00
 Coeff-Com: -0.404D+01 0.532D+01 0.310D+01-0.469D+01-0.437D+01 0.567D+01
 Coeff:     -0.404D+01 0.532D+01 0.310D+01-0.469D+01-0.437D+01 0.567D+01
 Gap=     0.233 Goal=   None    Shift=    0.500
 Gap=     0.260 Goal=   None    Shift=    0.500
 RMSDP=1.29D-04 MaxDP=2.81D-03 DE=-4.59D-05 OVMax= 7.68D-03

 Cycle  18  Pass 1  IDiag  1:
 E= -193.312492680267     Delta-E=       -0.000026057609 Rises=F Damp=F
 DIIS: error= 4.37D-04 at cycle  18 NSaved=   7.
 NSaved= 7 IEnMin= 7 EnMin= -193.312492680267     IErMin= 7 ErrMin= 4.37D-04
 ErrMax= 4.37D-04  0.00D+00 EMaxC= 1.00D+00 BMatC= 5.37D-06 BMatP= 8.65D-06
 IDIUse=1 WtCom= 1.00D+00 WtEn= 0.00D+00
 Coeff-Com: -0.856D+00 0.940D+00 0.430D+00-0.482D+00-0.300D+00-0.184D+01
 Coeff-Com:  0.311D+01
 Coeff:     -0.856D+00 0.940D+00 0.430D+00-0.482D+00-0.300D+00-0.184D+01
 Coeff:      0.311D+01
 Gap=     0.232 Goal=   None    Shift=    0.500
 Gap=     0.260 Goal=   None    Shift=    0.500
 RMSDP=1.34D-04 MaxDP=2.85D-03 DE=-2.61D-05 OVMax= 7.68D-03

 Cycle  19  Pass 1  IDiag  1:
 E= -193.312512894967     Delta-E=       -0.000020214701 Rises=F Damp=F
 DIIS: error= 2.93D-04 at cycle  19 NSaved=   8.
 NSaved= 8 IEnMin= 8 EnMin= -193.312512894967     IErMin= 8 ErrMin= 2.93D-04
 ErrMax= 2.93D-04  0.00D+00 EMaxC= 1.00D+00 BMatC= 3.59D-06 BMatP= 5.37D-06
 IDIUse=1 WtCom= 1.00D+00 WtEn= 0.00D+00
 Coeff-Com:  0.291D+01-0.334D+01-0.305D+01 0.355D+01 0.306D+01-0.554D+01
 Coeff-Com:  0.109D+01 0.231D+01
 Coeff:      0.291D+01-0.334D+01-0.305D+01 0.355D+01 0.306D+01-0.554D+01
 Coeff:      0.109D+01 0.231D+01
 Gap=     0.232 Goal=   None    Shift=    0.500
 Gap=     0.260 Goal=   None    Shift=    0.500
 RMSDP=1.03D-04 MaxDP=2.24D-03 DE=-2.02D-05 OVMax= 6.04D-03

 Cycle  20  Pass 1  IDiag  1:
 E= -193.312524326306     Delta-E=       -0.000011431338 Rises=F Damp=F
 DIIS: error= 2.15D-04 at cycle  20 NSaved=   9.
 NSaved= 9 IEnMin= 9 EnMin= -193.312524326306     IErMin= 9 ErrMin= 2.15D-04
 ErrMax= 2.15D-04  0.00D+00 EMaxC= 1.00D+00 BMatC= 2.13D-06 BMatP= 3.59D-06
 IDIUse=1 WtCom= 1.00D+00 WtEn= 0.00D+00
 Coeff-Com:  0.151D+00 0.287D+00-0.677D+00 0.297D+00-0.536D+00 0.120D+01
 Coeff-Com: -0.144D+01-0.798D+00 0.252D+01
 Coeff:      0.151D+00 0.287D+00-0.677D+00 0.297D+00-0.536D+00 0.120D+01
 Coeff:     -0.144D+01-0.798D+00 0.252D+01
 Gap=     0.232 Goal=   None    Shift=    0.500
 Gap=     0.260 Goal=   None    Shift=    0.500
 RMSDP=4.80D-05 MaxDP=1.12D-03 DE=-1.14D-05 OVMax= 2.73D-03

 Cycle  21  Pass 1  IDiag  1:
 E= -193.312528493527     Delta-E=       -0.000004167221 Rises=F Damp=F
 DIIS: error= 1.98D-04 at cycle  21 NSaved=  10.
 NSaved=10 IEnMin=10 EnMin= -193.312528493527     IErMin=10 ErrMin= 1.98D-04
 ErrMax= 1.98D-04  0.00D+00 EMaxC= 1.00D+00 BMatC= 9.48D-07 BMatP= 2.13D-06
 IDIUse=1 WtCom= 1.00D+00 WtEn= 0.00D+00
 Coeff-Com: -0.270D+00 0.548D+00-0.250D-01-0.290D+00-0.715D+00 0.193D+01
 Coeff-Com: -0.192D+01-0.423D-01 0.209D+00 0.158D+01
 Coeff:     -0.270D+00 0.548D+00-0.250D-01-0.290D+00-0.715D+00 0.193D+01
 Coeff:     -0.192D+01-0.423D-01 0.209D+00 0.158D+01
 Gap=     0.232 Goal=   None    Shift=    0.500
 Gap=     0.260 Goal=   None    Shift=    0.500
 RMSDP=4.51D-05 MaxDP=9.92D-04 DE=-4.17D-06 OVMax= 2.56D-03

 Cycle  22  Pass 1  IDiag  1:
 E= -193.312531054941     Delta-E=       -0.000002561414 Rises=F Damp=F
 DIIS: error= 1.50D-04 at cycle  22 NSaved=  11.
 NSaved=11 IEnMin=11 EnMin= -193.312531054941     IErMin=11 ErrMin= 1.50D-04
 ErrMax= 1.50D-04  0.00D+00 EMaxC= 1.00D+00 BMatC= 5.38D-07 BMatP= 9.48D-07
 IDIUse=1 WtCom= 1.00D+00 WtEn= 0.00D+00
 Coeff-Com: -0.171D-01 0.251D+00-0.416D+00 0.119D+00 0.183D-01-0.253D+00
 Coeff-Com:  0.402D+00 0.195D+00 0.684D+00-0.436D+01 0.437D+01
 Coeff:     -0.171D-01 0.251D+00-0.416D+00 0.119D+00 0.183D-01-0.253D+00
 Coeff:      0.402D+00 0.195D+00 0.684D+00-0.436D+01 0.437D+01
 Gap=     0.232 Goal=   None    Shift=    0.500
 Gap=     0.260 Goal=   None    Shift=    0.500
 RMSDP=3.22D-05 MaxDP=7.22D-04 DE=-2.56D-06 OVMax= 1.83D-03

 Cycle  23  Pass 1  IDiag  1:
 E= -193.312532285770     Delta-E=       -0.000001230829 Rises=F Damp=F
 DIIS: error= 1.11D-04 at cycle  23 NSaved=  12.
 NSaved=12 IEnMin=12 EnMin= -193.312532285770     IErMin=12 ErrMin= 1.11D-04
 ErrMax= 1.11D-04  0.00D+00 EMaxC= 1.00D+00 BMatC= 2.79D-07 BMatP= 5.38D-07
 IDIUse=1 WtCom= 1.00D+00 WtEn= 0.00D+00
 Coeff-Com:  0.301D+00-0.250D+00-0.545D+00 0.533D+00 0.279D+00-0.243D+00
 Coeff-Com: -0.462D+00-0.208D-01 0.681D+00 0.985D+00-0.375D+01 0.349D+01
 Coeff:      0.301D+00-0.250D+00-0.545D+00 0.533D+00 0.279D+00-0.243D+00
 Coeff:     -0.462D+00-0.208D-01 0.681D+00 0.985D+00-0.375D+01 0.349D+01
 Gap=     0.232 Goal=   None    Shift=    0.500
 Gap=     0.260 Goal=   None    Shift=    0.500
 RMSDP=2.21D-05 MaxDP=5.17D-04 DE=-1.23D-06 OVMax= 1.26D-03

 Cycle  24  Pass 1  IDiag  1:
 E= -193.312532841297     Delta-E=       -0.000000555527 Rises=F Damp=F
 DIIS: error= 7.77D-05 at cycle  24 NSaved=  13.
 NSaved=13 IEnMin=13 EnMin= -193.312532841297     IErMin=13 ErrMin= 7.77D-05
 ErrMax= 7.77D-05  0.00D+00 EMaxC= 1.00D+00 BMatC= 1.37D-07 BMatP= 2.79D-07
 IDIUse=1 WtCom= 1.00D+00 WtEn= 0.00D+00
 Coeff-Com: -0.221D+00 0.316D+00 0.997D-01-0.215D+00-0.217D+00 0.282D+00
 Coeff-Com:  0.921D-01 0.172D-01-0.552D-01-0.136D+01 0.363D+01-0.604D+01
 Coeff-Com:  0.468D+01
 Coeff:     -0.221D+00 0.316D+00 0.997D-01-0.215D+00-0.217D+00 0.282D+00
 Coeff:      0.921D-01 0.172D-01-0.552D-01-0.136D+01 0.363D+01-0.604D+01
 Coeff:      0.468D+01
 Gap=     0.232 Goal=   None    Shift=    0.500
 Gap=     0.260 Goal=   None    Shift=    0.500
 RMSDP=1.28D-05 MaxDP=3.28D-04 DE=-5.56D-07 OVMax= 7.50D-04

 Cycle  25  Pass 1  IDiag  1:
 E= -193.312533062386     Delta-E=       -0.000000221089 Rises=F Damp=F
 DIIS: error= 5.42D-05 at cycle  25 NSaved=  14.
 NSaved=14 IEnMin=14 EnMin= -193.312533062386     IErMin=14 ErrMin= 5.42D-05
 ErrMax= 5.42D-05  0.00D+00 EMaxC= 1.00D+00 BMatC= 6.09D-08 BMatP= 1.37D-07
 IDIUse=1 WtCom= 1.00D+00 WtEn= 0.00D+00
 Coeff-Com: -0.125D+00 0.189D+00 0.262D-01-0.109D+00-0.977D-01 0.126D+00
 Coeff-Com:  0.213D-01 0.808D-01 0.202D-01-0.960D+00 0.195D+01-0.234D+01
 Coeff-Com:  0.390D+00 0.183D+01
 Coeff:     -0.125D+00 0.189D+00 0.262D-01-0.109D+00-0.977D-01 0.126D+00
 Coeff:      0.213D-01 0.808D-01 0.202D-01-0.960D+00 0.195D+01-0.234D+01
 Coeff:      0.390D+00 0.183D+01
 Gap=     0.232 Goal=   None    Shift=    0.500
 Gap=     0.260 Goal=   None    Shift=    0.500
 RMSDP=8.45D-06 MaxDP=2.16D-04 DE=-2.21D-07 OVMax= 5.03D-04

 Cycle  26  Pass 1  IDiag  1:
 E= -193.312533156207     Delta-E=       -0.000000093821 Rises=F Damp=F
 DIIS: error= 3.68D-05 at cycle  26 NSaved=  15.
 NSaved=15 IEnMin=15 EnMin= -193.312533156207     IErMin=15 ErrMin= 3.68D-05
 ErrMax= 3.68D-05  0.00D+00 EMaxC= 1.00D+00 BMatC= 2.72D-08 BMatP= 6.09D-08
 IDIUse=1 WtCom= 1.00D+00 WtEn= 0.00D+00
 Coeff-Com:  0.246D-01 0.272D-02-0.866D-01 0.530D-01 0.476D-01-0.334D-01
 Coeff-Com: -0.101D+00 0.504D-01 0.175D+00-0.483D-01-0.742D+00 0.204D+01
 Coeff-Com: -0.236D+01-0.390D+00 0.237D+01
 Coeff:      0.246D-01 0.272D-02-0.866D-01 0.530D-01 0.476D-01-0.334D-01
 Coeff:     -0.101D+00 0.504D-01 0.175D+00-0.483D-01-0.742D+00 0.204D+01
 Coeff:     -0.236D+01-0.390D+00 0.237D+01
 Gap=     0.232 Goal=   None    Shift=    0.500
 Gap=     0.260 Goal=   None    Shift=    0.500
 RMSDP=5.15D-06 MaxDP=1.34D-04 DE=-9.38D-08 OVMax= 3.09D-04

 Cycle  27  Pass 1  IDiag  1:
 E= -193.312533194037     Delta-E=       -0.000000037830 Rises=F Damp=F
 DIIS: error= 2.53D-05 at cycle  27 NSaved=  16.
 NSaved=16 IEnMin=16 EnMin= -193.312533194037     IErMin=16 ErrMin= 2.53D-05
 ErrMax= 2.53D-05  0.00D+00 EMaxC= 1.00D+00 BMatC= 1.21D-08 BMatP= 2.72D-08
 IDIUse=1 WtCom= 1.00D+00 WtEn= 0.00D+00
 Coeff-Com: -0.917D-02 0.188D-01-0.176D-01 0.105D-01 0.390D-02 0.876D-02
 Coeff-Com: -0.449D-01 0.775D-02 0.503D-01 0.503D-01-0.179D+00 0.702D-01
 Coeff-Com:  0.517D+00-0.123D+01-0.743D+00 0.248D+01
 Coeff:     -0.917D-02 0.188D-01-0.176D-01 0.105D-01 0.390D-02 0.876D-02
 Coeff:     -0.449D-01 0.775D-02 0.503D-01 0.503D-01-0.179D+00 0.702D-01
 Coeff:      0.517D+00-0.123D+01-0.743D+00 0.248D+01
 Gap=     0.232 Goal=   None    Shift=    0.500
 Gap=     0.260 Goal=   None    Shift=    0.500
 RMSDP=3.46D-06 MaxDP=8.91D-05 DE=-3.78D-08 OVMax= 2.13D-04

 Cycle  28  Pass 1  IDiag  1:
 E= -193.312533210563     Delta-E=       -0.000000016526 Rises=F Damp=F
 DIIS: error= 1.65D-05 at cycle  28 NSaved=  17.
 NSaved=17 IEnMin=17 EnMin= -193.312533210563     IErMin=17 ErrMin= 1.65D-05
 ErrMax= 1.65D-05  0.00D+00 EMaxC= 1.00D+00 BMatC= 5.16D-09 BMatP= 1.21D-08
 IDIUse=1 WtCom= 1.00D+00 WtEn= 0.00D+00
 Coeff-Com: -0.403D-01 0.521D-01 0.279D-01-0.384D-01-0.415D-01 0.493D-01
 Coeff-Com:  0.660D-02-0.145D-02-0.149D-01-0.110D+00 0.347D+00-0.562D+00
 Coeff-Com:  0.354D+00 0.183D+00 0.336D+00-0.293D+01 0.338D+01
 Coeff:     -0.403D-01 0.521D-01 0.279D-01-0.384D-01-0.415D-01 0.493D-01
 Coeff:      0.660D-02-0.145D-02-0.149D-01-0.110D+00 0.347D+00-0.562D+00
 Coeff:      0.354D+00 0.183D+00 0.336D+00-0.293D+01 0.338D+01
 Gap=     0.232 Goal=   None    Shift=    0.500
 Gap=     0.260 Goal=   None    Shift=    0.500
 RMSDP=2.02D-06 MaxDP=5.40D-05 DE=-1.65D-08 OVMax= 1.26D-04

 Cycle  29  Pass 1  IDiag  1:
 E= -193.312533216972     Delta-E=       -0.000000006409 Rises=F Damp=F
 DIIS: error= 1.08D-05 at cycle  29 NSaved=  18.
 NSaved=18 IEnMin=18 EnMin= -193.312533216972     IErMin=18 ErrMin= 1.08D-05
 ErrMax= 1.08D-05  0.00D+00 EMaxC= 1.00D+00 BMatC= 2.13D-09 BMatP= 5.16D-09
 IDIUse=1 WtCom= 1.00D+00 WtEn= 0.00D+00
 Coeff-Com:  0.568D-02-0.529D-02-0.851D-02 0.810D-02 0.813D-02-0.713D-02
 Coeff-Com: -0.182D-01 0.126D-01 0.249D-01-0.198D-02-0.113D+00 0.259D+00
 Coeff-Com: -0.203D+00-0.181D+00 0.109D+00 0.145D+01-0.433D+01 0.399D+01
 Coeff:      0.568D-02-0.529D-02-0.851D-02 0.810D-02 0.813D-02-0.713D-02
 Coeff:     -0.182D-01 0.126D-01 0.249D-01-0.198D-02-0.113D+00 0.259D+00
 Coeff:     -0.203D+00-0.181D+00 0.109D+00 0.145D+01-0.433D+01 0.399D+01
 Gap=     0.232 Goal=   None    Shift=    0.500
 Gap=     0.260 Goal=   None    Shift=    0.500
 RMSDP=1.49D-06 MaxDP=3.89D-05 DE=-6.41D-09 OVMax= 9.42D-05

 Cycle  30  Pass 1  IDiag  1:
 E= -193.312533219793     Delta-E=       -0.000000002821 Rises=F Damp=F
 DIIS: error= 6.68D-06 at cycle  30 NSaved=  19.
 NSaved=19 IEnMin=19 EnMin= -193.312533219793     IErMin=19 ErrMin= 6.68D-06
 ErrMax= 6.68D-06  0.00D+00 EMaxC= 1.00D+00 BMatC= 8.84D-10 BMatP= 2.13D-09
 IDIUse=1 WtCom= 1.00D+00 WtEn= 0.00D+00
 Coeff-Com: -0.142D-01 0.198D-01 0.514D-02-0.106D-01-0.701D-02 0.841D-02
 Coeff-Com:  0.328D-02-0.503D-02-0.456D-02 0.104D-01 0.152D-01-0.761D-01
 Coeff-Com:  0.123D+00-0.126D+00-0.622D-01-0.116D+00 0.142D+01-0.366D+01
 Coeff-Com:  0.348D+01
 Coeff:     -0.142D-01 0.198D-01 0.514D-02-0.106D-01-0.701D-02 0.841D-02
 Coeff:      0.328D-02-0.503D-02-0.456D-02 0.104D-01 0.152D-01-0.761D-01
 Coeff:      0.123D+00-0.126D+00-0.622D-01-0.116D+00 0.142D+01-0.366D+01
 Coeff:      0.348D+01
 Gap=     0.232 Goal=   None    Shift=    0.500
 Gap=     0.260 Goal=   None    Shift=    0.500
 RMSDP=6.47D-07 MaxDP=1.90D-05 DE=-2.82D-09 OVMax= 4.09D-05

 SCF Done:  E(ULC-wHPBE) =  -193.312533220     A.U. after   30 cycles
            NFock= 30  Conv=0.65D-06     -V/T= 2.0082
 <Sx>= 0.0000 <Sy>= 0.0000 <Sz>= 0.5000 <S**2>= 0.9260 S= 0.5845
 <L.S>= 0.000000000000E+00
 KE= 1.917379473432D+02 PE=-7.299849977494D+02 EE= 1.999126173934D+02
 Annihilation of the first spin contaminant:
 S**2 before annihilation     0.9260,   after     0.7722
 Leave Link  502 at Tue Feb 25 12:20:40 2020, MaxMem=  6710886400 cpu:              39.8 elap:               2.5
 (Enter /opt/ohpc/pub/libs/gaussian/g16-A.03/haswell/g16/l508.exe)
 QCSCF skips out because SCF is already converged.
 Leave Link  508 at Tue Feb 25 12:20:40 2020, MaxMem=  6710886400 cpu:               0.1 elap:               0.1
 (Enter /opt/ohpc/pub/libs/gaussian/g16-A.03/haswell/g16/l601.exe)
 Copying SCF densities to generalized density rwf, IOpCl= 1 IROHF=0.

 **********************************************************************

            Population analysis using the SCF density.

 **********************************************************************

 Orbital symmetries:
 Alpha Orbitals:
       Occupied  (B2) (A1) (B2) (A1) (A1) (A1) (B2) (A1) (B2) (A1)
                 (A1) (B2) (B2) (A1) (B1) (A1) (A2) (B1)
       Virtual   (B2) (A1) (A2) (B1) (A1) (B2) (A1) (B2) (A1) (A1)
                 (B2) (A1) (B2) (B1) (B2) (B1) (A1) (A2) (A1) (B2)
                 (A1) (A2) (A1) (B1) (B2) (A1) (B2) (A1) (B2) (A1)
                 (A1) (A1) (B2) (A1) (B2) (B2) (A1) (A1) (B2)
 Beta  Orbitals:
       Occupied  (B2) (A1) (B2) (A1) (A1) (A1) (B2) (A1) (B2) (A1)
                 (A1) (B2) (B2) (A1) (A1) (B1) (A2)
       Virtual   (A1) (B2) (B1) (A2) (B1) (A1) (B2) (A1) (B2) (A1)
                 (A1) (B2) (A1) (B2) (B1) (B2) (A1) (A2) (B1) (A1)
                 (B2) (A1) (A2) (A1) (B2) (B1) (A1) (B2) (A1) (B2)
                 (A1) (A1) (A1) (B2) (A1) (B2) (B2) (A1) (A1) (B2)
 The electronic state is 2-B1.
 Alpha  occ. eigenvalues --  -10.35625 -10.35624 -10.28019 -10.28019 -10.27256
 Alpha  occ. eigenvalues --   -1.14247  -1.05523  -0.99092  -0.88619  -0.81815
 Alpha  occ. eigenvalues --   -0.81158  -0.74109  -0.69558  -0.67305  -0.66877
 Alpha  occ. eigenvalues --   -0.63742  -0.57635  -0.50617
 Alpha virt. eigenvalues --   -0.27450  -0.25923  -0.14470  -0.03826  -0.00109
 Alpha virt. eigenvalues --    0.03836   0.07249   0.08672   0.10030   0.18081
 Alpha virt. eigenvalues --    0.19389   0.27365   0.28881   0.37479   0.39959
 Alpha virt. eigenvalues --    0.47330   0.47389   0.47628   0.49906   0.51132
 Alpha virt. eigenvalues --    0.53076   0.54651   0.55684   0.57421   0.57900
 Alpha virt. eigenvalues --    0.68774   0.72301   0.74019   0.77730   0.77765
 Alpha virt. eigenvalues --    0.83364   0.85017   0.86949   0.93017   1.00055
 Alpha virt. eigenvalues --    1.04721   1.09455   1.32077   1.32709
  Beta  occ. eigenvalues --  -10.34701 -10.34697 -10.28369 -10.28367 -10.26455
  Beta  occ. eigenvalues --   -1.13349  -1.04873  -0.96634  -0.87679  -0.81404
  Beta  occ. eigenvalues --   -0.80365  -0.73635  -0.69265  -0.66698  -0.64428
  Beta  occ. eigenvalues --   -0.63849  -0.55227
  Beta virt. eigenvalues --   -0.29256  -0.23616  -0.23536  -0.11614  -0.01342
  Beta virt. eigenvalues --    0.00155   0.04151   0.07753   0.08766   0.10467
  Beta virt. eigenvalues --    0.18695   0.19863   0.27879   0.29125   0.40207
  Beta virt. eigenvalues --    0.40507   0.47928   0.49075   0.49382   0.50541
  Beta virt. eigenvalues --    0.51673   0.53384   0.55308   0.57492   0.58702
  Beta virt. eigenvalues --    0.58732   0.65211   0.72745   0.73489   0.77822
  Beta virt. eigenvalues --    0.78664   0.83780   0.85236   0.87408   0.94320
  Beta virt. eigenvalues --    1.00284   1.05371   1.10030   1.32836   1.33951
          Condensed to atoms (all electrons):
               1          2          3          4          5          6
     1  C    5.179121   0.512057  -0.061439  -0.041864   0.138937   0.100091
     2  C    0.512057   4.949405   0.494447  -0.059413  -0.041864  -0.003219
     3  C   -0.061439   0.494447   4.845944   0.494447  -0.061439   0.000352
     4  C   -0.041864  -0.059413   0.494447   4.949405   0.512057  -0.003219
     5  C    0.138937  -0.041864  -0.061439   0.512057   5.179121   0.100091
     6  H    0.100091  -0.003219   0.000352  -0.003219   0.100091   0.534300
     7  H    0.348229  -0.028161   0.002580   0.000732  -0.002725  -0.004957
     8  H   -0.024557   0.354444  -0.010583   0.003324   0.000432   0.000105
     9  H    0.004327  -0.029022   0.368599  -0.029022   0.004327  -0.000002
    10  H    0.000432   0.003324  -0.010583   0.354444  -0.024557   0.000105
    11  H   -0.002725   0.000732   0.002580  -0.028161   0.348229  -0.004957
               7          8          9         10         11
     1  C    0.348229  -0.024557   0.004327   0.000432  -0.002725
     2  C   -0.028161   0.354444  -0.029022   0.003324   0.000732
     3  C    0.002580  -0.010583   0.368599  -0.010583   0.002580
     4  C    0.000732   0.003324  -0.029022   0.354444  -0.028161
     5  C   -0.002725   0.000432   0.004327  -0.024557   0.348229
     6  H   -0.004957   0.000105  -0.000002   0.000105  -0.004957
     7  H    0.403289   0.000581  -0.000090  -0.000007   0.000020
     8  H    0.000581   0.384481  -0.002745  -0.000058  -0.000007
     9  H   -0.000090  -0.002745   0.442368  -0.002745  -0.000090
    10  H   -0.000007  -0.000058  -0.002745   0.384481   0.000581
    11  H    0.000020  -0.000007  -0.000090   0.000581   0.403289
          Atomic-Atomic Spin Densities.
               1          2          3          4          5          6
     1  C    0.727196  -0.034765  -0.021314  -0.010555   0.051509  -0.012223
     2  C   -0.034765  -0.301927   0.012901   0.005726  -0.010555  -0.000516
     3  C   -0.021314   0.012901   0.650507   0.012901  -0.021314   0.000001
     4  C   -0.010555   0.005726   0.012901  -0.301927  -0.034765  -0.000516
     5  C    0.051509  -0.010555  -0.021314  -0.034765   0.727196  -0.012223
     6  H   -0.012223  -0.000516   0.000001  -0.000516  -0.012223  -0.277843
     7  H   -0.007423   0.001893  -0.000067   0.000034  -0.000213   0.002258
     8  H   -0.001871   0.004106  -0.001061  -0.000177   0.000195  -0.000013
     9  H   -0.000000   0.000060  -0.001321   0.000060  -0.000000   0.000000
    10  H    0.000195  -0.000177  -0.001061   0.004106  -0.001871  -0.000013
    11  H   -0.000213   0.000034  -0.000067   0.001893  -0.007423   0.002258
               7          8          9         10         11
     1  C   -0.007423  -0.001871  -0.000000   0.000195  -0.000213
     2  C    0.001893   0.004106   0.000060  -0.000177   0.000034
     3  C   -0.000067  -0.001061  -0.001321  -0.001061  -0.000067
     4  C    0.000034  -0.000177   0.000060   0.004106   0.001893
     5  C   -0.000213   0.000195  -0.000000  -0.001871  -0.007423
     6  H    0.002258  -0.000013   0.000000  -0.000013   0.002258
     7  H   -0.031002   0.000063   0.000005  -0.000000  -0.000006
     8  H    0.000063   0.014524   0.000046   0.000006  -0.000000
     9  H    0.000005   0.000046  -0.027523   0.000046   0.000005
    10  H   -0.000000   0.000006   0.000046   0.014524   0.000063
    11  H   -0.000006  -0.000000   0.000005   0.000063  -0.031002
 Mulliken charges and spin densities:
               1          2
     1  C   -0.152609   0.690535
     2  C   -0.152731  -0.323221
     3  C   -0.064906   0.630104
     4  C   -0.152731  -0.323221
     5  C   -0.152609   0.690535
     6  H    0.281311  -0.298830
     7  H    0.280509  -0.034458
     8  H    0.294583   0.015817
     9  H    0.244092  -0.028622
    10  H    0.294583   0.015817
    11  H    0.280509  -0.034458
 Sum of Mulliken charges =   1.00000   1.00000
 Mulliken charges and spin densities with hydrogens summed into heavy atoms:
               1          2
     1  C    0.409210   0.357248
     2  C    0.141852  -0.307403
     3  C    0.179186   0.601481
     4  C    0.141852  -0.307403
     5  C    0.127899   0.656078
 Electronic spatial extent (au):  <R**2>=            374.8644
 Charge=              1.0000 electrons
 Dipole moment (field-independent basis, Debye):
    X=             -0.0000    Y=              0.0000    Z=             -2.7496  Tot=              2.7496
 Quadrupole moment (field-independent basis, Debye-Ang):
   XX=            -32.5419   YY=            -13.1677   ZZ=            -10.5098
   XY=              0.0000   XZ=              0.0000   YZ=             -0.0000
 Traceless Quadrupole moment (field-independent basis, Debye-Ang):
   XX=            -13.8021   YY=              5.5721   ZZ=              8.2300
   XY=              0.0000   XZ=              0.0000   YZ=             -0.0000
 Octapole moment (field-independent basis, Debye-Ang**2):
  XXX=              0.0000  YYY=              0.0000  ZZZ=            -22.3150  XYY=             -0.0000
  XXY=              0.0000  XXZ=              1.6040  XZZ=              0.0000  YZZ=              0.0000
  YYZ=             -3.2492  XYZ=             -0.0000
 Hexadecapole moment (field-independent basis, Debye-Ang**3):
 XXXX=            -33.2224 YYYY=           -180.3457 ZZZZ=            -97.6231 XXXY=             -0.0000
 XXXZ=             -0.0000 YYYX=             -0.0000 YYYZ=             -0.0000 ZZZX=             -0.0000
 ZZZY=              0.0000 XXYY=            -55.3511 XXZZ=            -44.3966 YYZZ=            -50.9111
 XXYZ=              0.0000 YYXZ=              0.0000 ZZXY=             -0.0000
 N-N= 1.450218997931D+02 E-N=-7.299849450452D+02  KE= 1.917379473432D+02
 Symmetry A1   KE= 1.107559445338D+02
 Symmetry A2   KE= 2.409485352163D+00
 Symmetry B1   KE= 3.299572143803D+00
 Symmetry B2   KE= 7.527294531343D+01
 Symmetry A1   SP=-1.427598516181D-16
 Symmetry A2   SP=-2.236840475377D-15
 Symmetry B1   SP= 1.000000000000D+00
 Symmetry B2   SP=-2.180757806258D-14
                          Isotropic Fermi Contact Couplings
        Atom                 a.u.       MegaHertz       Gauss      10(-4) cm-1
     1  C(13)              0.12457     140.03606      49.96835      46.71100
     2  C(13)             -0.05143     -57.81934     -20.63138     -19.28646
     3  C(13)              0.09468     106.43947      37.98025      35.50439
     4  C(13)             -0.05143     -57.81934     -20.63138     -19.28646
     5  C(13)              0.12457     140.03606      49.96835      46.71100
     6  H(1)              -0.10083    -450.67841    -160.81327    -150.33014
     7  H(1)              -0.01278     -57.10396     -20.37611     -19.04783
     8  H(1)               0.00654      29.23843      10.43300       9.75289
     9  H(1)              -0.01032     -46.12051     -16.45694     -15.38414
    10  H(1)               0.00654      29.23843      10.43300       9.75289
    11  H(1)              -0.01278     -57.10396     -20.37611     -19.04783
 --------------------------------------------------------
       Center         ----  Spin Dipole Couplings  ----
                      3XX-RR        3YY-RR        3ZZ-RR
 --------------------------------------------------------
     1   Atom        0.504051     -0.211922     -0.292129
     2   Atom       -0.253672      0.100191      0.153482
     3   Atom        0.600355     -0.321997     -0.278358
     4   Atom       -0.253672      0.100191      0.153482
     5   Atom        0.504051     -0.211922     -0.292129
     6   Atom       -0.015037     -0.005355      0.020392
     7   Atom       -0.011977      0.033189     -0.021212
     8   Atom       -0.007963      0.000569      0.007394
     9   Atom       -0.006038     -0.039845      0.045883
    10   Atom       -0.007963      0.000569      0.007394
    11   Atom       -0.011977      0.033189     -0.021212
 --------------------------------------------------------
                        XY            XZ            YZ
 --------------------------------------------------------
     1   Atom        0.000000      0.000000      0.082671
     2   Atom       -0.000000      0.000000     -0.000705
     3   Atom       -0.000000      0.000000     -0.000000
     4   Atom       -0.000000     -0.000000      0.000705
     5   Atom        0.000000      0.000000     -0.082671
     6   Atom        0.000000     -0.000000      0.000000
     7   Atom        0.000000      0.000000     -0.040478
     8   Atom        0.000000      0.000000     -0.008497
     9   Atom       -0.000000     -0.000000     -0.000000
    10   Atom        0.000000     -0.000000      0.008497
    11   Atom       -0.000000      0.000000      0.040478
 --------------------------------------------------------


 ---------------------------------------------------------------------------------
              Anisotropic Spin Dipole Couplings in Principal Axis System
 ---------------------------------------------------------------------------------

       Atom             a.u.   MegaHertz   Gauss  10(-4) cm-1        Axes

              Baa    -0.3439   -46.150   -16.467   -15.394 -0.0000 -0.5308  0.8475
     1 C(13)  Bbb    -0.1601   -21.489    -7.668    -7.168  0.0000  0.8475  0.5308
              Bcc     0.5041    67.639    24.135    22.562  1.0000 -0.0000  0.0000
 
              Baa    -0.2537   -34.040   -12.146   -11.355  1.0000  0.0000 -0.0000
     2 C(13)  Bbb     0.1002    13.443     4.797     4.484 -0.0000  0.9999  0.0132
              Bcc     0.1535    20.597     7.350     6.870  0.0000 -0.0132  0.9999
 
              Baa    -0.3220   -43.209   -15.418   -14.413 -0.0000  1.0000  0.0000
     3 C(13)  Bbb    -0.2784   -37.353   -13.328   -12.460  0.0000  0.0000  1.0000
              Bcc     0.6004    80.562    28.746    26.873  1.0000  0.0000  0.0000
 
              Baa    -0.2537   -34.040   -12.146   -11.355  1.0000  0.0000  0.0000
     4 C(13)  Bbb     0.1002    13.443     4.797     4.484 -0.0000  0.9999 -0.0132
              Bcc     0.1535    20.597     7.350     6.870 -0.0000  0.0132  0.9999
 
              Baa    -0.3439   -46.150   -16.467   -15.394 -0.0000  0.5308  0.8475
     5 C(13)  Bbb    -0.1601   -21.489    -7.668    -7.168 -0.0000  0.8475 -0.5308
              Bcc     0.5041    67.639    24.135    22.562  1.0000  0.0000  0.0000
 
              Baa    -0.0150    -8.023    -2.863    -2.676  1.0000 -0.0000  0.0000
     6 H(1)   Bbb    -0.0054    -2.857    -1.019    -0.953  0.0000  1.0000 -0.0000
              Bcc     0.0204    10.880     3.882     3.629 -0.0000  0.0000  1.0000
 
              Baa    -0.0428   -22.825    -8.145    -7.614 -0.0000  0.4702  0.8825
     7 H(1)   Bbb    -0.0120    -6.390    -2.280    -2.132  1.0000  0.0000  0.0000
              Bcc     0.0548    29.215    10.425     9.745 -0.0000  0.8825 -0.4702
 
              Baa    -0.0080    -4.249    -1.516    -1.417  1.0000  0.0000  0.0000
     8 H(1)   Bbb    -0.0052    -2.761    -0.985    -0.921 -0.0000  0.8285  0.5600
              Bcc     0.0131     7.010     2.501     2.338  0.0000 -0.5600  0.8285
 
              Baa    -0.0398   -21.260    -7.586    -7.091  0.0000  1.0000 -0.0000
     9 H(1)   Bbb    -0.0060    -3.222    -1.150    -1.075  1.0000 -0.0000 -0.0000
              Bcc     0.0459    24.481     8.735     8.166  0.0000  0.0000  1.0000
 
              Baa    -0.0080    -4.249    -1.516    -1.417  1.0000 -0.0000  0.0000
    10 H(1)   Bbb    -0.0052    -2.761    -0.985    -0.921  0.0000  0.8285 -0.5600
              Bcc     0.0131     7.010     2.501     2.338  0.0000  0.5600  0.8285
 
              Baa    -0.0428   -22.825    -8.145    -7.614 -0.0000 -0.4702  0.8825
    11 H(1)   Bbb    -0.0120    -6.390    -2.280    -2.132  1.0000 -0.0000  0.0000
              Bcc     0.0548    29.215    10.425     9.745  0.0000  0.8825  0.4702
 

 ---------------------------------------------------------------------------------

 No NMR shielding tensors so no spin-rotation constants.
 Leave Link  601 at Tue Feb 25 12:20:40 2020, MaxMem=  6710886400 cpu:               6.8 elap:               0.5
 (Enter /opt/ohpc/pub/libs/gaussian/g16-A.03/haswell/g16/l9999.exe)

 Test job not archived.
 1\1\GINC-HASWELL008\SP\ULC-wHPBE\6-31G\C5H6(1+,2)\SMGO234\25-Feb-2020\
 0\\#P uLC-wHPBE/6-31G iop(3/107=0274100000, 3/108=0274100000) scf=(con
 ver=6,fermi,ndamp=35,noincfock,novaracc,vshift=500,xqc)\\H6 C5\\1,2\C,
 0,-1.206512,0.69658,0.\C,0,-1.206512,-0.69658,0.\C,0,0.,-1.39316,0.\C,
 0,1.206512,-0.69658,0.\C,0,1.206512,0.69658,0.\H,0,0.,2.482681,0.\H,0,
 -2.150065,1.24134,0.\H,0,-2.150065,-1.24134,0.\H,0,0.,-2.482681,0.\H,0
 ,2.150065,-1.24134,0.\H,0,2.150065,1.24134,0.\\Version=ES64L-G16RevA.0
 3\State=2-B1\HF=-193.3125332\S2=0.926041\S2-1=0.\S2A=0.772174\RMSD=6.4
 71e-07\Dipole=0.,1.0817933,0.\Quadrupole=4.1427251,6.1188076,-10.26153
 27,0.,0.,0.\PG=C02V [C2(H1C1H1),SGV(C4H4)]\\@


 ASKING DUMB QUESTIONS IS EASIER THAN CORECTING DUMB MISTAKES.
 Job cpu time:       0 days  0 hours  1 minutes  8.4 seconds.
 Elapsed time:       0 days  0 hours  0 minutes  4.8 seconds.
 File lengths (MBytes):  RWF=    272 Int=      0 D2E=      0 Chk=     32 Scr=     32
 Normal termination of Gaussian 16 at Tue Feb 25 12:20:40 2020.
