 Entering Gaussian System, Link 0=g16
 Input=1b_tune_c11.gjf
 Output=1b_tune_c11.log
 Initial command:
 /opt/ohpc/pub/libs/gaussian/g16-A.03/haswell/g16/l1.exe "/scratch/smgo234/Ocelot/test/1b/tuning_1b_ocycle0/Gau-36460.inp" -scrdir="/scratch/smgo234/Ocelot/test/1b/tuning_1b_ocycle0/"
 Entering Link 1 = /opt/ohpc/pub/libs/gaussian/g16-A.03/haswell/g16/l1.exe PID=     36461.
  
 Copyright (c) 1988,1990,1992,1993,1995,1998,2003,2009,2016,
            Gaussian, Inc.  All Rights Reserved.
  
 This is part of the Gaussian(R) 16 program.  It is based on
 the Gaussian(R) 09 system (copyright 2009, Gaussian, Inc.),
 the Gaussian(R) 03 system (copyright 2003, Gaussian, Inc.),
 the Gaussian(R) 98 system (copyright 1998, Gaussian, Inc.),
 the Gaussian(R) 94 system (copyright 1995, Gaussian, Inc.),
 the Gaussian 92(TM) system (copyright 1992, Gaussian, Inc.),
 the Gaussian 90(TM) system (copyright 1990, Gaussian, Inc.),
 the Gaussian 88(TM) system (copyright 1988, Gaussian, Inc.),
 the Gaussian 86(TM) system (copyright 1986, Carnegie Mellon
 University), and the Gaussian 82(TM) system (copyright 1983,
 Carnegie Mellon University). Gaussian is a federally registered
 trademark of Gaussian, Inc.
  
 This software contains proprietary and confidential information,
 including trade secrets, belonging to Gaussian, Inc.
  
 This software is provided under written license and may be
 used, copied, transmitted, or stored only in accord with that
 written license.
  
 The following legend is applicable only to US Government
 contracts under FAR:
  
                    RESTRICTED RIGHTS LEGEND
  
 Use, reproduction and disclosure by the US Government is
 subject to restrictions as set forth in subparagraphs (a)
 and (c) of the Commercial Computer Software - Restricted
 Rights clause in FAR 52.227-19.
  
 Gaussian, Inc.
 340 Quinnipiac St., Bldg. 40, Wallingford CT 06492
  
  
 ---------------------------------------------------------------
 Warning -- This program may not be used in any manner that
 competes with the business of Gaussian, Inc. or will provide
 assistance to any competitor of Gaussian, Inc.  The licensee
 of this program is prohibited from giving any competitor of
 Gaussian, Inc. access to this program.  By using this program,
 the user acknowledges that Gaussian, Inc. is engaged in the
 business of creating and licensing software in the field of
 computational chemistry and represents and warrants to the
 licensee that it is not a competitor of Gaussian, Inc. and that
 it will not use this program in any manner prohibited above.
 ---------------------------------------------------------------
  

 Cite this work as:
 Gaussian 16, Revision A.03,
 M. J. Frisch, G. W. Trucks, H. B. Schlegel, G. E. Scuseria, 
 M. A. Robb, J. R. Cheeseman, G. Scalmani, V. Barone, 
 G. A. Petersson, H. Nakatsuji, X. Li, M. Caricato, A. V. Marenich, 
 J. Bloino, B. G. Janesko, R. Gomperts, B. Mennucci, H. P. Hratchian, 
 J. V. Ortiz, A. F. Izmaylov, J. L. Sonnenberg, D. Williams-Young, 
 F. Ding, F. Lipparini, F. Egidi, J. Goings, B. Peng, A. Petrone, 
 T. Henderson, D. Ranasinghe, V. G. Zakrzewski, J. Gao, N. Rega, 
 G. Zheng, W. Liang, M. Hada, M. Ehara, K. Toyota, R. Fukuda, 
 J. Hasegawa, M. Ishida, T. Nakajima, Y. Honda, O. Kitao, H. Nakai, 
 T. Vreven, K. Throssell, J. A. Montgomery, Jr., J. E. Peralta, 
 F. Ogliaro, M. J. Bearpark, J. J. Heyd, E. N. Brothers, K. N. Kudin, 
 V. N. Staroverov, T. A. Keith, R. Kobayashi, J. Normand, 
 K. Raghavachari, A. P. Rendell, J. C. Burant, S. S. Iyengar, 
 J. Tomasi, M. Cossi, J. M. Millam, M. Klene, C. Adamo, R. Cammi, 
 J. W. Ochterski, R. L. Martin, K. Morokuma, O. Farkas, 
 J. B. Foresman, and D. J. Fox, Gaussian, Inc., Wallingford CT, 2016.
 
 ******************************************
 Gaussian 16:  ES64L-G16RevA.03 25-Dec-2016
                25-Feb-2020 
 ******************************************
 %mem=50GB
 %nproc=16
 Will use up to   16 processors via shared memory.
 ----------------------------------------------------------------------
 #P uLC-wHPBE/6-31G iop(3/107=0272200000, 3/108=0272200000) scf=(conver
 =6,fermi,ndamp=35,noincfock,novaracc,vshift=500,xqc)
 ----------------------------------------------------------------------
 1/38=1,172=1/1;
 2/12=2,17=6,18=5,40=1/2;
 3/5=1,6=6,11=2,25=1,30=1,74=-71,107=272200000,108=272200000,116=2/1,2,3;
 4//1;
 5/5=100002,6=6,8=3,10=500,13=1,18=-1,22=13,38=1,93=35/2,8;
 6/7=2,8=2,9=2,10=2,28=1/1;
 99/5=1,9=1/99;
 Leave Link    1 at Tue Feb 25 12:20:53 2020, MaxMem=  6710886400 cpu:              10.0 elap:               0.7
 (Enter /opt/ohpc/pub/libs/gaussian/g16-A.03/haswell/g16/l101.exe)
 -----
 H6 C5
 -----
 Symbolic Z-matrix:
 Charge =  1 Multiplicity = 2
 C                    -1.20651   0.69658   0. 
 C                    -1.20651  -0.69658   0. 
 C                     0.       -1.39316   0. 
 C                     1.20651  -0.69658   0. 
 C                     1.20651   0.69658   0. 
 H                     0.        2.48268   0. 
 H                    -2.15007   1.24134   0. 
 H                    -2.15007  -1.24134   0. 
 H                     0.       -2.48268   0. 
 H                     2.15007  -1.24134   0. 
 H                     2.15007   1.24134   0. 
 
 ITRead=  0  0  0  0  0  0  0  0  0  0  0
 MicOpt= -1 -1 -1 -1 -1 -1 -1 -1 -1 -1 -1
 NAtoms=     11 NQM=       11 NQMF=       0 NMMI=      0 NMMIF=      0
                NMic=       0 NMicF=      0.
                    Isotopes and Nuclear Properties:
 (Nuclear quadrupole moments (NQMom) in fm**2, nuclear magnetic moments (NMagM)
  in nuclear magnetons)

  Atom         1           2           3           4           5           6           7           8           9          10
 IAtWgt=          12          12          12          12          12           1           1           1           1           1
 AtmWgt=  12.0000000  12.0000000  12.0000000  12.0000000  12.0000000   1.0078250   1.0078250   1.0078250   1.0078250   1.0078250
 NucSpn=           0           0           0           0           0           1           1           1           1           1
 AtZEff=  -0.0000000  -0.0000000  -0.0000000  -0.0000000  -0.0000000  -0.0000000  -0.0000000  -0.0000000  -0.0000000  -0.0000000
 NQMom=    0.0000000   0.0000000   0.0000000   0.0000000   0.0000000   0.0000000   0.0000000   0.0000000   0.0000000   0.0000000
 NMagM=    0.0000000   0.0000000   0.0000000   0.0000000   0.0000000   2.7928460   2.7928460   2.7928460   2.7928460   2.7928460
 AtZNuc=   6.0000000   6.0000000   6.0000000   6.0000000   6.0000000   1.0000000   1.0000000   1.0000000   1.0000000   1.0000000

  Atom        11
 IAtWgt=           1
 AtmWgt=   1.0078250
 NucSpn=           1
 AtZEff=  -0.0000000
 NQMom=    0.0000000
 NMagM=    2.7928460
 AtZNuc=   1.0000000
 Leave Link  101 at Tue Feb 25 12:20:53 2020, MaxMem=  6710886400 cpu:               1.4 elap:               0.1
 (Enter /opt/ohpc/pub/libs/gaussian/g16-A.03/haswell/g16/l202.exe)
                          Input orientation:                          
 ---------------------------------------------------------------------
 Center     Atomic      Atomic             Coordinates (Angstroms)
 Number     Number       Type             X           Y           Z
 ---------------------------------------------------------------------
      1          6           0       -1.206512    0.696580    0.000000
      2          6           0       -1.206512   -0.696580    0.000000
      3          6           0        0.000000   -1.393160    0.000000
      4          6           0        1.206512   -0.696580    0.000000
      5          6           0        1.206512    0.696580    0.000000
      6          1           0        0.000000    2.482681    0.000000
      7          1           0       -2.150065    1.241340    0.000000
      8          1           0       -2.150065   -1.241340    0.000000
      9          1           0        0.000000   -2.482681    0.000000
     10          1           0        2.150065   -1.241340    0.000000
     11          1           0        2.150065    1.241340    0.000000
 ---------------------------------------------------------------------
                    Distance matrix (angstroms):
                    1          2          3          4          5
     1  C    0.000000
     2  C    1.393160   0.000000
     3  C    2.413024   1.393160   0.000000
     4  C    2.786320   2.413024   1.393160   0.000000
     5  C    2.413024   2.786320   2.413024   1.393160   0.000000
     6  H    2.155418   3.400496   3.875841   3.400496   2.155418
     7  H    1.089521   2.155418   3.400496   3.875841   3.400496
     8  H    2.155418   1.089521   2.155418   3.400496   3.875841
     9  H    3.400496   2.155418   1.089521   2.155418   3.400496
    10  H    3.875841   3.400496   2.155418   1.089521   2.155418
    11  H    3.400496   3.875841   3.400496   2.155418   1.089521
                    6          7          8          9         10
     6  H    0.000000
     7  H    2.482681   0.000000
     8  H    4.300129   2.482680   0.000000
     9  H    4.965362   4.300129   2.482681   0.000000
    10  H    4.300129   4.965362   4.300130   2.482681   0.000000
    11  H    2.482681   4.300130   4.965362   4.300129   2.482680
                   11
    11  H    0.000000
 Stoichiometry    C5H6(1+,2)
 Framework group  C2V[C2(HCH),SGV(C4H4)]
 Deg. of freedom    10
 Full point group                 C2V     NOp   4
 Largest Abelian subgroup         C2V     NOp   4
 Largest concise Abelian subgroup C2      NOp   2
                         Standard orientation:                         
 ---------------------------------------------------------------------
 Center     Atomic      Atomic             Coordinates (Angstroms)
 Number     Number       Type             X           Y           Z
 ---------------------------------------------------------------------
      1          6           0       -0.000000    1.206512   -0.928773
      2          6           0       -0.000000    1.206512    0.464387
      3          6           0        0.000000    0.000000    1.160967
      4          6           0       -0.000000   -1.206512    0.464387
      5          6           0       -0.000000   -1.206512   -0.928773
      6          1           0       -0.000000   -0.000000   -2.714874
      7          1           0       -0.000000    2.150065   -1.473533
      8          1           0       -0.000000    2.150065    1.009147
      9          1           0        0.000000    0.000000    2.250488
     10          1           0       -0.000000   -2.150065    1.009147
     11          1           0       -0.000000   -2.150065   -1.473533
 ---------------------------------------------------------------------
 Rotational constants (GHZ):           8.2868568           5.7099792           3.3806054
 Leave Link  202 at Tue Feb 25 12:20:53 2020, MaxMem=  6710886400 cpu:               0.2 elap:               0.0
 (Enter /opt/ohpc/pub/libs/gaussian/g16-A.03/haswell/g16/l301.exe)
 Standard basis: 6-31G (6D, 7F)
 Ernie: Thresh=  0.10000D-02 Tol=  0.10000D-05 Strict=F.
 There are    27 symmetry adapted cartesian basis functions of A1  symmetry.
 There are     4 symmetry adapted cartesian basis functions of A2  symmetry.
 There are     6 symmetry adapted cartesian basis functions of B1  symmetry.
 There are    20 symmetry adapted cartesian basis functions of B2  symmetry.
 There are    27 symmetry adapted basis functions of A1  symmetry.
 There are     4 symmetry adapted basis functions of A2  symmetry.
 There are     6 symmetry adapted basis functions of B1  symmetry.
 There are    20 symmetry adapted basis functions of B2  symmetry.
    57 basis functions,   134 primitive gaussians,    57 cartesian basis functions
    18 alpha electrons       17 beta electrons
       nuclear repulsion energy       145.0218997931 Hartrees.
 IExCor=33909 DFT=T Ex+Corr=LC-wHPBE ExCW=0 ScaHFX=  1.000000
 ScaDFX=  1.000000  1.000000  1.000000  1.000000 ScalE2=  1.000000  1.000000
 IRadAn=      5 IRanWt=     -1 IRanGd=            0 ICorTp=0 IEmpDi=  4
 HFx  wShort=  0.000000 wLong=  0.272200 cFull=  0.000000 cShort=  0.000000 cLong=  1.000000
 DFx  wShort=  0.000000 wLong=  0.272200 cFull=  0.000000 cShort=  1.000000 cLong=  0.000000
 NAtoms=   11 NActive=   11 NUniq=    7 SFac= 2.47D+00 NAtFMM=   60 NAOKFM=F Big=F
 Integral buffers will be    131072 words long.
 Raffenetti 2 integral format.
 Two-electron integral symmetry is turned on.
 Leave Link  301 at Tue Feb 25 12:20:53 2020, MaxMem=  6710886400 cpu:               0.8 elap:               0.1
 (Enter /opt/ohpc/pub/libs/gaussian/g16-A.03/haswell/g16/l302.exe)
 NPDir=0 NMtPBC=     1 NCelOv=     1 NCel=       1 NClECP=     1 NCelD=      1
         NCelK=      1 NCelE2=     1 NClLst=     1 CellRange=     0.0.
 One-electron integrals computed using PRISM.
 One-electron integral symmetry used in STVInt
 NBasis=    57 RedAO= T EigKep=  2.88D-03  NBF=    27     4     6    20
 NBsUse=    57 1.00D-06 EigRej= -1.00D+00 NBFU=    27     4     6    20
 Precomputing XC quadrature grid using
 IXCGrd= 4 IRadAn=           5 IRanWt=          -1 IRanGd=           0 AccXCQ= 0.00D+00.
 Generated NRdTot=       0 NPtTot=           0 NUsed=           0 NTot=          32
 NSgBfM=    57    57    57    57    57 MxSgAt=    11 MxSgA2=    11.
 Leave Link  302 at Tue Feb 25 12:20:53 2020, MaxMem=  6710886400 cpu:               3.1 elap:               0.2
 (Enter /opt/ohpc/pub/libs/gaussian/g16-A.03/haswell/g16/l303.exe)
 DipDrv:  MaxL=1.
 Leave Link  303 at Tue Feb 25 12:20:53 2020, MaxMem=  6710886400 cpu:               0.4 elap:               0.0
 (Enter /opt/ohpc/pub/libs/gaussian/g16-A.03/haswell/g16/l401.exe)
 ExpMin= 1.61D-01 ExpMax= 3.05D+03 ExpMxC= 4.57D+02 IAcc=3 IRadAn=         5 AccDes= 0.00D+00
 Harris functional with IExCor=33909 and IRadAn=       5 diagonalized for initial guess.
 HarFok:  IExCor=33909 AccDes= 0.00D+00 IRadAn=         5 IDoV= 1 UseB2=F ITyADJ=14
 ICtDFT=  3500011 ScaDFX=  1.000000  1.000000  1.000000  1.000000
 FoFCou: FMM=F IPFlag=           0 FMFlag=      100000 FMFlg1=           0
         NFxFlg=           0 DoJE=T BraDBF=F KetDBF=T FulRan=T
         wScrn=  0.000000 ICntrl=       500 IOpCl=  0 I1Cent=   200000004 NGrid=           0
         NMat0=    1 NMatS0=      1 NMatT0=    0 NMatD0=    1 NMtDS0=    0 NMtDT0=    0
 Petite list used in FoFCou.
 Harris En= -188.457516154493    
 JPrj=0 DoOrth=F DoCkMO=F.
 Initial guess orbital symmetries:
 Alpha Orbitals:
       Occupied  (A1) (B2) (A1) (B2) (A1) (A1) (B2) (A1) (B2) (A1)
                 (A1) (B2) (B2) (A1) (B1) (A1) (A2) (B1)
       Virtual   (B2) (A1) (A2) (B1) (A1) (B2) (A1) (B2) (A1) (A1)
                 (B2) (A1) (B2) (B1) (B2) (A1) (B1) (A1) (A2) (B2)
                 (A1) (A2) (B1) (B2) (A1) (A1) (B2) (A1) (B2) (A1)
                 (A1) (B2) (A1) (A1) (B2) (B2) (A1) (A1) (B2)
 Beta  Orbitals:
       Occupied  (A1) (B2) (A1) (B2) (A1) (A1) (B2) (A1) (B2) (A1)
                 (A1) (B2) (B2) (A1) (B1) (A1) (A2)
       Virtual   (B1) (B2) (A1) (A2) (B1) (A1) (B2) (A1) (B2) (A1)
                 (A1) (B2) (A1) (B2) (B1) (B2) (A1) (B1) (A1) (A2)
                 (B2) (A1) (A2) (B1) (B2) (A1) (A1) (B2) (A1) (B2)
                 (A1) (A1) (B2) (A1) (A1) (B2) (B2) (A1) (A1) (B2)
 The electronic state of the initial guess is 2-B1.
 Initial guess <Sx>= 0.0000 <Sy>= 0.0000 <Sz>= 0.5000 <S**2>= 0.7500 S= 0.5000
 Leave Link  401 at Tue Feb 25 12:20:53 2020, MaxMem=  6710886400 cpu:               4.3 elap:               0.3
 (Enter /opt/ohpc/pub/libs/gaussian/g16-A.03/haswell/g16/l502.exe)
 Keep R1 and R2 ints in memory in symmetry-blocked form, NReq=16815659.
 FoFCou: FMM=F IPFlag=           0 FMFlag=           0 FMFlg1=           0
         NFxFlg=           0 DoJE=F BraDBF=F KetDBF=F FulRan=T
         wScrn=  0.000000 ICntrl=       600 IOpCl=  0 I1Cent=           0 NGrid=           0
         NMat0=    1 NMatS0=   1653 NMatT0=    0 NMatD0=    1 NMtDS0=    0 NMtDT0=    0
 Petite list used in FoFCou.
 UHF open shell SCF:
 Using DIIS extrapolation, IDIIS=    10.
 NGot=  6710886400 LenX=  6710059583 LenY=  6710055893
 Requested convergence on RMS density matrix=1.00D-06 within  32 cycles.
 Requested convergence on MAX density matrix=1.00D-04.
 Requested convergence on             energy=1.00D-04.
 Virtual orbitals will be shifted by   0.500 hartree.
 No special actions if energy rises.
 Dynamic level shift is on during FON iterations.

 Cycle   1  Pass 1  IDiag  1:
 E= -193.190998478711    
 DIIS: error= 5.82D-02 at cycle   1 NSaved=   1.
 NSaved= 1 IEnMin= 1 EnMin= -193.190998478711     IErMin= 1 ErrMin= 5.82D-02
 ErrMax= 5.82D-02  0.00D+00 EMaxC= 1.00D+00 BMatC= 2.95D-01 BMatP= 2.95D-01
 IDIUse=1 WtCom= 1.00D+00 WtEn= 0.00D+00
 Coeff-Com:  0.100D+01
 Coeff:      0.100D+01
 Gap=     0.067 Goal=   None    Shift=    0.500
 T= 1894. Gap= 0.525 NK=0 IS=   19 IE=   57 IFin=   18
          NO(<0.9)=   0  NV(>0.1)=   0     18.00e < EF      0.00e >EF  Err=0.0D+00
 Gap=     0.091 Goal=   None    Shift=    0.500
 T= 1894. Gap= 0.598 NK=0 IS=   18 IE=   57 IFin=   17
          NO(<0.9)=   0  NV(>0.1)=   0     17.00e < EF      0.00e >EF  Err=0.0D+00
 GapD=    0.067 DampG=0.500 DampE=0.500 DampFc=0.2500 IDamp=-1.
 Damping current iteration by 2.50D-01
 RMSDP=7.76D-03 MaxDP=6.05D-02              OVMax= 1.24D-01

 Cycle   2  Pass 1  IDiag  1:
 E= -193.227958417766     Delta-E=       -0.036959939055 Rises=F Damp=T
 DIIS: error= 4.28D-02 at cycle   2 NSaved=   2.
 NSaved= 2 IEnMin= 2 EnMin= -193.227958417766     IErMin= 2 ErrMin= 4.28D-02
 ErrMax= 4.28D-02  0.00D+00 EMaxC= 1.00D+00 BMatC= 1.44D-01 BMatP= 2.95D-01
 IDIUse=1 WtCom= 1.00D+00 WtEn= 0.00D+00
 Coeff-Com: -0.202D+01 0.302D+01
 Coeff:     -0.202D+01 0.302D+01
 Gap=     0.167 Goal=   None    Shift=    0.500
 T= 1838. Gap= 0.647 NK=4 IS=   19 IE=   24 IFin=   18
          NO(<0.9)=   0  NV(>0.1)=   0     18.00e < EF      0.00e >EF  Err=0.0D+00
 Gap=     0.200 Goal=   None    Shift=    0.500
 T= 1838. Gap= 0.701 NK=4 IS=   18 IE=   21 IFin=   17
          NO(<0.9)=   0  NV(>0.1)=   0     17.00e < EF      0.00e >EF  Err=0.0D+00
 GapD=    0.167 DampG=1.000 DampE=0.500 DampFc=0.5000 IDamp=-1.
 Damping current iteration by 5.00D-01
 RMSDP=6.30D-03 MaxDP=5.18D-02 DE=-3.70D-02 OVMax= 5.12D-02

 Cycle   3  Pass 1  IDiag  1:
 E= -193.272847981173     Delta-E=       -0.044889563407 Rises=F Damp=T
 DIIS: error= 2.31D-02 at cycle   3 NSaved=   3.
 NSaved= 3 IEnMin= 3 EnMin= -193.272847981173     IErMin= 3 ErrMin= 2.31D-02
 ErrMax= 2.31D-02  0.00D+00 EMaxC= 1.00D+00 BMatC= 3.15D-02 BMatP= 1.44D-01
 IDIUse=1 WtCom= 1.00D+00 WtEn= 0.00D+00
 Coeff-Com:  0.101D+01-0.257D+01 0.256D+01
 Coeff:      0.101D+01-0.257D+01 0.256D+01
 Gap=     0.198 Goal=   None    Shift=    0.500
 T= 1689. Gap= 0.697 NK=4 IS=   19 IE=   24 IFin=   18
          NO(<0.9)=   0  NV(>0.1)=   0     18.00e < EF      0.00e >EF  Err=0.0D+00
 Gap=     0.252 Goal=   None    Shift=    0.500
 T= 1689. Gap= 0.752 NK=4 IS=   18 IE=   21 IFin=   17
          NO(<0.9)=   0  NV(>0.1)=   0     17.00e < EF      0.00e >EF  Err=0.0D+00
 GapD=    0.198 DampG=1.000 DampE=0.500 DampFc=0.5000 IDamp=-1.
 Damping current iteration by 5.00D-01
 RMSDP=3.16D-03 MaxDP=2.56D-02 DE=-4.49D-02 OVMax= 2.23D-02

 Cycle   4  Pass 1  IDiag  1:
 E= -193.291561510260     Delta-E=       -0.018713529087 Rises=F Damp=T
 DIIS: error= 1.34D-02 at cycle   4 NSaved=   4.
 NSaved= 4 IEnMin= 4 EnMin= -193.291561510260     IErMin= 4 ErrMin= 1.34D-02
 ErrMax= 1.34D-02  0.00D+00 EMaxC= 1.00D+00 BMatC= 8.63D-03 BMatP= 3.15D-02
 IDIUse=1 WtCom= 1.00D+00 WtEn= 0.00D+00
 Coeff-Com:  0.331D+00-0.119D+00-0.217D+01 0.295D+01
 Coeff:      0.331D+00-0.119D+00-0.217D+01 0.295D+01
 Gap=     0.211 Goal=   None    Shift=    0.500
 T= 1420. Gap= 0.711 NK=4 IS=   19 IE=   24 IFin=   18
          NO(<0.9)=   0  NV(>0.1)=   0     18.00e < EF      0.00e >EF  Err=0.0D+00
 Gap=     0.265 Goal=   None    Shift=    0.500
 T= 1420. Gap= 0.765 NK=4 IS=   18 IE=   21 IFin=   17
          NO(<0.9)=   0  NV(>0.1)=   0     17.00e < EF      0.00e >EF  Err=0.0D+00
 GapD=    0.211 DampG=1.000 DampE=0.500 DampFc=0.5000 IDamp=-1.
 Damping current iteration by 5.00D-01
 RMSDP=1.77D-03 MaxDP=1.87D-02 DE=-1.87D-02 OVMax= 1.52D-02

 Cycle   5  Pass 1  IDiag  1:
 E= -193.300630946663     Delta-E=       -0.009069436403 Rises=F Damp=T
 DIIS: error= 8.88D-03 at cycle   5 NSaved=   5.
 NSaved= 5 IEnMin= 5 EnMin= -193.300630946663     IErMin= 5 ErrMin= 8.88D-03
 ErrMax= 8.88D-03  0.00D+00 EMaxC= 1.00D+00 BMatC= 3.03D-03 BMatP= 8.63D-03
 IDIUse=1 WtCom= 1.00D+00 WtEn= 0.00D+00
 Coeff-Com: -0.344D+00 0.740D+00 0.196D+00-0.374D+01 0.415D+01
 Coeff:     -0.344D+00 0.740D+00 0.196D+00-0.374D+01 0.415D+01
 Gap=     0.217 Goal=   None    Shift=    0.500
 T= 1085. Gap= 0.717 NK=4 IS=   19 IE=   24 IFin=   18
          NO(<0.9)=   0  NV(>0.1)=   0     18.00e < EF      0.00e >EF  Err=0.0D+00
 Gap=     0.268 Goal=   None    Shift=    0.500
 T= 1085. Gap= 0.768 NK=4 IS=   18 IE=   21 IFin=   17
          NO(<0.9)=   0  NV(>0.1)=   0     17.00e < EF      0.00e >EF  Err=0.0D+00
 GapD=    0.217 DampG=1.000 DampE=1.000 DampFc=1.0000 IDamp=-1.
 RMSDP=1.26D-03 MaxDP=1.54D-02 DE=-9.07D-03 OVMax= 1.57D-02

 Cycle   6  Pass 1  IDiag  1:
 E= -193.310578458906     Delta-E=       -0.009947512243 Rises=F Damp=F
 DIIS: error= 3.43D-03 at cycle   6 NSaved=   6.
 NSaved= 6 IEnMin= 6 EnMin= -193.310578458906     IErMin= 6 ErrMin= 3.43D-03
 ErrMax= 3.43D-03  0.00D+00 EMaxC= 1.00D+00 BMatC= 3.30D-04 BMatP= 3.03D-03
 IDIUse=1 WtCom= 1.00D+00 WtEn= 0.00D+00
 Coeff-Com:  0.143D+00-0.399D+00 0.401D+00 0.167D+01-0.337D+01 0.255D+01
 Coeff:      0.143D+00-0.399D+00 0.401D+00 0.167D+01-0.337D+01 0.255D+01
 Gap=     0.219 Goal=   None    Shift=    0.500
 T=  745. Gap= 0.719 NK=4 IS=   19 IE=   24 IFin=   18
          NO(<0.9)=   0  NV(>0.1)=   0     18.00e < EF      0.00e >EF  Err=0.0D+00
 Gap=     0.268 Goal=   None    Shift=    0.500
 T=  745. Gap= 0.768 NK=4 IS=   18 IE=   21 IFin=   17
          NO(<0.9)=   0  NV(>0.1)=   0     17.00e < EF      0.00e >EF  Err=0.0D+00
 GapD=    0.219 DampG=1.000 DampE=1.000 DampFc=1.0000 IDamp=-1.
 RMSDP=3.67D-04 MaxDP=4.93D-03 DE=-9.95D-03 OVMax= 1.41D-02

 Cycle   7  Pass 1  IDiag  1:
 E= -193.311101503769     Delta-E=       -0.000523044863 Rises=F Damp=F
 DIIS: error= 2.57D-03 at cycle   7 NSaved=   7.
 NSaved= 7 IEnMin= 7 EnMin= -193.311101503769     IErMin= 7 ErrMin= 2.57D-03
 ErrMax= 2.57D-03  0.00D+00 EMaxC= 1.00D+00 BMatC= 1.61D-04 BMatP= 3.30D-04
 IDIUse=1 WtCom= 1.00D+00 WtEn= 0.00D+00
 Coeff-Com:  0.413D-01-0.391D-01-0.329D+00 0.651D+00-0.122D+00-0.217D+01
 Coeff-Com:  0.297D+01
 Coeff:      0.413D-01-0.391D-01-0.329D+00 0.651D+00-0.122D+00-0.217D+01
 Coeff:      0.297D+01
 Gap=     0.220 Goal=   None    Shift=    0.500
 T=  416. Gap= 0.720 NK=4 IS=   19 IE=   24 IFin=   18
          NO(<0.9)=   0  NV(>0.1)=   0     18.00e < EF      0.00e >EF  Err=0.0D+00
 Gap=     0.268 Goal=   None    Shift=    0.500
 T=  416. Gap= 0.768 NK=4 IS=   18 IE=   21 IFin=   17
          NO(<0.9)=   0  NV(>0.1)=   0     17.00e < EF      0.00e >EF  Err=0.0D+00
 GapD=    0.220 DampG=1.000 DampE=1.000 DampFc=1.0000 IDamp=-1.
 RMSDP=2.96D-04 MaxDP=4.35D-03 DE=-5.23D-04 OVMax= 1.24D-02

 Cycle   8  Pass 1  IDiag  1:
 E= -193.311411881757     Delta-E=       -0.000310377989 Rises=F Damp=F
 DIIS: error= 1.76D-03 at cycle   8 NSaved=   8.
 NSaved= 8 IEnMin= 8 EnMin= -193.311411881757     IErMin= 8 ErrMin= 1.76D-03
 ErrMax= 1.76D-03  0.00D+00 EMaxC= 1.00D+00 BMatC= 8.26D-05 BMatP= 1.61D-04
 IDIUse=1 WtCom= 1.00D+00 WtEn= 0.00D+00
 Coeff-Com: -0.259D-01 0.940D-01-0.184D+00-0.404D+00 0.106D+01-0.165D+01
 Coeff-Com:  0.635D+00 0.148D+01
 Coeff:     -0.259D-01 0.940D-01-0.184D+00-0.404D+00 0.106D+01-0.165D+01
 Coeff:      0.635D+00 0.148D+01
 Gap=     0.222 Goal=   None    Shift=    0.500
 T=   25. Gap= 0.722 NK=4 IS=   19 IE=   24 IFin=   18
          NO(<0.9)=   0  NV(>0.1)=   0     18.00e < EF      0.00e >EF  Err=0.0D+00
 Gap=     0.267 Goal=   None    Shift=    0.500
 T=   25. Gap= 0.768 NK=4 IS=   18 IE=   21 IFin=   17
          NO(<0.9)=   0  NV(>0.1)=   0     17.00e < EF      0.00e >EF  Err=0.0D+00
 GapD=    0.222 DampG=1.000 DampE=1.000 DampFc=1.0000 IDamp=-1.
 RMSDP=1.96D-04 MaxDP=2.51D-03 DE=-3.10D-04 OVMax= 8.31D-03

 Cycle   9  Pass 1  IDiag  1:
 E= -193.311565240150     Delta-E=       -0.000153358393 Rises=F Damp=F
 DIIS: error= 1.34D-03 at cycle   9 NSaved=   9.
 NSaved= 9 IEnMin= 9 EnMin= -193.311565240150     IErMin= 9 ErrMin= 1.34D-03
 ErrMax= 1.34D-03  0.00D+00 EMaxC= 1.00D+00 BMatC= 4.85D-05 BMatP= 8.26D-05
 IDIUse=1 WtCom= 1.00D+00 WtEn= 0.00D+00
 Coeff-Com:  0.547D-02-0.705D-01 0.420D+00-0.500D+00-0.170D+00 0.209D+01
 Coeff-Com: -0.256D+01-0.189D+01 0.367D+01
 Coeff:      0.547D-02-0.705D-01 0.420D+00-0.500D+00-0.170D+00 0.209D+01
 Coeff:     -0.256D+01-0.189D+01 0.367D+01
 Gap=     0.223 Goal=   None    Shift=    0.500
 Gap=     0.266 Goal=   None    Shift=    0.500
 GapD=    0.223 DampG=1.000 DampE=1.000 DampFc=1.0000 IDamp=-1.
 RMSDP=1.95D-04 MaxDP=3.00D-03 DE=-1.53D-04 OVMax= 8.40D-03

 Cycle  10  Pass 1  IDiag  1:
 E= -193.311691166071     Delta-E=       -0.000125925921 Rises=F Damp=F
 DIIS: error= 1.17D-03 at cycle  10 NSaved=  10.
 NSaved=10 IEnMin=10 EnMin= -193.311691166071     IErMin=10 ErrMin= 1.17D-03
 ErrMax= 1.17D-03  0.00D+00 EMaxC= 1.00D+00 BMatC= 3.09D-05 BMatP= 4.85D-05
 IDIUse=1 WtCom= 1.00D+00 WtEn= 0.00D+00
 Coeff-Com:  0.175D-02 0.288D-02-0.281D-01 0.131D+00-0.190D+00 0.153D+00
 Coeff-Com:  0.250D+00-0.377D+00-0.177D+01 0.283D+01
 Coeff:      0.175D-02 0.288D-02-0.281D-01 0.131D+00-0.190D+00 0.153D+00
 Coeff:      0.250D+00-0.377D+00-0.177D+01 0.283D+01
 Gap=     0.225 Goal=   None    Shift=    0.500
 Gap=     0.265 Goal=   None    Shift=    0.500
 GapD=    0.225 DampG=1.000 DampE=1.000 DampFc=1.0000 IDamp=-1.
 RMSDP=1.62D-04 MaxDP=2.94D-03 DE=-1.26D-04 OVMax= 8.07D-03

 Cycle  11  Pass 1  IDiag  1:
 E= -193.311782543415     Delta-E=       -0.000091377344 Rises=F Damp=F
 DIIS: error= 1.06D-03 at cycle  11 NSaved=  11.
 NSaved=11 IEnMin=11 EnMin= -193.311782543415     IErMin=11 ErrMin= 1.06D-03
 ErrMax= 1.06D-03  0.00D+00 EMaxC= 1.00D+00 BMatC= 2.35D-05 BMatP= 3.09D-05
 IDIUse=1 WtCom= 1.00D+00 WtEn= 0.00D+00
 Large coefficients: NSaved= 11 BigCof=   12.08 CofMax=   10.00 Det=-1.59D-08
 Inversion failed.  Reducing to 10 matrices.
 Large coefficients: NSaved= 10 BigCof=   12.07 CofMax=   10.00 Det=-1.59D-08
 Inversion failed.  Reducing to  9 matrices.
 Coeff-Com:  0.134D-01-0.247D+00 0.433D+00-0.328D+00-0.326D+00 0.443D+00
 Coeff-Com:  0.364D+01-0.960D+01 0.698D+01
 Coeff:      0.134D-01-0.247D+00 0.433D+00-0.328D+00-0.326D+00 0.443D+00
 Coeff:      0.364D+01-0.960D+01 0.698D+01
 Gap=     0.228 Goal=   None    Shift=    0.500
 Gap=     0.264 Goal=   None    Shift=    0.500
 GapD=    0.228 DampG=1.000 DampE=1.000 DampFc=1.0000 IDamp=-1.
 RMSDP=2.04D-04 MaxDP=3.90D-03 DE=-9.14D-05 OVMax= 1.11D-02

 Cycle  12  Pass 1  IDiag  1:
 E= -193.311887556221     Delta-E=       -0.000105012805 Rises=F Damp=F
 DIIS: error= 9.77D-04 at cycle  12 NSaved=  10.
 NSaved=10 IEnMin=10 EnMin= -193.311887556221     IErMin=10 ErrMin= 9.77D-04
 ErrMax= 9.77D-04  0.00D+00 EMaxC= 1.00D+00 BMatC= 2.02D-05 BMatP= 2.35D-05
 IDIUse=1 WtCom= 1.00D+00 WtEn= 0.00D+00
 Coeff-Com:  0.205D-01-0.249D+00 0.409D+00-0.260D+00-0.344D+00 0.339D+00
 Coeff-Com:  0.331D+01-0.832D+01 0.562D+01 0.474D+00
 Coeff:      0.205D-01-0.249D+00 0.409D+00-0.260D+00-0.344D+00 0.339D+00
 Coeff:      0.331D+01-0.832D+01 0.562D+01 0.474D+00
 Gap=     0.228 Goal=   None    Shift=    0.500
 Gap=     0.264 Goal=   None    Shift=    0.500
 RMSDP=1.26D-04 MaxDP=2.74D-03 DE=-1.05D-04 OVMax= 7.09D-03

 Cycle  13  Pass 1  IDiag  1:
 E= -193.311948831244     Delta-E=       -0.000061275023 Rises=F Damp=F
 DIIS: error= 9.01D-04 at cycle  13 NSaved=  11.
 NSaved=11 IEnMin=11 EnMin= -193.311948831244     IErMin=11 ErrMin= 9.01D-04
 ErrMax= 9.01D-04  0.00D+00 EMaxC= 1.00D+00 BMatC= 1.73D-05 BMatP= 2.02D-05
 IDIUse=1 WtCom= 1.00D+00 WtEn= 0.00D+00
 Large coefficients: NSaved= 11 BigCof=   13.55 CofMax=   10.00 Det=-6.96D-09
 Inversion failed.  Reducing to 10 matrices.
 Large coefficients: NSaved= 10 BigCof=   13.57 CofMax=   10.00 Det=-6.97D-09
 Inversion failed.  Reducing to  9 matrices.
 Coeff-Com:  0.170D-01-0.146D+00 0.225D+00-0.514D-01-0.132D+01 0.597D+01
 Coeff-Com: -0.709D+01-0.395D+01 0.734D+01
 Coeff:      0.170D-01-0.146D+00 0.225D+00-0.514D-01-0.132D+01 0.597D+01
 Coeff:     -0.709D+01-0.395D+01 0.734D+01
 Gap=     0.233 Goal=   None    Shift=    0.500
 Gap=     0.260 Goal=   None    Shift=    0.500
 RMSDP=3.60D-04 MaxDP=6.88D-03 DE=-6.13D-05 OVMax= 2.02D-02

 Cycle  14  Pass 1  IDiag  1:
 E= -193.312099123398     Delta-E=       -0.000150292154 Rises=F Damp=F
 DIIS: error= 7.89D-04 at cycle  14 NSaved=  10.
 NSaved=10 IEnMin=10 EnMin= -193.312099123398     IErMin=10 ErrMin= 7.89D-04
 ErrMax= 7.89D-04  0.00D+00 EMaxC= 1.00D+00 BMatC= 1.74D-05 BMatP= 1.73D-05
 IDIUse=1 WtCom= 1.00D+00 WtEn= 0.00D+00
 Large coefficients: NSaved= 10 BigCof=   15.49 CofMax=   10.00 Det=-1.60D-08
 Inversion failed.  Reducing to  9 matrices.
 Large coefficients: NSaved=  9 BigCof=   15.60 CofMax=   10.00 Det=-1.81D-08
 Inversion failed.  Reducing to  8 matrices.
 Large coefficients: NSaved=  8 BigCof=   15.55 CofMax=   10.00 Det=-2.46D-08
 Inversion failed.  Reducing to  7 matrices.
 Large coefficients: NSaved=  7 BigCof=   15.47 CofMax=   10.00 Det=-1.62D-08
 Inversion failed.  Reducing to  6 matrices.
 Large coefficients: NSaved=  6 BigCof=   14.91 CofMax=   10.00 Det=-1.67D-08
 Inversion failed.  Reducing to  5 matrices.
 Large coefficients: NSaved=  5 BigCof=   14.31 CofMax=   10.00 Det=-3.39D-08
 Inversion failed.  Reducing to  4 matrices.
 Large coefficients: NSaved=  4 BigCof=   13.84 CofMax=   10.00 Det=-4.66D-08
 Inversion failed.  Reducing to  3 matrices.
 Coeff-Com: -0.366D+01 0.403D+01 0.634D+00
 Coeff:     -0.366D+01 0.403D+01 0.634D+00
 Gap=     0.234 Goal=   None    Shift=    0.500
 Gap=     0.262 Goal=   None    Shift=    0.500
 RMSDP=1.66D-04 MaxDP=3.83D-03 DE=-1.50D-04 OVMax= 9.29D-03

 Cycle  15  Pass 1  IDiag  1:
 E= -193.312160687033     Delta-E=       -0.000061563635 Rises=F Damp=F
 DIIS: error= 7.04D-04 at cycle  15 NSaved=   4.
 NSaved= 4 IEnMin= 4 EnMin= -193.312160687033     IErMin= 4 ErrMin= 7.04D-04
 ErrMax= 7.04D-04  0.00D+00 EMaxC= 1.00D+00 BMatC= 1.23D-05 BMatP= 1.73D-05
 IDIUse=1 WtCom= 1.00D+00 WtEn= 0.00D+00
 Coeff-Com:  0.253D+01-0.328D+01-0.328D+01 0.503D+01
 Coeff:      0.253D+01-0.328D+01-0.328D+01 0.503D+01
 Gap=     0.232 Goal=   None    Shift=    0.500
 Gap=     0.259 Goal=   None    Shift=    0.500
 RMSDP=2.79D-04 MaxDP=5.58D-03 DE=-6.16D-05 OVMax= 1.60D-02

 Cycle  16  Pass 1  IDiag  1:
 E= -193.312243513170     Delta-E=       -0.000082826137 Rises=F Damp=F
 DIIS: error= 5.91D-04 at cycle  16 NSaved=   5.
 NSaved= 5 IEnMin= 5 EnMin= -193.312243513170     IErMin= 5 ErrMin= 5.91D-04
 ErrMax= 5.91D-04  0.00D+00 EMaxC= 1.00D+00 BMatC= 1.25D-05 BMatP= 1.23D-05
 IDIUse=1 WtCom= 1.00D+00 WtEn= 0.00D+00
 Coeff-Com:  0.219D+01-0.216D+01-0.381D+01 0.352D+01 0.126D+01
 Coeff:      0.219D+01-0.216D+01-0.381D+01 0.352D+01 0.126D+01
 Gap=     0.232 Goal=   None    Shift=    0.500
 Gap=     0.260 Goal=   None    Shift=    0.500
 RMSDP=1.86D-04 MaxDP=4.11D-03 DE=-8.28D-05 OVMax= 1.08D-02

 Cycle  17  Pass 1  IDiag  1:
 E= -193.312288229303     Delta-E=       -0.000044716133 Rises=F Damp=F
 DIIS: error= 4.91D-04 at cycle  17 NSaved=   6.
 NSaved= 6 IEnMin= 6 EnMin= -193.312288229303     IErMin= 6 ErrMin= 4.91D-04
 ErrMax= 4.91D-04  0.00D+00 EMaxC= 1.00D+00 BMatC= 8.42D-06 BMatP= 1.23D-05
 IDIUse=1 WtCom= 1.00D+00 WtEn= 0.00D+00
 Coeff-Com: -0.397D+01 0.527D+01 0.298D+01-0.459D+01-0.431D+01 0.562D+01
 Coeff:     -0.397D+01 0.527D+01 0.298D+01-0.459D+01-0.431D+01 0.562D+01
 Gap=     0.232 Goal=   None    Shift=    0.500
 Gap=     0.260 Goal=   None    Shift=    0.500
 RMSDP=1.27D-04 MaxDP=2.77D-03 DE=-4.47D-05 OVMax= 7.59D-03

 Cycle  18  Pass 1  IDiag  1:
 E= -193.312313555501     Delta-E=       -0.000025326198 Rises=F Damp=F
 DIIS: error= 4.30D-04 at cycle  18 NSaved=   7.
 NSaved= 7 IEnMin= 7 EnMin= -193.312313555501     IErMin= 7 ErrMin= 4.30D-04
 ErrMax= 4.30D-04  0.00D+00 EMaxC= 1.00D+00 BMatC= 5.24D-06 BMatP= 8.42D-06
 IDIUse=1 WtCom= 1.00D+00 WtEn= 0.00D+00
 Coeff-Com: -0.959D+00 0.107D+01 0.508D+00-0.598D+00-0.364D+00-0.176D+01
 Coeff-Com:  0.309D+01
 Coeff:     -0.959D+00 0.107D+01 0.508D+00-0.598D+00-0.364D+00-0.176D+01
 Coeff:      0.309D+01
 Gap=     0.231 Goal=   None    Shift=    0.500
 Gap=     0.259 Goal=   None    Shift=    0.500
 RMSDP=1.31D-04 MaxDP=2.79D-03 DE=-2.53D-05 OVMax= 7.51D-03

 Cycle  19  Pass 1  IDiag  1:
 E= -193.312333056052     Delta-E=       -0.000019500551 Rises=F Damp=F
 DIIS: error= 2.90D-04 at cycle  19 NSaved=   8.
 NSaved= 8 IEnMin= 8 EnMin= -193.312333056052     IErMin= 8 ErrMin= 2.90D-04
 ErrMax= 2.90D-04  0.00D+00 EMaxC= 1.00D+00 BMatC= 3.48D-06 BMatP= 5.24D-06
 IDIUse=1 WtCom= 1.00D+00 WtEn= 0.00D+00
 Coeff-Com:  0.292D+01-0.338D+01-0.302D+01 0.354D+01 0.313D+01-0.562D+01
 Coeff-Com:  0.107D+01 0.234D+01
 Coeff:      0.292D+01-0.338D+01-0.302D+01 0.354D+01 0.313D+01-0.562D+01
 Coeff:      0.107D+01 0.234D+01
 Gap=     0.231 Goal=   None    Shift=    0.500
 Gap=     0.259 Goal=   None    Shift=    0.500
 RMSDP=1.03D-04 MaxDP=2.22D-03 DE=-1.95D-05 OVMax= 6.02D-03

 Cycle  20  Pass 1  IDiag  1:
 E= -193.312344294752     Delta-E=       -0.000011238700 Rises=F Damp=F
 DIIS: error= 2.11D-04 at cycle  20 NSaved=   9.
 NSaved= 9 IEnMin= 9 EnMin= -193.312344294752     IErMin= 9 ErrMin= 2.11D-04
 ErrMax= 2.11D-04  0.00D+00 EMaxC= 1.00D+00 BMatC= 2.09D-06 BMatP= 3.48D-06
 IDIUse=1 WtCom= 1.00D+00 WtEn= 0.00D+00
 Coeff-Com:  0.177D+00 0.260D+00-0.712D+00 0.327D+00-0.517D+00 0.119D+01
 Coeff-Com: -0.140D+01-0.868D+00 0.255D+01
 Coeff:      0.177D+00 0.260D+00-0.712D+00 0.327D+00-0.517D+00 0.119D+01
 Coeff:     -0.140D+01-0.868D+00 0.255D+01
 Gap=     0.231 Goal=   None    Shift=    0.500
 Gap=     0.259 Goal=   None    Shift=    0.500
 RMSDP=4.81D-05 MaxDP=1.12D-03 DE=-1.12D-05 OVMax= 2.74D-03

 Cycle  21  Pass 1  IDiag  1:
 E= -193.312348413473     Delta-E=       -0.000004118721 Rises=F Damp=F
 DIIS: error= 1.94D-04 at cycle  21 NSaved=  10.
 NSaved=10 IEnMin=10 EnMin= -193.312348413473     IErMin=10 ErrMin= 1.94D-04
 ErrMax= 1.94D-04  0.00D+00 EMaxC= 1.00D+00 BMatC= 9.29D-07 BMatP= 2.09D-06
 IDIUse=1 WtCom= 1.00D+00 WtEn= 0.00D+00
 Coeff-Com: -0.234D+00 0.509D+00-0.747D-01-0.240D+00-0.684D+00 0.188D+01
 Coeff-Com: -0.187D+01-0.961D-01 0.252D+00 0.156D+01
 Coeff:     -0.234D+00 0.509D+00-0.747D-01-0.240D+00-0.684D+00 0.188D+01
 Coeff:     -0.187D+01-0.961D-01 0.252D+00 0.156D+01
 Gap=     0.231 Goal=   None    Shift=    0.500
 Gap=     0.259 Goal=   None    Shift=    0.500
 RMSDP=4.47D-05 MaxDP=9.83D-04 DE=-4.12D-06 OVMax= 2.54D-03

 Cycle  22  Pass 1  IDiag  1:
 E= -193.312350912851     Delta-E=       -0.000002499378 Rises=F Damp=F
 DIIS: error= 1.47D-04 at cycle  22 NSaved=  11.
 NSaved=11 IEnMin=11 EnMin= -193.312350912851     IErMin=11 ErrMin= 1.47D-04
 ErrMax= 1.47D-04  0.00D+00 EMaxC= 1.00D+00 BMatC= 5.25D-07 BMatP= 9.29D-07
 IDIUse=1 WtCom= 1.00D+00 WtEn= 0.00D+00
 Coeff-Com: -0.556D-02 0.228D+00-0.408D+00 0.121D+00 0.351D-01-0.273D+00
 Coeff-Com:  0.407D+00 0.206D+00 0.666D+00-0.437D+01 0.439D+01
 Coeff:     -0.556D-02 0.228D+00-0.408D+00 0.121D+00 0.351D-01-0.273D+00
 Coeff:      0.407D+00 0.206D+00 0.666D+00-0.437D+01 0.439D+01
 Gap=     0.231 Goal=   None    Shift=    0.500
 Gap=     0.259 Goal=   None    Shift=    0.500
 RMSDP=3.22D-05 MaxDP=7.22D-04 DE=-2.50D-06 OVMax= 1.83D-03

 Cycle  23  Pass 1  IDiag  1:
 E= -193.312352121042     Delta-E=       -0.000001208191 Rises=F Damp=F
 DIIS: error= 1.08D-04 at cycle  23 NSaved=  12.
 NSaved=12 IEnMin=12 EnMin= -193.312352121042     IErMin=12 ErrMin= 1.08D-04
 ErrMax= 1.08D-04  0.00D+00 EMaxC= 1.00D+00 BMatC= 2.71D-07 BMatP= 5.25D-07
 IDIUse=1 WtCom= 1.00D+00 WtEn= 0.00D+00
 Coeff-Com:  0.280D+00-0.215D+00-0.536D+00 0.500D+00 0.271D+00-0.230D+00
 Coeff-Com: -0.427D+00-0.578D-01 0.702D+00 0.899D+00-0.361D+01 0.343D+01
 Coeff:      0.280D+00-0.215D+00-0.536D+00 0.500D+00 0.271D+00-0.230D+00
 Coeff:     -0.427D+00-0.578D-01 0.702D+00 0.899D+00-0.361D+01 0.343D+01
 Gap=     0.231 Goal=   None    Shift=    0.500
 Gap=     0.259 Goal=   None    Shift=    0.500
 RMSDP=2.12D-05 MaxDP=4.98D-04 DE=-1.21D-06 OVMax= 1.21D-03

 Cycle  24  Pass 1  IDiag  1:
 E= -193.312352647545     Delta-E=       -0.000000526503 Rises=F Damp=F
 DIIS: error= 7.68D-05 at cycle  24 NSaved=  13.
 NSaved=13 IEnMin=13 EnMin= -193.312352647545     IErMin=13 ErrMin= 7.68D-05
 ErrMax= 7.68D-05  0.00D+00 EMaxC= 1.00D+00 BMatC= 1.33D-07 BMatP= 2.71D-07
 IDIUse=1 WtCom= 1.00D+00 WtEn= 0.00D+00
 Coeff-Com: -0.143D+00 0.201D+00 0.488D-01-0.113D+00-0.156D+00 0.197D+00
 Coeff-Com:  0.305D-01 0.767D-01-0.188D-01-0.124D+01 0.322D+01-0.559D+01
 Coeff-Com:  0.448D+01
 Coeff:     -0.143D+00 0.201D+00 0.488D-01-0.113D+00-0.156D+00 0.197D+00
 Coeff:      0.305D-01 0.767D-01-0.188D-01-0.124D+01 0.322D+01-0.559D+01
 Coeff:      0.448D+01
 Gap=     0.231 Goal=   None    Shift=    0.500
 Gap=     0.259 Goal=   None    Shift=    0.500
 RMSDP=1.42D-05 MaxDP=3.52D-04 DE=-5.27D-07 OVMax= 8.33D-04

 Cycle  25  Pass 1  IDiag  1:
 E= -193.312352877436     Delta-E=       -0.000000229891 Rises=F Damp=F
 DIIS: error= 5.07D-05 at cycle  25 NSaved=  14.
 NSaved=14 IEnMin=14 EnMin= -193.312352877436     IErMin=14 ErrMin= 5.07D-05
 ErrMax= 5.07D-05  0.00D+00 EMaxC= 1.00D+00 BMatC= 5.90D-08 BMatP= 1.33D-07
 IDIUse=1 WtCom= 1.00D+00 WtEn= 0.00D+00
 Coeff-Com: -0.135D+00 0.211D+00 0.334D-01-0.131D+00-0.114D+00 0.157D+00
 Coeff-Com:  0.246D-01 0.422D-01 0.423D-01-0.903D+00 0.175D+01-0.185D+01
 Coeff-Com: -0.233D+00 0.210D+01
 Coeff:     -0.135D+00 0.211D+00 0.334D-01-0.131D+00-0.114D+00 0.157D+00
 Coeff:      0.246D-01 0.422D-01 0.423D-01-0.903D+00 0.175D+01-0.185D+01
 Coeff:     -0.233D+00 0.210D+01
 Gap=     0.231 Goal=   None    Shift=    0.500
 Gap=     0.259 Goal=   None    Shift=    0.500
 RMSDP=7.01D-06 MaxDP=1.88D-04 DE=-2.30D-07 OVMax= 4.09D-04

 Cycle  26  Pass 1  IDiag  1:
 E= -193.312352956097     Delta-E=       -0.000000078662 Rises=F Damp=F
 DIIS: error= 3.64D-05 at cycle  26 NSaved=  15.
 NSaved=15 IEnMin=15 EnMin= -193.312352956097     IErMin=15 ErrMin= 3.64D-05
 ErrMax= 3.64D-05  0.00D+00 EMaxC= 1.00D+00 BMatC= 2.53D-08 BMatP= 5.90D-08
 IDIUse=1 WtCom= 1.00D+00 WtEn= 0.00D+00
 Coeff-Com:  0.161D-01 0.142D-01-0.824D-01 0.420D-01 0.547D-01-0.416D-01
 Coeff-Com: -0.922D-01 0.434D-01 0.162D+00 0.116D-01-0.872D+00 0.229D+01
 Coeff-Com: -0.288D+01 0.375D+00 0.195D+01
 Coeff:      0.161D-01 0.142D-01-0.824D-01 0.420D-01 0.547D-01-0.416D-01
 Coeff:     -0.922D-01 0.434D-01 0.162D+00 0.116D-01-0.872D+00 0.229D+01
 Coeff:     -0.288D+01 0.375D+00 0.195D+01
 Gap=     0.231 Goal=   None    Shift=    0.500
 Gap=     0.259 Goal=   None    Shift=    0.500
 RMSDP=5.09D-06 MaxDP=1.30D-04 DE=-7.87D-08 OVMax= 3.06D-04

 Cycle  27  Pass 1  IDiag  1:
 E= -193.312352992474     Delta-E=       -0.000000036377 Rises=F Damp=F
 DIIS: error= 2.51D-05 at cycle  27 NSaved=  16.
 NSaved=16 IEnMin=16 EnMin= -193.312352992474     IErMin=16 ErrMin= 2.51D-05
 ErrMax= 2.51D-05  0.00D+00 EMaxC= 1.00D+00 BMatC= 1.16D-08 BMatP= 2.53D-08
 IDIUse=1 WtCom= 1.00D+00 WtEn= 0.00D+00
 Coeff-Com: -0.339D-02 0.143D-01-0.280D-01 0.199D-01 0.282D-02 0.155D-01
 Coeff-Com: -0.615D-01 0.155D-01 0.723D-01 0.477D-02-0.140D+00 0.632D-01
 Coeff-Com:  0.321D+00-0.487D+00-0.169D+01 0.288D+01
 Coeff:     -0.339D-02 0.143D-01-0.280D-01 0.199D-01 0.282D-02 0.155D-01
 Coeff:     -0.615D-01 0.155D-01 0.723D-01 0.477D-02-0.140D+00 0.632D-01
 Coeff:      0.321D+00-0.487D+00-0.169D+01 0.288D+01
 Gap=     0.231 Goal=   None    Shift=    0.500
 Gap=     0.259 Goal=   None    Shift=    0.500
 RMSDP=3.49D-06 MaxDP=8.84D-05 DE=-3.64D-08 OVMax= 2.14D-04

 Cycle  28  Pass 1  IDiag  1:
 E= -193.312353008756     Delta-E=       -0.000000016282 Rises=F Damp=F
 DIIS: error= 1.63D-05 at cycle  28 NSaved=  17.
 NSaved=17 IEnMin=17 EnMin= -193.312353008756     IErMin=17 ErrMin= 1.63D-05
 ErrMax= 1.63D-05  0.00D+00 EMaxC= 1.00D+00 BMatC= 5.04D-09 BMatP= 1.16D-08
 IDIUse=1 WtCom= 1.00D+00 WtEn= 0.00D+00
 Coeff-Com: -0.467D-01 0.607D-01 0.297D-01-0.417D-01-0.444D-01 0.544D-01
 Coeff-Com:  0.446D-02-0.609D-02-0.174D-01-0.793D-01 0.294D+00-0.497D+00
 Coeff-Com:  0.248D+00 0.394D+00-0.145D+00-0.229D+01 0.308D+01
 Coeff:     -0.467D-01 0.607D-01 0.297D-01-0.417D-01-0.444D-01 0.544D-01
 Coeff:      0.446D-02-0.609D-02-0.174D-01-0.793D-01 0.294D+00-0.497D+00
 Coeff:      0.248D+00 0.394D+00-0.145D+00-0.229D+01 0.308D+01
 Gap=     0.231 Goal=   None    Shift=    0.500
 Gap=     0.259 Goal=   None    Shift=    0.500
 RMSDP=1.92D-06 MaxDP=5.18D-05 DE=-1.63D-08 OVMax= 1.20D-04

 Cycle  29  Pass 1  IDiag  1:
 E= -193.312353014900     Delta-E=       -0.000000006144 Rises=F Damp=F
 DIIS: error= 1.08D-05 at cycle  29 NSaved=  18.
 NSaved=18 IEnMin=18 EnMin= -193.312353014900     IErMin=18 ErrMin= 1.08D-05
 ErrMax= 1.08D-05  0.00D+00 EMaxC= 1.00D+00 BMatC= 2.10D-09 BMatP= 5.04D-09
 IDIUse=1 WtCom= 1.00D+00 WtEn= 0.00D+00
 Coeff-Com:  0.749D-02-0.780D-02-0.762D-02 0.782D-02 0.609D-02-0.507D-02
 Coeff-Com: -0.184D-01 0.151D-01 0.270D-01-0.289D-01-0.643D-01 0.212D+00
 Coeff-Com: -0.231D+00 0.192D-01-0.168D-01 0.127D+01-0.416D+01 0.397D+01
 Coeff:      0.749D-02-0.780D-02-0.762D-02 0.782D-02 0.609D-02-0.507D-02
 Coeff:     -0.184D-01 0.151D-01 0.270D-01-0.289D-01-0.643D-01 0.212D+00
 Coeff:     -0.231D+00 0.192D-01-0.168D-01 0.127D+01-0.416D+01 0.397D+01
 Gap=     0.231 Goal=   None    Shift=    0.500
 Gap=     0.259 Goal=   None    Shift=    0.500
 RMSDP=1.55D-06 MaxDP=3.98D-05 DE=-6.14D-09 OVMax= 9.77D-05

 Cycle  30  Pass 1  IDiag  1:
 E= -193.312353017774     Delta-E=       -0.000000002874 Rises=F Damp=F
 DIIS: error= 6.62D-06 at cycle  30 NSaved=  19.
 NSaved=19 IEnMin=19 EnMin= -193.312353017774     IErMin=19 ErrMin= 6.62D-06
 ErrMax= 6.62D-06  0.00D+00 EMaxC= 1.00D+00 BMatC= 8.79D-10 BMatP= 2.10D-09
 IDIUse=1 WtCom= 1.00D+00 WtEn= 0.00D+00
 Coeff-Com: -0.163D-01 0.233D-01 0.387D-02-0.112D-01-0.679D-02 0.921D-02
 Coeff-Com:  0.263D-02-0.553D-02-0.611D-02 0.198D-01 0.244D-02-0.670D-01
 Coeff-Com:  0.977D-01-0.463D-01-0.237D+00 0.964D-01 0.126D+01-0.350D+01
 Coeff-Com:  0.338D+01
 Coeff:     -0.163D-01 0.233D-01 0.387D-02-0.112D-01-0.679D-02 0.921D-02
 Coeff:      0.263D-02-0.553D-02-0.611D-02 0.198D-01 0.244D-02-0.670D-01
 Coeff:      0.977D-01-0.463D-01-0.237D+00 0.964D-01 0.126D+01-0.350D+01
 Coeff:      0.338D+01
 Gap=     0.231 Goal=   None    Shift=    0.500
 Gap=     0.259 Goal=   None    Shift=    0.500
 RMSDP=6.19D-07 MaxDP=1.84D-05 DE=-2.87D-09 OVMax= 3.87D-05

 SCF Done:  E(ULC-wHPBE) =  -193.312353018     A.U. after   30 cycles
            NFock= 30  Conv=0.62D-06     -V/T= 2.0082
 <Sx>= 0.0000 <Sy>= 0.0000 <Sz>= 0.5000 <S**2>= 0.9235 S= 0.5833
 <L.S>= 0.000000000000E+00
 KE= 1.917387471792D+02 PE=-7.299869392420D+02 EE= 1.999139392519D+02
 Annihilation of the first spin contaminant:
 S**2 before annihilation     0.9235,   after     0.7715
 Leave Link  502 at Tue Feb 25 12:20:56 2020, MaxMem=  6710886400 cpu:              37.5 elap:               2.4
 (Enter /opt/ohpc/pub/libs/gaussian/g16-A.03/haswell/g16/l508.exe)
 QCSCF skips out because SCF is already converged.
 Leave Link  508 at Tue Feb 25 12:20:56 2020, MaxMem=  6710886400 cpu:               0.1 elap:               0.0
 (Enter /opt/ohpc/pub/libs/gaussian/g16-A.03/haswell/g16/l601.exe)
 Copying SCF densities to generalized density rwf, IOpCl= 1 IROHF=0.

 **********************************************************************

            Population analysis using the SCF density.

 **********************************************************************

 Orbital symmetries:
 Alpha Orbitals:
       Occupied  (B2) (A1) (B2) (A1) (A1) (A1) (B2) (A1) (B2) (A1)
                 (A1) (B2) (B2) (A1) (B1) (A1) (A2) (B1)
       Virtual   (B2) (A1) (A2) (B1) (A1) (B2) (A1) (B2) (A1) (A1)
                 (B2) (A1) (B2) (B1) (B2) (B1) (A1) (A2) (A1) (B2)
                 (A1) (A2) (A1) (B1) (B2) (A1) (B2) (A1) (B2) (A1)
                 (A1) (A1) (B2) (A1) (B2) (B2) (A1) (A1) (B2)
 Beta  Orbitals:
       Occupied  (B2) (A1) (B2) (A1) (A1) (A1) (B2) (A1) (B2) (A1)
                 (A1) (B2) (B2) (A1) (A1) (B1) (A2)
       Virtual   (A1) (B2) (B1) (A2) (B1) (A1) (B2) (A1) (B2) (A1)
                 (A1) (B2) (A1) (B2) (B1) (B2) (A1) (A2) (B1) (A1)
                 (B2) (A1) (A2) (A1) (B2) (B1) (A1) (B2) (A1) (B2)
                 (A1) (A1) (A1) (B2) (A1) (B2) (B2) (A1) (A1) (B2)
 The electronic state is 2-B1.
 Alpha  occ. eigenvalues --  -10.35509 -10.35508 -10.27914 -10.27913 -10.27150
 Alpha  occ. eigenvalues --   -1.14135  -1.05420  -0.98990  -0.88535  -0.81737
 Alpha  occ. eigenvalues --   -0.81079  -0.74037  -0.69496  -0.67240  -0.66806
 Alpha  occ. eigenvalues --   -0.63702  -0.57576  -0.50562
 Alpha virt. eigenvalues --   -0.27470  -0.25990  -0.14503  -0.03874  -0.00148
 Alpha virt. eigenvalues --    0.03796   0.07208   0.08627   0.09983   0.18033
 Alpha virt. eigenvalues --    0.19340   0.27316   0.28828   0.37428   0.39908
 Alpha virt. eigenvalues --    0.47272   0.47337   0.47573   0.49843   0.51067
 Alpha virt. eigenvalues --    0.53015   0.54587   0.55622   0.57357   0.57834
 Alpha virt. eigenvalues --    0.68696   0.72236   0.73941   0.77663   0.77703
 Alpha virt. eigenvalues --    0.83295   0.84947   0.86881   0.92951   0.99991
 Alpha virt. eigenvalues --    1.04657   1.09387   1.32008   1.32642
  Beta  occ. eigenvalues --  -10.34588 -10.34584 -10.28261 -10.28260 -10.26351
  Beta  occ. eigenvalues --   -1.13240  -1.04771  -0.96544  -0.87598  -0.81329
  Beta  occ. eigenvalues --   -0.80289  -0.73566  -0.69204  -0.66635  -0.64379
  Beta  occ. eigenvalues --   -0.63793  -0.55179
  Beta virt. eigenvalues --   -0.29284  -0.23669  -0.23576  -0.11658  -0.01395
  Beta virt. eigenvalues --    0.00114   0.04109   0.07709   0.08723   0.10421
  Beta virt. eigenvalues --    0.18645   0.19813   0.27830   0.29073   0.40149
  Beta virt. eigenvalues --    0.40454   0.47875   0.49019   0.49322   0.50476
  Beta virt. eigenvalues --    0.51607   0.53325   0.55247   0.57423   0.58633
  Beta virt. eigenvalues --    0.58669   0.65161   0.72677   0.73419   0.77756
  Beta virt. eigenvalues --    0.78599   0.83711   0.85167   0.87340   0.94255
  Beta virt. eigenvalues --    1.00222   1.05306   1.09964   1.32768   1.33884
          Condensed to atoms (all electrons):
               1          2          3          4          5          6
     1  C    5.178979   0.512138  -0.061427  -0.041837   0.138818   0.100187
     2  C    0.512138   4.949088   0.494578  -0.059418  -0.041837  -0.003215
     3  C   -0.061427   0.494578   4.845521   0.494578  -0.061427   0.000344
     4  C   -0.041837  -0.059418   0.494578   4.949088   0.512138  -0.003215
     5  C    0.138818  -0.041837  -0.061427   0.512138   5.178979   0.100187
     6  H    0.100187  -0.003215   0.000344  -0.003215   0.100187   0.534096
     7  H    0.348176  -0.028183   0.002588   0.000734  -0.002733  -0.004962
     8  H   -0.024608   0.354404  -0.010605   0.003332   0.000434   0.000106
     9  H    0.004339  -0.029063   0.368542  -0.029063   0.004339  -0.000002
    10  H    0.000434   0.003332  -0.010605   0.354404  -0.024608   0.000106
    11  H   -0.002733   0.000734   0.002588  -0.028183   0.348176  -0.004962
               7          8          9         10         11
     1  C    0.348176  -0.024608   0.004339   0.000434  -0.002733
     2  C   -0.028183   0.354404  -0.029063   0.003332   0.000734
     3  C    0.002588  -0.010605   0.368542  -0.010605   0.002588
     4  C    0.000734   0.003332  -0.029063   0.354404  -0.028183
     5  C   -0.002733   0.000434   0.004339  -0.024608   0.348176
     6  H   -0.004962   0.000106  -0.000002   0.000106  -0.004962
     7  H    0.403566   0.000580  -0.000090  -0.000007   0.000020
     8  H    0.000580   0.384740  -0.002755  -0.000058  -0.000007
     9  H   -0.000090  -0.002755   0.442707  -0.002755  -0.000090
    10  H   -0.000007  -0.000058  -0.002755   0.384740   0.000580
    11  H    0.000020  -0.000007  -0.000090   0.000580   0.403566
          Atomic-Atomic Spin Densities.
               1          2          3          4          5          6
     1  C    0.724730  -0.034621  -0.021367  -0.010450   0.051175  -0.012103
     2  C   -0.034621  -0.300216   0.012890   0.005644  -0.010450  -0.000514
     3  C   -0.021367   0.012890   0.649325   0.012890  -0.021367   0.000003
     4  C   -0.010450   0.005644   0.012890  -0.300216  -0.034621  -0.000514
     5  C    0.051175  -0.010450  -0.021367  -0.034621   0.724730  -0.012103
     6  H   -0.012103  -0.000514   0.000003  -0.000514  -0.012103  -0.275623
     7  H   -0.007378   0.001873  -0.000066   0.000034  -0.000212   0.002240
     8  H   -0.001864   0.004079  -0.001060  -0.000176   0.000194  -0.000013
     9  H   -0.000001   0.000061  -0.001308   0.000061  -0.000001   0.000000
    10  H    0.000194  -0.000176  -0.001060   0.004079  -0.001864  -0.000013
    11  H   -0.000212   0.000034  -0.000066   0.001873  -0.007378   0.002240
               7          8          9         10         11
     1  C   -0.007378  -0.001864  -0.000001   0.000194  -0.000212
     2  C    0.001873   0.004079   0.000061  -0.000176   0.000034
     3  C   -0.000066  -0.001060  -0.001308  -0.001060  -0.000066
     4  C    0.000034  -0.000176   0.000061   0.004079   0.001873
     5  C   -0.000212   0.000194  -0.000001  -0.001864  -0.007378
     6  H    0.002240  -0.000013   0.000000  -0.000013   0.002240
     7  H   -0.030871   0.000063   0.000005  -0.000000  -0.000006
     8  H    0.000063   0.014409   0.000046   0.000006  -0.000000
     9  H    0.000005   0.000046  -0.027480   0.000046   0.000005
    10  H   -0.000000   0.000006   0.000046   0.014409   0.000063
    11  H   -0.000006  -0.000000   0.000005   0.000063  -0.030871
 Mulliken charges and spin densities:
               1          2
     1  C   -0.152466   0.688104
     2  C   -0.152559  -0.321394
     3  C   -0.064673   0.628813
     4  C   -0.152559  -0.321394
     5  C   -0.152466   0.688104
     6  H    0.281331  -0.296399
     7  H    0.280312  -0.034319
     8  H    0.294437   0.015685
     9  H    0.243892  -0.028565
    10  H    0.294437   0.015685
    11  H    0.280312  -0.034319
 Sum of Mulliken charges =   1.00000   1.00000
 Mulliken charges and spin densities with hydrogens summed into heavy atoms:
               1          2
     1  C    0.409177   0.357385
     2  C    0.141878  -0.305709
     3  C    0.179219   0.600248
     4  C    0.141878  -0.305709
     5  C    0.127847   0.653784
 Electronic spatial extent (au):  <R**2>=            374.8623
 Charge=              1.0000 electrons
 Dipole moment (field-independent basis, Debye):
    X=             -0.0000    Y=              0.0000    Z=             -2.7486  Tot=              2.7486
 Quadrupole moment (field-independent basis, Debye-Ang):
   XX=            -32.5406   YY=            -13.1678   ZZ=            -10.5080
   XY=              0.0000   XZ=              0.0000   YZ=             -0.0000
 Traceless Quadrupole moment (field-independent basis, Debye-Ang):
   XX=            -13.8018   YY=              5.5710   ZZ=              8.2308
   XY=              0.0000   XZ=              0.0000   YZ=             -0.0000
 Octapole moment (field-independent basis, Debye-Ang**2):
  XXX=              0.0000  YYY=              0.0000  ZZZ=            -22.3241  XYY=             -0.0000
  XXY=             -0.0000  XXZ=              1.6037  XZZ=              0.0000  YZZ=              0.0000
  YYZ=             -3.2440  XYZ=             -0.0000
 Hexadecapole moment (field-independent basis, Debye-Ang**3):
 XXXX=            -33.2198 YYYY=           -180.3607 ZZZZ=            -97.5969 XXXY=             -0.0000
 XXXZ=             -0.0000 YYYX=             -0.0000 YYYZ=              0.0000 ZZZX=             -0.0000
 ZZZY=              0.0000 XXYY=            -55.3493 XXZZ=            -44.3938 YYZZ=            -50.9166
 XXYZ=              0.0000 YYXZ=              0.0000 ZZXY=             -0.0000
 N-N= 1.450218997931D+02 E-N=-7.299868890839D+02  KE= 1.917387471792D+02
 Symmetry A1   KE= 1.107565108047D+02
 Symmetry A2   KE= 2.409454370991D+00
 Symmetry B1   KE= 3.299546016123D+00
 Symmetry B2   KE= 7.527323598739D+01
 Symmetry A1   SP=-1.292402964962D-14
 Symmetry A2   SP=-2.988843771476D-15
 Symmetry B1   SP= 1.000000000000D+00
 Symmetry B2   SP= 9.878339282655D-15
                          Isotropic Fermi Contact Couplings
        Atom                 a.u.       MegaHertz       Gauss      10(-4) cm-1
     1  C(13)              0.12400     139.39988      49.74134      46.49879
     2  C(13)             -0.05119     -57.55036     -20.53540     -19.19673
     3  C(13)              0.09440     106.12679      37.86868      35.40009
     4  C(13)             -0.05119     -57.55036     -20.53540     -19.19673
     5  C(13)              0.12400     139.39988      49.74134      46.49879
     6  H(1)              -0.10003    -447.11807    -159.54284    -149.14253
     7  H(1)              -0.01272     -56.84414     -20.28340     -18.96116
     8  H(1)               0.00648      28.97272      10.33819       9.66426
     9  H(1)              -0.01029     -46.00839     -16.41694     -15.34675
    10  H(1)               0.00648      28.97272      10.33819       9.66426
    11  H(1)              -0.01272     -56.84414     -20.28340     -18.96116
 --------------------------------------------------------
       Center         ----  Spin Dipole Couplings  ----
                      3XX-RR        3YY-RR        3ZZ-RR
 --------------------------------------------------------
     1   Atom        0.503392     -0.211872     -0.291521
     2   Atom       -0.252044      0.099561      0.152484
     3   Atom        0.599513     -0.321464     -0.278049
     4   Atom       -0.252044      0.099561      0.152484
     5   Atom        0.503392     -0.211872     -0.291521
     6   Atom       -0.014976     -0.005330      0.020307
     7   Atom       -0.011920      0.033077     -0.021156
     8   Atom       -0.007950      0.000607      0.007343
     9   Atom       -0.006039     -0.039784      0.045823
    10   Atom       -0.007950      0.000607      0.007343
    11   Atom       -0.011920      0.033077     -0.021156
 --------------------------------------------------------
                        XY            XZ            YZ
 --------------------------------------------------------
     1   Atom        0.000000      0.000000      0.081930
     2   Atom       -0.000000      0.000000     -0.000773
     3   Atom       -0.000000      0.000000     -0.000000
     4   Atom       -0.000000     -0.000000      0.000773
     5   Atom        0.000000      0.000000     -0.081930
     6   Atom        0.000000     -0.000000      0.000000
     7   Atom        0.000000      0.000000     -0.040347
     8   Atom        0.000000      0.000000     -0.008425
     9   Atom       -0.000000     -0.000000     -0.000000
    10   Atom        0.000000     -0.000000      0.008425
    11   Atom       -0.000000      0.000000      0.040347
 --------------------------------------------------------


 ---------------------------------------------------------------------------------
              Anisotropic Spin Dipole Couplings in Principal Axis System
 ---------------------------------------------------------------------------------

       Atom             a.u.   MegaHertz   Gauss  10(-4) cm-1        Axes

              Baa    -0.3428   -45.999   -16.414   -15.344 -0.0000 -0.5305  0.8477
     1 C(13)  Bbb    -0.1606   -21.551    -7.690    -7.189  0.0000  0.8477  0.5305
              Bcc     0.5034    67.550    24.104    22.532  1.0000 -0.0000  0.0000
 
              Baa    -0.2520   -33.822   -12.069   -11.282  1.0000  0.0000 -0.0000
     2 C(13)  Bbb     0.0995    13.359     4.767     4.456 -0.0000  0.9999  0.0146
              Bcc     0.1525    20.463     7.302     6.826  0.0000 -0.0146  0.9999
 
              Baa    -0.3215   -43.137   -15.393   -14.389 -0.0000  1.0000  0.0000
     3 C(13)  Bbb    -0.2780   -37.311   -13.314   -12.446  0.0000  0.0000  1.0000
              Bcc     0.5995    80.449    28.706    26.835  1.0000  0.0000  0.0000
 
              Baa    -0.2520   -33.822   -12.069   -11.282  1.0000  0.0000  0.0000
     4 C(13)  Bbb     0.0995    13.359     4.767     4.456 -0.0000  0.9999 -0.0146
              Bcc     0.1525    20.463     7.302     6.826 -0.0000  0.0146  0.9999
 
              Baa    -0.3428   -45.999   -16.414   -15.344 -0.0000  0.5305  0.8477
     5 C(13)  Bbb    -0.1606   -21.551    -7.690    -7.189 -0.0000  0.8477 -0.5305
              Bcc     0.5034    67.550    24.104    22.532  1.0000  0.0000  0.0000
 
              Baa    -0.0150    -7.991    -2.851    -2.665  1.0000  0.0000  0.0000
     6 H(1)   Bbb    -0.0053    -2.844    -1.015    -0.949  0.0000  1.0000  0.0000
              Bcc     0.0203    10.835     3.866     3.614  0.0000  0.0000  1.0000
 
              Baa    -0.0427   -22.757    -8.120    -7.591 -0.0000  0.4702  0.8826
     7 H(1)   Bbb    -0.0119    -6.360    -2.269    -2.122  1.0000  0.0000  0.0000
              Bcc     0.0546    29.118    10.390     9.713 -0.0000  0.8826 -0.4702
 
              Baa    -0.0080    -4.242    -1.514    -1.415  1.0000  0.0000  0.0000
     8 H(1)   Bbb    -0.0051    -2.720    -0.971    -0.907 -0.0000  0.8280  0.5607
              Bcc     0.0130     6.962     2.484     2.322  0.0000 -0.5607  0.8280
 
              Baa    -0.0398   -21.227    -7.574    -7.081  0.0000  1.0000 -0.0000
     9 H(1)   Bbb    -0.0060    -3.222    -1.150    -1.075  1.0000 -0.0000 -0.0000
              Bcc     0.0458    24.449     8.724     8.155  0.0000  0.0000  1.0000
 
              Baa    -0.0080    -4.242    -1.514    -1.415  1.0000 -0.0000  0.0000
    10 H(1)   Bbb    -0.0051    -2.720    -0.971    -0.907  0.0000  0.8280 -0.5607
              Bcc     0.0130     6.962     2.484     2.322  0.0000  0.5607  0.8280
 
              Baa    -0.0427   -22.757    -8.120    -7.591 -0.0000 -0.4702  0.8826
    11 H(1)   Bbb    -0.0119    -6.360    -2.269    -2.122  1.0000 -0.0000  0.0000
              Bcc     0.0546    29.118    10.390     9.713  0.0000  0.8826  0.4702
 

 ---------------------------------------------------------------------------------

 No NMR shielding tensors so no spin-rotation constants.
 Leave Link  601 at Tue Feb 25 12:20:56 2020, MaxMem=  6710886400 cpu:               6.4 elap:               0.4
 (Enter /opt/ohpc/pub/libs/gaussian/g16-A.03/haswell/g16/l9999.exe)

 Test job not archived.
 1\1\GINC-HASWELL008\SP\ULC-wHPBE\6-31G\C5H6(1+,2)\SMGO234\25-Feb-2020\
 0\\#P uLC-wHPBE/6-31G iop(3/107=0272200000, 3/108=0272200000) scf=(con
 ver=6,fermi,ndamp=35,noincfock,novaracc,vshift=500,xqc)\\H6 C5\\1,2\C,
 0,-1.206512,0.69658,0.\C,0,-1.206512,-0.69658,0.\C,0,0.,-1.39316,0.\C,
 0,1.206512,-0.69658,0.\C,0,1.206512,0.69658,0.\H,0,0.,2.482681,0.\H,0,
 -2.150065,1.24134,0.\H,0,-2.150065,-1.24134,0.\H,0,0.,-2.482681,0.\H,0
 ,2.150065,-1.24134,0.\H,0,2.150065,1.24134,0.\\Version=ES64L-G16RevA.0
 3\State=2-B1\HF=-193.312353\S2=0.923499\S2-1=0.\S2A=0.771537\RMSD=6.18
 7e-07\Dipole=0.,1.0813787,0.\Quadrupole=4.1418853,6.1193892,-10.261274
 5,0.,0.,0.\PG=C02V [C2(H1C1H1),SGV(C4H4)]\\@


 REALITY IS FOR PEOPLE WHO CAN'T FACE SCIENCE FICTION.
 Job cpu time:       0 days  0 hours  1 minutes  4.7 seconds.
 Elapsed time:       0 days  0 hours  0 minutes  4.4 seconds.
 File lengths (MBytes):  RWF=    272 Int=      0 D2E=      0 Chk=     32 Scr=     32
 Normal termination of Gaussian 16 at Tue Feb 25 12:20:56 2020.
