 Entering Gaussian System, Link 0=g16
 Input=1b_tune_c10.gjf
 Output=1b_tune_c10.log
 Initial command:
 /opt/ohpc/pub/libs/gaussian/g16-A.03/haswell/g16/l1.exe "/scratch/smgo234/Ocelot/test/1b/tuning_1b_ocycle0/Gau-36119.inp" -scrdir="/scratch/smgo234/Ocelot/test/1b/tuning_1b_ocycle0/"
 Entering Link 1 = /opt/ohpc/pub/libs/gaussian/g16-A.03/haswell/g16/l1.exe PID=     36120.
  
 Copyright (c) 1988,1990,1992,1993,1995,1998,2003,2009,2016,
            Gaussian, Inc.  All Rights Reserved.
  
 This is part of the Gaussian(R) 16 program.  It is based on
 the Gaussian(R) 09 system (copyright 2009, Gaussian, Inc.),
 the Gaussian(R) 03 system (copyright 2003, Gaussian, Inc.),
 the Gaussian(R) 98 system (copyright 1998, Gaussian, Inc.),
 the Gaussian(R) 94 system (copyright 1995, Gaussian, Inc.),
 the Gaussian 92(TM) system (copyright 1992, Gaussian, Inc.),
 the Gaussian 90(TM) system (copyright 1990, Gaussian, Inc.),
 the Gaussian 88(TM) system (copyright 1988, Gaussian, Inc.),
 the Gaussian 86(TM) system (copyright 1986, Carnegie Mellon
 University), and the Gaussian 82(TM) system (copyright 1983,
 Carnegie Mellon University). Gaussian is a federally registered
 trademark of Gaussian, Inc.
  
 This software contains proprietary and confidential information,
 including trade secrets, belonging to Gaussian, Inc.
  
 This software is provided under written license and may be
 used, copied, transmitted, or stored only in accord with that
 written license.
  
 The following legend is applicable only to US Government
 contracts under FAR:
  
                    RESTRICTED RIGHTS LEGEND
  
 Use, reproduction and disclosure by the US Government is
 subject to restrictions as set forth in subparagraphs (a)
 and (c) of the Commercial Computer Software - Restricted
 Rights clause in FAR 52.227-19.
  
 Gaussian, Inc.
 340 Quinnipiac St., Bldg. 40, Wallingford CT 06492
  
  
 ---------------------------------------------------------------
 Warning -- This program may not be used in any manner that
 competes with the business of Gaussian, Inc. or will provide
 assistance to any competitor of Gaussian, Inc.  The licensee
 of this program is prohibited from giving any competitor of
 Gaussian, Inc. access to this program.  By using this program,
 the user acknowledges that Gaussian, Inc. is engaged in the
 business of creating and licensing software in the field of
 computational chemistry and represents and warrants to the
 licensee that it is not a competitor of Gaussian, Inc. and that
 it will not use this program in any manner prohibited above.
 ---------------------------------------------------------------
  

 Cite this work as:
 Gaussian 16, Revision A.03,
 M. J. Frisch, G. W. Trucks, H. B. Schlegel, G. E. Scuseria, 
 M. A. Robb, J. R. Cheeseman, G. Scalmani, V. Barone, 
 G. A. Petersson, H. Nakatsuji, X. Li, M. Caricato, A. V. Marenich, 
 J. Bloino, B. G. Janesko, R. Gomperts, B. Mennucci, H. P. Hratchian, 
 J. V. Ortiz, A. F. Izmaylov, J. L. Sonnenberg, D. Williams-Young, 
 F. Ding, F. Lipparini, F. Egidi, J. Goings, B. Peng, A. Petrone, 
 T. Henderson, D. Ranasinghe, V. G. Zakrzewski, J. Gao, N. Rega, 
 G. Zheng, W. Liang, M. Hada, M. Ehara, K. Toyota, R. Fukuda, 
 J. Hasegawa, M. Ishida, T. Nakajima, Y. Honda, O. Kitao, H. Nakai, 
 T. Vreven, K. Throssell, J. A. Montgomery, Jr., J. E. Peralta, 
 F. Ogliaro, M. J. Bearpark, J. J. Heyd, E. N. Brothers, K. N. Kudin, 
 V. N. Staroverov, T. A. Keith, R. Kobayashi, J. Normand, 
 K. Raghavachari, A. P. Rendell, J. C. Burant, S. S. Iyengar, 
 J. Tomasi, M. Cossi, J. M. Millam, M. Klene, C. Adamo, R. Cammi, 
 J. W. Ochterski, R. L. Martin, K. Morokuma, O. Farkas, 
 J. B. Foresman, and D. J. Fox, Gaussian, Inc., Wallingford CT, 2016.
 
 ******************************************
 Gaussian 16:  ES64L-G16RevA.03 25-Dec-2016
                25-Feb-2020 
 ******************************************
 %mem=50GB
 %nproc=16
 Will use up to   16 processors via shared memory.
 ----------------------------------------------------------------------
 #P uLC-wHPBE/6-31G iop(3/107=0272800000, 3/108=0272800000) scf=(conver
 =6,fermi,ndamp=35,noincfock,novaracc,vshift=500,xqc)
 ----------------------------------------------------------------------
 1/38=1,172=1/1;
 2/12=2,17=6,18=5,40=1/2;
 3/5=1,6=6,11=2,25=1,30=1,74=-71,107=272800000,108=272800000,116=2/1,2,3;
 4//1;
 5/5=100002,6=6,8=3,10=500,13=1,18=-1,22=13,38=1,93=35/2,8;
 6/7=2,8=2,9=2,10=2,28=1/1;
 99/5=1,9=1/99;
 Leave Link    1 at Tue Feb 25 12:20:45 2020, MaxMem=  6710886400 cpu:               9.4 elap:               0.6
 (Enter /opt/ohpc/pub/libs/gaussian/g16-A.03/haswell/g16/l101.exe)
 -----
 H6 C5
 -----
 Symbolic Z-matrix:
 Charge =  1 Multiplicity = 2
 C                    -1.20651   0.69658   0. 
 C                    -1.20651  -0.69658   0. 
 C                     0.       -1.39316   0. 
 C                     1.20651  -0.69658   0. 
 C                     1.20651   0.69658   0. 
 H                     0.        2.48268   0. 
 H                    -2.15007   1.24134   0. 
 H                    -2.15007  -1.24134   0. 
 H                     0.       -2.48268   0. 
 H                     2.15007  -1.24134   0. 
 H                     2.15007   1.24134   0. 
 
 ITRead=  0  0  0  0  0  0  0  0  0  0  0
 MicOpt= -1 -1 -1 -1 -1 -1 -1 -1 -1 -1 -1
 NAtoms=     11 NQM=       11 NQMF=       0 NMMI=      0 NMMIF=      0
                NMic=       0 NMicF=      0.
                    Isotopes and Nuclear Properties:
 (Nuclear quadrupole moments (NQMom) in fm**2, nuclear magnetic moments (NMagM)
  in nuclear magnetons)

  Atom         1           2           3           4           5           6           7           8           9          10
 IAtWgt=          12          12          12          12          12           1           1           1           1           1
 AtmWgt=  12.0000000  12.0000000  12.0000000  12.0000000  12.0000000   1.0078250   1.0078250   1.0078250   1.0078250   1.0078250
 NucSpn=           0           0           0           0           0           1           1           1           1           1
 AtZEff=  -0.0000000  -0.0000000  -0.0000000  -0.0000000  -0.0000000  -0.0000000  -0.0000000  -0.0000000  -0.0000000  -0.0000000
 NQMom=    0.0000000   0.0000000   0.0000000   0.0000000   0.0000000   0.0000000   0.0000000   0.0000000   0.0000000   0.0000000
 NMagM=    0.0000000   0.0000000   0.0000000   0.0000000   0.0000000   2.7928460   2.7928460   2.7928460   2.7928460   2.7928460
 AtZNuc=   6.0000000   6.0000000   6.0000000   6.0000000   6.0000000   1.0000000   1.0000000   1.0000000   1.0000000   1.0000000

  Atom        11
 IAtWgt=           1
 AtmWgt=   1.0078250
 NucSpn=           1
 AtZEff=  -0.0000000
 NQMom=    0.0000000
 NMagM=    2.7928460
 AtZNuc=   1.0000000
 Leave Link  101 at Tue Feb 25 12:20:45 2020, MaxMem=  6710886400 cpu:               2.3 elap:               0.2
 (Enter /opt/ohpc/pub/libs/gaussian/g16-A.03/haswell/g16/l202.exe)
                          Input orientation:                          
 ---------------------------------------------------------------------
 Center     Atomic      Atomic             Coordinates (Angstroms)
 Number     Number       Type             X           Y           Z
 ---------------------------------------------------------------------
      1          6           0       -1.206512    0.696580    0.000000
      2          6           0       -1.206512   -0.696580    0.000000
      3          6           0        0.000000   -1.393160    0.000000
      4          6           0        1.206512   -0.696580    0.000000
      5          6           0        1.206512    0.696580    0.000000
      6          1           0        0.000000    2.482681    0.000000
      7          1           0       -2.150065    1.241340    0.000000
      8          1           0       -2.150065   -1.241340    0.000000
      9          1           0        0.000000   -2.482681    0.000000
     10          1           0        2.150065   -1.241340    0.000000
     11          1           0        2.150065    1.241340    0.000000
 ---------------------------------------------------------------------
                    Distance matrix (angstroms):
                    1          2          3          4          5
     1  C    0.000000
     2  C    1.393160   0.000000
     3  C    2.413024   1.393160   0.000000
     4  C    2.786320   2.413024   1.393160   0.000000
     5  C    2.413024   2.786320   2.413024   1.393160   0.000000
     6  H    2.155418   3.400496   3.875841   3.400496   2.155418
     7  H    1.089521   2.155418   3.400496   3.875841   3.400496
     8  H    2.155418   1.089521   2.155418   3.400496   3.875841
     9  H    3.400496   2.155418   1.089521   2.155418   3.400496
    10  H    3.875841   3.400496   2.155418   1.089521   2.155418
    11  H    3.400496   3.875841   3.400496   2.155418   1.089521
                    6          7          8          9         10
     6  H    0.000000
     7  H    2.482681   0.000000
     8  H    4.300129   2.482680   0.000000
     9  H    4.965362   4.300129   2.482681   0.000000
    10  H    4.300129   4.965362   4.300130   2.482681   0.000000
    11  H    2.482681   4.300130   4.965362   4.300129   2.482680
                   11
    11  H    0.000000
 Stoichiometry    C5H6(1+,2)
 Framework group  C2V[C2(HCH),SGV(C4H4)]
 Deg. of freedom    10
 Full point group                 C2V     NOp   4
 Largest Abelian subgroup         C2V     NOp   4
 Largest concise Abelian subgroup C2      NOp   2
                         Standard orientation:                         
 ---------------------------------------------------------------------
 Center     Atomic      Atomic             Coordinates (Angstroms)
 Number     Number       Type             X           Y           Z
 ---------------------------------------------------------------------
      1          6           0       -0.000000    1.206512   -0.928773
      2          6           0       -0.000000    1.206512    0.464387
      3          6           0        0.000000    0.000000    1.160967
      4          6           0       -0.000000   -1.206512    0.464387
      5          6           0       -0.000000   -1.206512   -0.928773
      6          1           0       -0.000000   -0.000000   -2.714874
      7          1           0       -0.000000    2.150065   -1.473533
      8          1           0       -0.000000    2.150065    1.009147
      9          1           0        0.000000    0.000000    2.250488
     10          1           0       -0.000000   -2.150065    1.009147
     11          1           0       -0.000000   -2.150065   -1.473533
 ---------------------------------------------------------------------
 Rotational constants (GHZ):           8.2868568           5.7099792           3.3806054
 Leave Link  202 at Tue Feb 25 12:20:45 2020, MaxMem=  6710886400 cpu:               0.8 elap:               0.1
 (Enter /opt/ohpc/pub/libs/gaussian/g16-A.03/haswell/g16/l301.exe)
 Standard basis: 6-31G (6D, 7F)
 Ernie: Thresh=  0.10000D-02 Tol=  0.10000D-05 Strict=F.
 There are    27 symmetry adapted cartesian basis functions of A1  symmetry.
 There are     4 symmetry adapted cartesian basis functions of A2  symmetry.
 There are     6 symmetry adapted cartesian basis functions of B1  symmetry.
 There are    20 symmetry adapted cartesian basis functions of B2  symmetry.
 There are    27 symmetry adapted basis functions of A1  symmetry.
 There are     4 symmetry adapted basis functions of A2  symmetry.
 There are     6 symmetry adapted basis functions of B1  symmetry.
 There are    20 symmetry adapted basis functions of B2  symmetry.
    57 basis functions,   134 primitive gaussians,    57 cartesian basis functions
    18 alpha electrons       17 beta electrons
       nuclear repulsion energy       145.0218997931 Hartrees.
 IExCor=33909 DFT=T Ex+Corr=LC-wHPBE ExCW=0 ScaHFX=  1.000000
 ScaDFX=  1.000000  1.000000  1.000000  1.000000 ScalE2=  1.000000  1.000000
 IRadAn=      5 IRanWt=     -1 IRanGd=            0 ICorTp=0 IEmpDi=  4
 HFx  wShort=  0.000000 wLong=  0.272800 cFull=  0.000000 cShort=  0.000000 cLong=  1.000000
 DFx  wShort=  0.000000 wLong=  0.272800 cFull=  0.000000 cShort=  1.000000 cLong=  0.000000
 NAtoms=   11 NActive=   11 NUniq=    7 SFac= 2.47D+00 NAtFMM=   60 NAOKFM=F Big=F
 Integral buffers will be    131072 words long.
 Raffenetti 2 integral format.
 Two-electron integral symmetry is turned on.
 Leave Link  301 at Tue Feb 25 12:20:45 2020, MaxMem=  6710886400 cpu:               0.8 elap:               0.1
 (Enter /opt/ohpc/pub/libs/gaussian/g16-A.03/haswell/g16/l302.exe)
 NPDir=0 NMtPBC=     1 NCelOv=     1 NCel=       1 NClECP=     1 NCelD=      1
         NCelK=      1 NCelE2=     1 NClLst=     1 CellRange=     0.0.
 One-electron integrals computed using PRISM.
 One-electron integral symmetry used in STVInt
 NBasis=    57 RedAO= T EigKep=  2.88D-03  NBF=    27     4     6    20
 NBsUse=    57 1.00D-06 EigRej= -1.00D+00 NBFU=    27     4     6    20
 Precomputing XC quadrature grid using
 IXCGrd= 4 IRadAn=           5 IRanWt=          -1 IRanGd=           0 AccXCQ= 0.00D+00.
 Generated NRdTot=       0 NPtTot=           0 NUsed=           0 NTot=          32
 NSgBfM=    57    57    57    57    57 MxSgAt=    11 MxSgA2=    11.
 Leave Link  302 at Tue Feb 25 12:20:45 2020, MaxMem=  6710886400 cpu:               2.7 elap:               0.2
 (Enter /opt/ohpc/pub/libs/gaussian/g16-A.03/haswell/g16/l303.exe)
 DipDrv:  MaxL=1.
 Leave Link  303 at Tue Feb 25 12:20:45 2020, MaxMem=  6710886400 cpu:               0.5 elap:               0.1
 (Enter /opt/ohpc/pub/libs/gaussian/g16-A.03/haswell/g16/l401.exe)
 ExpMin= 1.61D-01 ExpMax= 3.05D+03 ExpMxC= 4.57D+02 IAcc=3 IRadAn=         5 AccDes= 0.00D+00
 Harris functional with IExCor=33909 and IRadAn=       5 diagonalized for initial guess.
 HarFok:  IExCor=33909 AccDes= 0.00D+00 IRadAn=         5 IDoV= 1 UseB2=F ITyADJ=14
 ICtDFT=  3500011 ScaDFX=  1.000000  1.000000  1.000000  1.000000
 FoFCou: FMM=F IPFlag=           0 FMFlag=      100000 FMFlg1=           0
         NFxFlg=           0 DoJE=T BraDBF=F KetDBF=T FulRan=T
         wScrn=  0.000000 ICntrl=       500 IOpCl=  0 I1Cent=   200000004 NGrid=           0
         NMat0=    1 NMatS0=      1 NMatT0=    0 NMatD0=    1 NMtDS0=    0 NMtDT0=    0
 Petite list used in FoFCou.
 Harris En= -188.448029882811    
 JPrj=0 DoOrth=F DoCkMO=F.
 Initial guess orbital symmetries:
 Alpha Orbitals:
       Occupied  (A1) (B2) (A1) (B2) (A1) (A1) (B2) (A1) (B2) (A1)
                 (A1) (B2) (B2) (A1) (B1) (A1) (A2) (B1)
       Virtual   (B2) (A1) (A2) (B1) (A1) (B2) (A1) (B2) (A1) (A1)
                 (B2) (A1) (B2) (B1) (B2) (A1) (B1) (A1) (A2) (B2)
                 (A1) (A2) (B1) (B2) (A1) (A1) (B2) (A1) (B2) (A1)
                 (A1) (B2) (A1) (A1) (B2) (B2) (A1) (A1) (B2)
 Beta  Orbitals:
       Occupied  (A1) (B2) (A1) (B2) (A1) (A1) (B2) (A1) (B2) (A1)
                 (A1) (B2) (B2) (A1) (B1) (A1) (A2)
       Virtual   (B1) (B2) (A1) (A2) (B1) (A1) (B2) (A1) (B2) (A1)
                 (A1) (B2) (A1) (B2) (B1) (B2) (A1) (B1) (A1) (A2)
                 (B2) (A1) (A2) (B1) (B2) (A1) (A1) (B2) (A1) (B2)
                 (A1) (A1) (B2) (A1) (A1) (B2) (B2) (A1) (A1) (B2)
 The electronic state of the initial guess is 2-B1.
 Initial guess <Sx>= 0.0000 <Sy>= 0.0000 <Sz>= 0.5000 <S**2>= 0.7500 S= 0.5000
 Leave Link  401 at Tue Feb 25 12:20:46 2020, MaxMem=  6710886400 cpu:               4.2 elap:               0.3
 (Enter /opt/ohpc/pub/libs/gaussian/g16-A.03/haswell/g16/l502.exe)
 Keep R1 and R2 ints in memory in symmetry-blocked form, NReq=16815659.
 FoFCou: FMM=F IPFlag=           0 FMFlag=           0 FMFlg1=           0
         NFxFlg=           0 DoJE=F BraDBF=F KetDBF=F FulRan=T
         wScrn=  0.000000 ICntrl=       600 IOpCl=  0 I1Cent=           0 NGrid=           0
         NMat0=    1 NMatS0=   1653 NMatT0=    0 NMatD0=    1 NMtDS0=    0 NMtDT0=    0
 Petite list used in FoFCou.
 UHF open shell SCF:
 Using DIIS extrapolation, IDIIS=    10.
 NGot=  6710886400 LenX=  6710059583 LenY=  6710055893
 Requested convergence on RMS density matrix=1.00D-06 within  32 cycles.
 Requested convergence on MAX density matrix=1.00D-04.
 Requested convergence on             energy=1.00D-04.
 Virtual orbitals will be shifted by   0.500 hartree.
 No special actions if energy rises.
 Dynamic level shift is on during FON iterations.

 Cycle   1  Pass 1  IDiag  1:
 E= -193.191130932776    
 DIIS: error= 5.82D-02 at cycle   1 NSaved=   1.
 NSaved= 1 IEnMin= 1 EnMin= -193.191130932776     IErMin= 1 ErrMin= 5.82D-02
 ErrMax= 5.82D-02  0.00D+00 EMaxC= 1.00D+00 BMatC= 2.95D-01 BMatP= 2.95D-01
 IDIUse=1 WtCom= 1.00D+00 WtEn= 0.00D+00
 Coeff-Com:  0.100D+01
 Coeff:      0.100D+01
 Gap=     0.068 Goal=   None    Shift=    0.500
 T= 1894. Gap= 0.525 NK=0 IS=   19 IE=   57 IFin=   18
          NO(<0.9)=   0  NV(>0.1)=   0     18.00e < EF      0.00e >EF  Err=0.0D+00
 Gap=     0.092 Goal=   None    Shift=    0.500
 T= 1894. Gap= 0.598 NK=0 IS=   18 IE=   57 IFin=   17
          NO(<0.9)=   0  NV(>0.1)=   0     17.00e < EF      0.00e >EF  Err=0.0D+00
 GapD=    0.068 DampG=0.500 DampE=0.500 DampFc=0.2500 IDamp=-1.
 Damping current iteration by 2.50D-01
 RMSDP=7.76D-03 MaxDP=6.05D-02              OVMax= 1.24D-01

 Cycle   2  Pass 1  IDiag  1:
 E= -193.228047239513     Delta-E=       -0.036916306737 Rises=F Damp=T
 DIIS: error= 4.28D-02 at cycle   2 NSaved=   2.
 NSaved= 2 IEnMin= 2 EnMin= -193.228047239513     IErMin= 2 ErrMin= 4.28D-02
 ErrMax= 4.28D-02  0.00D+00 EMaxC= 1.00D+00 BMatC= 1.44D-01 BMatP= 2.95D-01
 IDIUse=1 WtCom= 1.00D+00 WtEn= 0.00D+00
 Coeff-Com: -0.202D+01 0.302D+01
 Coeff:     -0.202D+01 0.302D+01
 Gap=     0.167 Goal=   None    Shift=    0.500
 T= 1838. Gap= 0.647 NK=4 IS=   19 IE=   24 IFin=   18
          NO(<0.9)=   0  NV(>0.1)=   0     18.00e < EF      0.00e >EF  Err=0.0D+00
 Gap=     0.200 Goal=   None    Shift=    0.500
 T= 1838. Gap= 0.702 NK=4 IS=   18 IE=   21 IFin=   17
          NO(<0.9)=   0  NV(>0.1)=   0     17.00e < EF      0.00e >EF  Err=0.0D+00
 GapD=    0.167 DampG=1.000 DampE=0.500 DampFc=0.5000 IDamp=-1.
 Damping current iteration by 5.00D-01
 RMSDP=6.30D-03 MaxDP=5.18D-02 DE=-3.69D-02 OVMax= 5.12D-02

 Cycle   3  Pass 1  IDiag  1:
 E= -193.272895615220     Delta-E=       -0.044848375708 Rises=F Damp=T
 DIIS: error= 2.31D-02 at cycle   3 NSaved=   3.
 NSaved= 3 IEnMin= 3 EnMin= -193.272895615220     IErMin= 3 ErrMin= 2.31D-02
 ErrMax= 2.31D-02  0.00D+00 EMaxC= 1.00D+00 BMatC= 3.15D-02 BMatP= 1.44D-01
 IDIUse=1 WtCom= 1.00D+00 WtEn= 0.00D+00
 Coeff-Com:  0.101D+01-0.257D+01 0.256D+01
 Coeff:      0.101D+01-0.257D+01 0.256D+01
 Gap=     0.198 Goal=   None    Shift=    0.500
 T= 1689. Gap= 0.698 NK=4 IS=   19 IE=   24 IFin=   18
          NO(<0.9)=   0  NV(>0.1)=   0     18.00e < EF      0.00e >EF  Err=0.0D+00
 Gap=     0.252 Goal=   None    Shift=    0.500
 T= 1689. Gap= 0.752 NK=4 IS=   18 IE=   21 IFin=   17
          NO(<0.9)=   0  NV(>0.1)=   0     17.00e < EF      0.00e >EF  Err=0.0D+00
 GapD=    0.198 DampG=1.000 DampE=0.500 DampFc=0.5000 IDamp=-1.
 Damping current iteration by 5.00D-01
 RMSDP=3.17D-03 MaxDP=2.56D-02 DE=-4.48D-02 OVMax= 2.23D-02

 Cycle   4  Pass 1  IDiag  1:
 E= -193.291601777505     Delta-E=       -0.018706162285 Rises=F Damp=T
 DIIS: error= 1.34D-02 at cycle   4 NSaved=   4.
 NSaved= 4 IEnMin= 4 EnMin= -193.291601777505     IErMin= 4 ErrMin= 1.34D-02
 ErrMax= 1.34D-02  0.00D+00 EMaxC= 1.00D+00 BMatC= 8.64D-03 BMatP= 3.15D-02
 IDIUse=1 WtCom= 1.00D+00 WtEn= 0.00D+00
 Coeff-Com:  0.331D+00-0.117D+00-0.217D+01 0.296D+01
 Coeff:      0.331D+00-0.117D+00-0.217D+01 0.296D+01
 Gap=     0.212 Goal=   None    Shift=    0.500
 T= 1421. Gap= 0.712 NK=4 IS=   19 IE=   24 IFin=   18
          NO(<0.9)=   0  NV(>0.1)=   0     18.00e < EF      0.00e >EF  Err=0.0D+00
 Gap=     0.265 Goal=   None    Shift=    0.500
 T= 1421. Gap= 0.765 NK=4 IS=   18 IE=   21 IFin=   17
          NO(<0.9)=   0  NV(>0.1)=   0     17.00e < EF      0.00e >EF  Err=0.0D+00
 GapD=    0.212 DampG=1.000 DampE=0.500 DampFc=0.5000 IDamp=-1.
 Damping current iteration by 5.00D-01
 RMSDP=1.77D-03 MaxDP=1.87D-02 DE=-1.87D-02 OVMax= 1.53D-02

 Cycle   5  Pass 1  IDiag  1:
 E= -193.300672139224     Delta-E=       -0.009070361719 Rises=F Damp=T
 DIIS: error= 8.89D-03 at cycle   5 NSaved=   5.
 NSaved= 5 IEnMin= 5 EnMin= -193.300672139224     IErMin= 5 ErrMin= 8.89D-03
 ErrMax= 8.89D-03  0.00D+00 EMaxC= 1.00D+00 BMatC= 3.03D-03 BMatP= 8.64D-03
 IDIUse=1 WtCom= 1.00D+00 WtEn= 0.00D+00
 Coeff-Com: -0.345D+00 0.741D+00 0.196D+00-0.374D+01 0.415D+01
 Coeff:     -0.345D+00 0.741D+00 0.196D+00-0.374D+01 0.415D+01
 Gap=     0.217 Goal=   None    Shift=    0.500
 T= 1086. Gap= 0.717 NK=4 IS=   19 IE=   24 IFin=   18
          NO(<0.9)=   0  NV(>0.1)=   0     18.00e < EF      0.00e >EF  Err=0.0D+00
 Gap=     0.268 Goal=   None    Shift=    0.500
 T= 1086. Gap= 0.769 NK=4 IS=   18 IE=   21 IFin=   17
          NO(<0.9)=   0  NV(>0.1)=   0     17.00e < EF      0.00e >EF  Err=0.0D+00
 GapD=    0.217 DampG=1.000 DampE=1.000 DampFc=1.0000 IDamp=-1.
 RMSDP=1.26D-03 MaxDP=1.54D-02 DE=-9.07D-03 OVMax= 1.58D-02

 Cycle   6  Pass 1  IDiag  1:
 E= -193.310627638400     Delta-E=       -0.009955499176 Rises=F Damp=F
 DIIS: error= 3.43D-03 at cycle   6 NSaved=   6.
 NSaved= 6 IEnMin= 6 EnMin= -193.310627638400     IErMin= 6 ErrMin= 3.43D-03
 ErrMax= 3.43D-03  0.00D+00 EMaxC= 1.00D+00 BMatC= 3.31D-04 BMatP= 3.03D-03
 IDIUse=1 WtCom= 1.00D+00 WtEn= 0.00D+00
 Coeff-Com:  0.143D+00-0.401D+00 0.404D+00 0.167D+01-0.337D+01 0.255D+01
 Coeff:      0.143D+00-0.401D+00 0.404D+00 0.167D+01-0.337D+01 0.255D+01
 Gap=     0.219 Goal=   None    Shift=    0.500
 T=  746. Gap= 0.719 NK=4 IS=   19 IE=   24 IFin=   18
          NO(<0.9)=   0  NV(>0.1)=   0     18.00e < EF      0.00e >EF  Err=0.0D+00
 Gap=     0.268 Goal=   None    Shift=    0.500
 T=  746. Gap= 0.768 NK=4 IS=   18 IE=   21 IFin=   17
          NO(<0.9)=   0  NV(>0.1)=   0     17.00e < EF      0.00e >EF  Err=0.0D+00
 GapD=    0.219 DampG=1.000 DampE=1.000 DampFc=1.0000 IDamp=-1.
 RMSDP=3.67D-04 MaxDP=4.94D-03 DE=-9.96D-03 OVMax= 1.41D-02

 Cycle   7  Pass 1  IDiag  1:
 E= -193.311152634290     Delta-E=       -0.000524995890 Rises=F Damp=F
 DIIS: error= 2.57D-03 at cycle   7 NSaved=   7.
 NSaved= 7 IEnMin= 7 EnMin= -193.311152634290     IErMin= 7 ErrMin= 2.57D-03
 ErrMax= 2.57D-03  0.00D+00 EMaxC= 1.00D+00 BMatC= 1.62D-04 BMatP= 3.31D-04
 IDIUse=1 WtCom= 1.00D+00 WtEn= 0.00D+00
 Coeff-Com:  0.410D-01-0.386D-01-0.329D+00 0.649D+00-0.119D+00-0.217D+01
 Coeff-Com:  0.297D+01
 Coeff:      0.410D-01-0.386D-01-0.329D+00 0.649D+00-0.119D+00-0.217D+01
 Coeff:      0.297D+01
 Gap=     0.221 Goal=   None    Shift=    0.500
 T=  417. Gap= 0.721 NK=4 IS=   19 IE=   24 IFin=   18
          NO(<0.9)=   0  NV(>0.1)=   0     18.00e < EF      0.00e >EF  Err=0.0D+00
 Gap=     0.268 Goal=   None    Shift=    0.500
 T=  417. Gap= 0.768 NK=4 IS=   18 IE=   21 IFin=   17
          NO(<0.9)=   0  NV(>0.1)=   0     17.00e < EF      0.00e >EF  Err=0.0D+00
 GapD=    0.221 DampG=1.000 DampE=1.000 DampFc=1.0000 IDamp=-1.
 RMSDP=2.97D-04 MaxDP=4.36D-03 DE=-5.25D-04 OVMax= 1.24D-02

 Cycle   8  Pass 1  IDiag  1:
 E= -193.311463981077     Delta-E=       -0.000311346787 Rises=F Damp=F
 DIIS: error= 1.76D-03 at cycle   8 NSaved=   8.
 NSaved= 8 IEnMin= 8 EnMin= -193.311463981077     IErMin= 8 ErrMin= 1.76D-03
 ErrMax= 1.76D-03  0.00D+00 EMaxC= 1.00D+00 BMatC= 8.28D-05 BMatP= 1.62D-04
 IDIUse=1 WtCom= 1.00D+00 WtEn= 0.00D+00
 Coeff-Com: -0.262D-01 0.947D-01-0.184D+00-0.405D+00 0.106D+01-0.165D+01
 Coeff-Com:  0.631D+00 0.148D+01
 Coeff:     -0.262D-01 0.947D-01-0.184D+00-0.405D+00 0.106D+01-0.165D+01
 Coeff:      0.631D+00 0.148D+01
 Gap=     0.222 Goal=   None    Shift=    0.500
 T=   26. Gap= 0.722 NK=4 IS=   19 IE=   24 IFin=   18
          NO(<0.9)=   0  NV(>0.1)=   0     18.00e < EF      0.00e >EF  Err=0.0D+00
 Gap=     0.268 Goal=   None    Shift=    0.500
 T=   26. Gap= 0.768 NK=4 IS=   18 IE=   21 IFin=   17
          NO(<0.9)=   0  NV(>0.1)=   0     17.00e < EF      0.00e >EF  Err=0.0D+00
 GapD=    0.222 DampG=1.000 DampE=1.000 DampFc=1.0000 IDamp=-1.
 RMSDP=1.97D-04 MaxDP=2.52D-03 DE=-3.11D-04 OVMax= 8.33D-03

 Cycle   9  Pass 1  IDiag  1:
 E= -193.311617830114     Delta-E=       -0.000153849037 Rises=F Damp=F
 DIIS: error= 1.34D-03 at cycle   9 NSaved=   9.
 NSaved= 9 IEnMin= 9 EnMin= -193.311617830114     IErMin= 9 ErrMin= 1.34D-03
 ErrMax= 1.34D-03  0.00D+00 EMaxC= 1.00D+00 BMatC= 4.87D-05 BMatP= 8.28D-05
 IDIUse=1 WtCom= 1.00D+00 WtEn= 0.00D+00
 Coeff-Com:  0.576D-02-0.713D-01 0.421D+00-0.498D+00-0.173D+00 0.209D+01
 Coeff-Com: -0.256D+01-0.189D+01 0.367D+01
 Coeff:      0.576D-02-0.713D-01 0.421D+00-0.498D+00-0.173D+00 0.209D+01
 Coeff:     -0.256D+01-0.189D+01 0.367D+01
 Gap=     0.224 Goal=   None    Shift=    0.500
 Gap=     0.266 Goal=   None    Shift=    0.500
 GapD=    0.224 DampG=1.000 DampE=1.000 DampFc=1.0000 IDamp=-1.
 RMSDP=1.95D-04 MaxDP=3.00D-03 DE=-1.54D-04 OVMax= 8.41D-03

 Cycle  10  Pass 1  IDiag  1:
 E= -193.311744191668     Delta-E=       -0.000126361553 Rises=F Damp=F
 DIIS: error= 1.17D-03 at cycle  10 NSaved=  10.
 NSaved=10 IEnMin=10 EnMin= -193.311744191668     IErMin=10 ErrMin= 1.17D-03
 ErrMax= 1.17D-03  0.00D+00 EMaxC= 1.00D+00 BMatC= 3.11D-05 BMatP= 4.87D-05
 IDIUse=1 WtCom= 1.00D+00 WtEn= 0.00D+00
 Coeff-Com:  0.180D-02 0.281D-02-0.281D-01 0.130D+00-0.189D+00 0.151D+00
 Coeff-Com:  0.251D+00-0.376D+00-0.177D+01 0.283D+01
 Coeff:      0.180D-02 0.281D-02-0.281D-01 0.130D+00-0.189D+00 0.151D+00
 Coeff:      0.251D+00-0.376D+00-0.177D+01 0.283D+01
 Gap=     0.225 Goal=   None    Shift=    0.500
 Gap=     0.266 Goal=   None    Shift=    0.500
 GapD=    0.225 DampG=1.000 DampE=1.000 DampFc=1.0000 IDamp=-1.
 RMSDP=1.62D-04 MaxDP=2.94D-03 DE=-1.26D-04 OVMax= 8.08D-03

 Cycle  11  Pass 1  IDiag  1:
 E= -193.311835898951     Delta-E=       -0.000091707283 Rises=F Damp=F
 DIIS: error= 1.06D-03 at cycle  11 NSaved=  11.
 NSaved=11 IEnMin=11 EnMin= -193.311835898951     IErMin=11 ErrMin= 1.06D-03
 ErrMax= 1.06D-03  0.00D+00 EMaxC= 1.00D+00 BMatC= 2.36D-05 BMatP= 3.11D-05
 IDIUse=1 WtCom= 1.00D+00 WtEn= 0.00D+00
 Large coefficients: NSaved= 11 BigCof=   12.09 CofMax=   10.00 Det=-1.59D-08
 Inversion failed.  Reducing to 10 matrices.
 Large coefficients: NSaved= 10 BigCof=   12.08 CofMax=   10.00 Det=-1.59D-08
 Inversion failed.  Reducing to  9 matrices.
 Coeff-Com:  0.131D-01-0.245D+00 0.430D+00-0.325D+00-0.329D+00 0.442D+00
 Coeff-Com:  0.364D+01-0.960D+01 0.697D+01
 Coeff:      0.131D-01-0.245D+00 0.430D+00-0.325D+00-0.329D+00 0.442D+00
 Coeff:      0.364D+01-0.960D+01 0.697D+01
 Gap=     0.228 Goal=   None    Shift=    0.500
 Gap=     0.264 Goal=   None    Shift=    0.500
 GapD=    0.228 DampG=1.000 DampE=1.000 DampFc=1.0000 IDamp=-1.
 RMSDP=2.04D-04 MaxDP=3.90D-03 DE=-9.17D-05 OVMax= 1.11D-02

 Cycle  12  Pass 1  IDiag  1:
 E= -193.311941382589     Delta-E=       -0.000105483639 Rises=F Damp=F
 DIIS: error= 9.80D-04 at cycle  12 NSaved=  10.
 NSaved=10 IEnMin=10 EnMin= -193.311941382589     IErMin=10 ErrMin= 9.80D-04
 ErrMax= 9.80D-04  0.00D+00 EMaxC= 1.00D+00 BMatC= 2.03D-05 BMatP= 2.36D-05
 IDIUse=1 WtCom= 1.00D+00 WtEn= 0.00D+00
 Coeff-Com:  0.202D-01-0.248D+00 0.407D+00-0.257D+00-0.346D+00 0.339D+00
 Coeff-Com:  0.331D+01-0.832D+01 0.562D+01 0.473D+00
 Coeff:      0.202D-01-0.248D+00 0.407D+00-0.257D+00-0.346D+00 0.339D+00
 Coeff:      0.331D+01-0.832D+01 0.562D+01 0.473D+00
 Gap=     0.229 Goal=   None    Shift=    0.500
 Gap=     0.264 Goal=   None    Shift=    0.500
 RMSDP=1.26D-04 MaxDP=2.74D-03 DE=-1.05D-04 OVMax= 7.10D-03

 Cycle  13  Pass 1  IDiag  1:
 E= -193.312002935287     Delta-E=       -0.000061552698 Rises=F Damp=F
 DIIS: error= 9.04D-04 at cycle  13 NSaved=  11.
 NSaved=11 IEnMin=11 EnMin= -193.312002935287     IErMin=11 ErrMin= 9.04D-04
 ErrMax= 9.04D-04  0.00D+00 EMaxC= 1.00D+00 BMatC= 1.74D-05 BMatP= 2.03D-05
 IDIUse=1 WtCom= 1.00D+00 WtEn= 0.00D+00
 Large coefficients: NSaved= 11 BigCof=   13.57 CofMax=   10.00 Det=-6.97D-09
 Inversion failed.  Reducing to 10 matrices.
 Large coefficients: NSaved= 10 BigCof=   13.60 CofMax=   10.00 Det=-6.99D-09
 Inversion failed.  Reducing to  9 matrices.
 Coeff-Com:  0.170D-01-0.147D+00 0.226D+00-0.519D-01-0.133D+01 0.599D+01
 Coeff-Com: -0.711D+01-0.394D+01 0.734D+01
 Coeff:      0.170D-01-0.147D+00 0.226D+00-0.519D-01-0.133D+01 0.599D+01
 Coeff:     -0.711D+01-0.394D+01 0.734D+01
 Gap=     0.234 Goal=   None    Shift=    0.500
 Gap=     0.261 Goal=   None    Shift=    0.500
 RMSDP=3.61D-04 MaxDP=6.89D-03 DE=-6.16D-05 OVMax= 2.02D-02

 Cycle  14  Pass 1  IDiag  1:
 E= -193.312154163649     Delta-E=       -0.000151228362 Rises=F Damp=F
 DIIS: error= 7.92D-04 at cycle  14 NSaved=  10.
 NSaved=10 IEnMin=10 EnMin= -193.312154163649     IErMin=10 ErrMin= 7.92D-04
 ErrMax= 7.92D-04  0.00D+00 EMaxC= 1.00D+00 BMatC= 1.75D-05 BMatP= 1.74D-05
 IDIUse=1 WtCom= 1.00D+00 WtEn= 0.00D+00
 Large coefficients: NSaved= 10 BigCof=   15.54 CofMax=   10.00 Det=-1.60D-08
 Inversion failed.  Reducing to  9 matrices.
 Large coefficients: NSaved=  9 BigCof=   15.65 CofMax=   10.00 Det=-1.81D-08
 Inversion failed.  Reducing to  8 matrices.
 Large coefficients: NSaved=  8 BigCof=   15.61 CofMax=   10.00 Det=-2.46D-08
 Inversion failed.  Reducing to  7 matrices.
 Large coefficients: NSaved=  7 BigCof=   15.52 CofMax=   10.00 Det=-1.63D-08
 Inversion failed.  Reducing to  6 matrices.
 Large coefficients: NSaved=  6 BigCof=   14.95 CofMax=   10.00 Det=-1.67D-08
 Inversion failed.  Reducing to  5 matrices.
 Large coefficients: NSaved=  5 BigCof=   14.35 CofMax=   10.00 Det=-3.39D-08
 Inversion failed.  Reducing to  4 matrices.
 Large coefficients: NSaved=  4 BigCof=   13.88 CofMax=   10.00 Det=-4.65D-08
 Inversion failed.  Reducing to  3 matrices.
 Coeff-Com: -0.366D+01 0.403D+01 0.636D+00
 Coeff:     -0.366D+01 0.403D+01 0.636D+00
 Gap=     0.234 Goal=   None    Shift=    0.500
 Gap=     0.262 Goal=   None    Shift=    0.500
 RMSDP=1.67D-04 MaxDP=3.84D-03 DE=-1.51D-04 OVMax= 9.32D-03

 Cycle  15  Pass 1  IDiag  1:
 E= -193.312216201530     Delta-E=       -0.000062037880 Rises=F Damp=F
 DIIS: error= 7.07D-04 at cycle  15 NSaved=   4.
 NSaved= 4 IEnMin= 4 EnMin= -193.312216201530     IErMin= 4 ErrMin= 7.07D-04
 ErrMax= 7.07D-04  0.00D+00 EMaxC= 1.00D+00 BMatC= 1.24D-05 BMatP= 1.74D-05
 IDIUse=1 WtCom= 1.00D+00 WtEn= 0.00D+00
 Coeff-Com:  0.255D+01-0.330D+01-0.330D+01 0.505D+01
 Coeff:      0.255D+01-0.330D+01-0.330D+01 0.505D+01
 Gap=     0.232 Goal=   None    Shift=    0.500
 Gap=     0.260 Goal=   None    Shift=    0.500
 RMSDP=2.81D-04 MaxDP=5.61D-03 DE=-6.20D-05 OVMax= 1.61D-02

 Cycle  16  Pass 1  IDiag  1:
 E= -193.312299874054     Delta-E=       -0.000083672525 Rises=F Damp=F
 DIIS: error= 5.93D-04 at cycle  16 NSaved=   5.
 NSaved= 5 IEnMin= 5 EnMin= -193.312299874054     IErMin= 5 ErrMin= 5.93D-04
 ErrMax= 5.93D-04  0.00D+00 EMaxC= 1.00D+00 BMatC= 1.26D-05 BMatP= 1.24D-05
 IDIUse=1 WtCom= 1.00D+00 WtEn= 0.00D+00
 Coeff-Com:  0.220D+01-0.216D+01-0.382D+01 0.353D+01 0.125D+01
 Coeff:      0.220D+01-0.216D+01-0.382D+01 0.353D+01 0.125D+01
 Gap=     0.232 Goal=   None    Shift=    0.500
 Gap=     0.260 Goal=   None    Shift=    0.500
 RMSDP=1.87D-04 MaxDP=4.13D-03 DE=-8.37D-05 OVMax= 1.09D-02

 Cycle  17  Pass 1  IDiag  1:
 E= -193.312344971562     Delta-E=       -0.000045097508 Rises=F Damp=F
 DIIS: error= 4.94D-04 at cycle  17 NSaved=   6.
 NSaved= 6 IEnMin= 6 EnMin= -193.312344971562     IErMin= 6 ErrMin= 4.94D-04
 ErrMax= 4.94D-04  0.00D+00 EMaxC= 1.00D+00 BMatC= 8.49D-06 BMatP= 1.24D-05
 IDIUse=1 WtCom= 1.00D+00 WtEn= 0.00D+00
 Coeff-Com: -0.399D+01 0.528D+01 0.302D+01-0.462D+01-0.433D+01 0.564D+01
 Coeff:     -0.399D+01 0.528D+01 0.302D+01-0.462D+01-0.433D+01 0.564D+01
 Gap=     0.232 Goal=   None    Shift=    0.500
 Gap=     0.260 Goal=   None    Shift=    0.500
 RMSDP=1.28D-04 MaxDP=2.79D-03 DE=-4.51D-05 OVMax= 7.62D-03

 Cycle  18  Pass 1  IDiag  1:
 E= -193.312370526892     Delta-E=       -0.000025555330 Rises=F Damp=F
 DIIS: error= 4.32D-04 at cycle  18 NSaved=   7.
 NSaved= 7 IEnMin= 7 EnMin= -193.312370526892     IErMin= 7 ErrMin= 4.32D-04
 ErrMax= 4.32D-04  0.00D+00 EMaxC= 1.00D+00 BMatC= 5.28D-06 BMatP= 8.49D-06
 IDIUse=1 WtCom= 1.00D+00 WtEn= 0.00D+00
 Coeff-Com: -0.927D+00 0.103D+01 0.484D+00-0.562D+00-0.343D+00-0.178D+01
 Coeff-Com:  0.310D+01
 Coeff:     -0.927D+00 0.103D+01 0.484D+00-0.562D+00-0.343D+00-0.178D+01
 Coeff:      0.310D+01
 Gap=     0.232 Goal=   None    Shift=    0.500
 Gap=     0.259 Goal=   None    Shift=    0.500
 RMSDP=1.32D-04 MaxDP=2.81D-03 DE=-2.56D-05 OVMax= 7.56D-03

 Cycle  19  Pass 1  IDiag  1:
 E= -193.312390250318     Delta-E=       -0.000019723426 Rises=F Damp=F
 DIIS: error= 2.91D-04 at cycle  19 NSaved=   8.
 NSaved= 8 IEnMin= 8 EnMin= -193.312390250318     IErMin= 8 ErrMin= 2.91D-04
 ErrMax= 2.91D-04  0.00D+00 EMaxC= 1.00D+00 BMatC= 3.51D-06 BMatP= 5.28D-06
 IDIUse=1 WtCom= 1.00D+00 WtEn= 0.00D+00
 Coeff-Com:  0.292D+01-0.337D+01-0.303D+01 0.355D+01 0.311D+01-0.559D+01
 Coeff-Com:  0.108D+01 0.233D+01
 Coeff:      0.292D+01-0.337D+01-0.303D+01 0.355D+01 0.311D+01-0.559D+01
 Coeff:      0.108D+01 0.233D+01
 Gap=     0.231 Goal=   None    Shift=    0.500
 Gap=     0.259 Goal=   None    Shift=    0.500
 RMSDP=1.03D-04 MaxDP=2.23D-03 DE=-1.97D-05 OVMax= 6.03D-03

 Cycle  20  Pass 1  IDiag  1:
 E= -193.312401551392     Delta-E=       -0.000011301074 Rises=F Damp=F
 DIIS: error= 2.12D-04 at cycle  20 NSaved=   9.
 NSaved= 9 IEnMin= 9 EnMin= -193.312401551392     IErMin= 9 ErrMin= 2.12D-04
 ErrMax= 2.12D-04  0.00D+00 EMaxC= 1.00D+00 BMatC= 2.10D-06 BMatP= 3.51D-06
 IDIUse=1 WtCom= 1.00D+00 WtEn= 0.00D+00
 Coeff-Com:  0.168D+00 0.269D+00-0.701D+00 0.317D+00-0.523D+00 0.119D+01
 Coeff-Com: -0.142D+01-0.847D+00 0.254D+01
 Coeff:      0.168D+00 0.269D+00-0.701D+00 0.317D+00-0.523D+00 0.119D+01
 Coeff:     -0.142D+01-0.847D+00 0.254D+01
 Gap=     0.231 Goal=   None    Shift=    0.500
 Gap=     0.259 Goal=   None    Shift=    0.500
 RMSDP=4.81D-05 MaxDP=1.12D-03 DE=-1.13D-05 OVMax= 2.74D-03

 Cycle  21  Pass 1  IDiag  1:
 E= -193.312405685445     Delta-E=       -0.000004134054 Rises=F Damp=F
 DIIS: error= 1.95D-04 at cycle  21 NSaved=  10.
 NSaved=10 IEnMin=10 EnMin= -193.312405685445     IErMin=10 ErrMin= 1.95D-04
 ErrMax= 1.95D-04  0.00D+00 EMaxC= 1.00D+00 BMatC= 9.35D-07 BMatP= 2.10D-06
 IDIUse=1 WtCom= 1.00D+00 WtEn= 0.00D+00
 Coeff-Com: -0.245D+00 0.521D+00-0.593D-01-0.255D+00-0.693D+00 0.189D+01
 Coeff-Com: -0.189D+01-0.794D-01 0.239D+00 0.157D+01
 Coeff:     -0.245D+00 0.521D+00-0.593D-01-0.255D+00-0.693D+00 0.189D+01
 Coeff:     -0.189D+01-0.794D-01 0.239D+00 0.157D+01
 Gap=     0.231 Goal=   None    Shift=    0.500
 Gap=     0.259 Goal=   None    Shift=    0.500
 RMSDP=4.48D-05 MaxDP=9.86D-04 DE=-4.13D-06 OVMax= 2.55D-03

 Cycle  22  Pass 1  IDiag  1:
 E= -193.312408204521     Delta-E=       -0.000002519075 Rises=F Damp=F
 DIIS: error= 1.48D-04 at cycle  22 NSaved=  11.
 NSaved=11 IEnMin=11 EnMin= -193.312408204521     IErMin=11 ErrMin= 1.48D-04
 ErrMax= 1.48D-04  0.00D+00 EMaxC= 1.00D+00 BMatC= 5.29D-07 BMatP= 9.35D-07
 IDIUse=1 WtCom= 1.00D+00 WtEn= 0.00D+00
 Coeff-Com: -0.931D-02 0.236D+00-0.410D+00 0.121D+00 0.299D-01-0.266D+00
 Coeff-Com:  0.405D+00 0.202D+00 0.672D+00-0.437D+01 0.439D+01
 Coeff:     -0.931D-02 0.236D+00-0.410D+00 0.121D+00 0.299D-01-0.266D+00
 Coeff:      0.405D+00 0.202D+00 0.672D+00-0.437D+01 0.439D+01
 Gap=     0.231 Goal=   None    Shift=    0.500
 Gap=     0.259 Goal=   None    Shift=    0.500
 RMSDP=3.22D-05 MaxDP=7.22D-04 DE=-2.52D-06 OVMax= 1.83D-03

 Cycle  23  Pass 1  IDiag  1:
 E= -193.312409419941     Delta-E=       -0.000001215421 Rises=F Damp=F
 DIIS: error= 1.09D-04 at cycle  23 NSaved=  12.
 NSaved=12 IEnMin=12 EnMin= -193.312409419941     IErMin=12 ErrMin= 1.09D-04
 ErrMax= 1.09D-04  0.00D+00 EMaxC= 1.00D+00 BMatC= 2.74D-07 BMatP= 5.29D-07
 IDIUse=1 WtCom= 1.00D+00 WtEn= 0.00D+00
 Coeff-Com:  0.287D+00-0.226D+00-0.539D+00 0.511D+00 0.273D+00-0.234D+00
 Coeff-Com: -0.439D+00-0.470D-01 0.696D+00 0.935D+00-0.367D+01 0.345D+01
 Coeff:      0.287D+00-0.226D+00-0.539D+00 0.511D+00 0.273D+00-0.234D+00
 Coeff:     -0.439D+00-0.470D-01 0.696D+00 0.935D+00-0.367D+01 0.345D+01
 Gap=     0.231 Goal=   None    Shift=    0.500
 Gap=     0.259 Goal=   None    Shift=    0.500
 RMSDP=2.15D-05 MaxDP=5.04D-04 DE=-1.22D-06 OVMax= 1.22D-03

 Cycle  24  Pass 1  IDiag  1:
 E= -193.312409955470     Delta-E=       -0.000000535528 Rises=F Damp=F
 DIIS: error= 7.71D-05 at cycle  24 NSaved=  13.
 NSaved=13 IEnMin=13 EnMin= -193.312409955470     IErMin=13 ErrMin= 7.71D-05
 ErrMax= 7.71D-05  0.00D+00 EMaxC= 1.00D+00 BMatC= 1.34D-07 BMatP= 2.74D-07
 IDIUse=1 WtCom= 1.00D+00 WtEn= 0.00D+00
 Coeff-Com: -0.183D+00 0.253D+00 0.841D-01-0.167D+00-0.190D+00 0.236D+00
 Coeff-Com:  0.712D-01 0.646D-01-0.545D-01-0.139D+01 0.363D+01-0.604D+01
 Coeff-Com:  0.469D+01
 Coeff:     -0.183D+00 0.253D+00 0.841D-01-0.167D+00-0.190D+00 0.236D+00
 Coeff:      0.712D-01 0.646D-01-0.545D-01-0.139D+01 0.363D+01-0.604D+01
 Coeff:      0.469D+01
 Gap=     0.231 Goal=   None    Shift=    0.500
 Gap=     0.259 Goal=   None    Shift=    0.500
 RMSDP=1.38D-05 MaxDP=3.46D-04 DE=-5.36D-07 OVMax= 8.11D-04

 Cycle  25  Pass 1  IDiag  1:
 E= -193.312410183508     Delta-E=       -0.000000228038 Rises=F Damp=F
 DIIS: error= 5.16D-05 at cycle  25 NSaved=  14.
 NSaved=14 IEnMin=14 EnMin= -193.312410183508     IErMin=14 ErrMin= 5.16D-05
 ErrMax= 5.16D-05  0.00D+00 EMaxC= 1.00D+00 BMatC= 5.93D-08 BMatP= 1.34D-07
 IDIUse=1 WtCom= 1.00D+00 WtEn= 0.00D+00
 Coeff-Com: -0.818D-01 0.154D+00-0.271D-01-0.666D-01-0.447D-01 0.808D-01
 Coeff-Com: -0.339D-01 0.456D-01 0.117D+00-0.545D+00 0.517D+00 0.417D+00
 Coeff-Com: -0.247D+01 0.294D+01
 Coeff:     -0.818D-01 0.154D+00-0.271D-01-0.666D-01-0.447D-01 0.808D-01
 Coeff:     -0.339D-01 0.456D-01 0.117D+00-0.545D+00 0.517D+00 0.417D+00
 Coeff:     -0.247D+01 0.294D+01
 Gap=     0.231 Goal=   None    Shift=    0.500
 Gap=     0.259 Goal=   None    Shift=    0.500
 RMSDP=7.12D-06 MaxDP=1.90D-04 DE=-2.28D-07 OVMax= 4.16D-04

 Cycle  26  Pass 1  IDiag  1:
 E= -193.312410264095     Delta-E=       -0.000000080587 Rises=F Damp=F
 DIIS: error= 3.73D-05 at cycle  26 NSaved=  15.
 NSaved=15 IEnMin=15 EnMin= -193.312410264095     IErMin=15 ErrMin= 3.73D-05
 ErrMax= 3.73D-05  0.00D+00 EMaxC= 1.00D+00 BMatC= 2.62D-08 BMatP= 5.93D-08
 IDIUse=1 WtCom= 1.00D+00 WtEn= 0.00D+00
 Coeff-Com:  0.177D-01 0.141D-01-0.907D-01 0.510D-01 0.528D-01-0.383D-01
 Coeff-Com: -0.108D+00 0.614D-01 0.175D+00-0.477D-01-0.767D+00 0.208D+01
 Coeff-Com: -0.277D+01 0.690D+00 0.167D+01
 Coeff:      0.177D-01 0.141D-01-0.907D-01 0.510D-01 0.528D-01-0.383D-01
 Coeff:     -0.108D+00 0.614D-01 0.175D+00-0.477D-01-0.767D+00 0.208D+01
 Coeff:     -0.277D+01 0.690D+00 0.167D+01
 Gap=     0.231 Goal=   None    Shift=    0.500
 Gap=     0.259 Goal=   None    Shift=    0.500
 RMSDP=5.25D-06 MaxDP=1.33D-04 DE=-8.06D-08 OVMax= 3.16D-04

 Cycle  27  Pass 1  IDiag  1:
 E= -193.312410302064     Delta-E=       -0.000000037969 Rises=F Damp=F
 DIIS: error= 2.56D-05 at cycle  27 NSaved=  16.
 NSaved=16 IEnMin=16 EnMin= -193.312410302064     IErMin=16 ErrMin= 2.56D-05
 ErrMax= 2.56D-05  0.00D+00 EMaxC= 1.00D+00 BMatC= 1.21D-08 BMatP= 2.62D-08
 IDIUse=1 WtCom= 1.00D+00 WtEn= 0.00D+00
 Coeff-Com:  0.199D-02 0.666D-02-0.301D-01 0.246D-01 0.584D-02 0.135D-01
 Coeff-Com: -0.655D-01 0.165D-01 0.809D-01-0.696D-02-0.133D+00 0.602D-01
 Coeff-Com:  0.472D+00-0.113D+01-0.819D+00 0.250D+01
 Coeff:      0.199D-02 0.666D-02-0.301D-01 0.246D-01 0.584D-02 0.135D-01
 Coeff:     -0.655D-01 0.165D-01 0.809D-01-0.696D-02-0.133D+00 0.602D-01
 Coeff:      0.472D+00-0.113D+01-0.819D+00 0.250D+01
 Gap=     0.231 Goal=   None    Shift=    0.500
 Gap=     0.259 Goal=   None    Shift=    0.500
 RMSDP=3.63D-06 MaxDP=9.17D-05 DE=-3.80D-08 OVMax= 2.23D-04

 Cycle  28  Pass 1  IDiag  1:
 E= -193.312410319133     Delta-E=       -0.000000017069 Rises=F Damp=F
 DIIS: error= 1.65D-05 at cycle  28 NSaved=  17.
 NSaved=17 IEnMin=17 EnMin= -193.312410319133     IErMin=17 ErrMin= 1.65D-05
 ErrMax= 1.65D-05  0.00D+00 EMaxC= 1.00D+00 BMatC= 5.20D-09 BMatP= 1.21D-08
 IDIUse=1 WtCom= 1.00D+00 WtEn= 0.00D+00
 Coeff-Com: -0.550D-01 0.706D-01 0.369D-01-0.522D-01-0.474D-01 0.578D-01
 Coeff-Com:  0.156D-01-0.150D-01-0.326D-01-0.562D-01 0.302D+00-0.542D+00
 Coeff-Com:  0.277D+00 0.597D+00-0.816D+00-0.162D+01 0.288D+01
 Coeff:     -0.550D-01 0.706D-01 0.369D-01-0.522D-01-0.474D-01 0.578D-01
 Coeff:      0.156D-01-0.150D-01-0.326D-01-0.562D-01 0.302D+00-0.542D+00
 Coeff:      0.277D+00 0.597D+00-0.816D+00-0.162D+01 0.288D+01
 Gap=     0.231 Goal=   None    Shift=    0.500
 Gap=     0.259 Goal=   None    Shift=    0.500
 RMSDP=1.89D-06 MaxDP=5.18D-05 DE=-1.71D-08 OVMax= 1.18D-04

 Cycle  29  Pass 1  IDiag  1:
 E= -193.312410325336     Delta-E=       -0.000000006203 Rises=F Damp=F
 DIIS: error= 1.10D-05 at cycle  29 NSaved=  18.
 NSaved=18 IEnMin=18 EnMin= -193.312410325336     IErMin=18 ErrMin= 1.10D-05
 ErrMax= 1.10D-05  0.00D+00 EMaxC= 1.00D+00 BMatC= 2.15D-09 BMatP= 5.20D-09
 IDIUse=1 WtCom= 1.00D+00 WtEn= 0.00D+00
 Coeff-Com:  0.516D-02-0.532D-02-0.417D-02 0.510D-02 0.598D-03-0.701D-03
 Coeff-Com: -0.171D-01 0.184D-01 0.255D-01-0.584D-01 0.245D-02 0.126D+00
 Coeff-Com: -0.197D+00 0.100D+00 0.289D-01 0.743D+00-0.339D+01 0.361D+01
 Coeff:      0.516D-02-0.532D-02-0.417D-02 0.510D-02 0.598D-03-0.701D-03
 Coeff:     -0.171D-01 0.184D-01 0.255D-01-0.584D-01 0.245D-02 0.126D+00
 Coeff:     -0.197D+00 0.100D+00 0.289D-01 0.743D+00-0.339D+01 0.361D+01
 Gap=     0.231 Goal=   None    Shift=    0.500
 Gap=     0.259 Goal=   None    Shift=    0.500
 RMSDP=1.58D-06 MaxDP=4.04D-05 DE=-6.20D-09 OVMax= 9.92D-05

 Cycle  30  Pass 1  IDiag  1:
 E= -193.312410328293     Delta-E=       -0.000000002956 Rises=F Damp=F
 DIIS: error= 6.74D-06 at cycle  30 NSaved=  19.
 NSaved=19 IEnMin=19 EnMin= -193.312410328293     IErMin=19 ErrMin= 6.74D-06
 ErrMax= 6.74D-06  0.00D+00 EMaxC= 1.00D+00 BMatC= 9.04D-10 BMatP= 2.15D-09
 IDIUse=1 WtCom= 1.00D+00 WtEn= 0.00D+00
 Coeff-Com: -0.142D-01 0.208D-01 0.156D-02-0.866D-02-0.380D-02 0.666D-02
 Coeff-Com:  0.125D-02-0.638D-02-0.411D-02 0.301D-01-0.249D-01-0.306D-01
 Coeff-Com:  0.104D+00-0.179D+00-0.892D-01 0.184D+00 0.106D+01-0.353D+01
 Coeff-Com:  0.348D+01
 Coeff:     -0.142D-01 0.208D-01 0.156D-02-0.866D-02-0.380D-02 0.666D-02
 Coeff:      0.125D-02-0.638D-02-0.411D-02 0.301D-01-0.249D-01-0.306D-01
 Coeff:      0.104D+00-0.179D+00-0.892D-01 0.184D+00 0.106D+01-0.353D+01
 Coeff:      0.348D+01
 Gap=     0.231 Goal=   None    Shift=    0.500
 Gap=     0.259 Goal=   None    Shift=    0.500
 RMSDP=6.39D-07 MaxDP=1.90D-05 DE=-2.96D-09 OVMax= 4.01D-05

 SCF Done:  E(ULC-wHPBE) =  -193.312410328     A.U. after   30 cycles
            NFock= 30  Conv=0.64D-06     -V/T= 2.0082
 <Sx>= 0.0000 <Sy>= 0.0000 <Sz>= 0.5000 <S**2>= 0.9243 S= 0.5837
 <L.S>= 0.000000000000E+00
 KE= 1.917384936220D+02 PE=-7.299863292956D+02 EE= 1.999135255522D+02
 Annihilation of the first spin contaminant:
 S**2 before annihilation     0.9243,   after     0.7717
 Leave Link  502 at Tue Feb 25 12:20:48 2020, MaxMem=  6710886400 cpu:              37.7 elap:               2.4
 (Enter /opt/ohpc/pub/libs/gaussian/g16-A.03/haswell/g16/l508.exe)
 QCSCF skips out because SCF is already converged.
 Leave Link  508 at Tue Feb 25 12:20:48 2020, MaxMem=  6710886400 cpu:               0.0 elap:               0.0
 (Enter /opt/ohpc/pub/libs/gaussian/g16-A.03/haswell/g16/l601.exe)
 Copying SCF densities to generalized density rwf, IOpCl= 1 IROHF=0.

 **********************************************************************

            Population analysis using the SCF density.

 **********************************************************************

 Orbital symmetries:
 Alpha Orbitals:
       Occupied  (B2) (A1) (B2) (A1) (A1) (A1) (B2) (A1) (B2) (A1)
                 (A1) (B2) (B2) (A1) (B1) (A1) (A2) (B1)
       Virtual   (B2) (A1) (A2) (B1) (A1) (B2) (A1) (B2) (A1) (A1)
                 (B2) (A1) (B2) (B1) (B2) (B1) (A1) (A2) (A1) (B2)
                 (A1) (A2) (A1) (B1) (B2) (A1) (B2) (A1) (B2) (A1)
                 (A1) (A1) (B2) (A1) (B2) (B2) (A1) (A1) (B2)
 Beta  Orbitals:
       Occupied  (B2) (A1) (B2) (A1) (A1) (A1) (B2) (A1) (B2) (A1)
                 (A1) (B2) (B2) (A1) (A1) (B1) (A2)
       Virtual   (A1) (B2) (B1) (A2) (B1) (A1) (B2) (A1) (B2) (A1)
                 (A1) (B2) (A1) (B2) (B1) (B2) (A1) (A2) (B1) (A1)
                 (B2) (A1) (A2) (A1) (B2) (B1) (A1) (B2) (A1) (B2)
                 (A1) (A1) (A1) (B2) (A1) (B2) (B2) (A1) (A1) (B2)
 The electronic state is 2-B1.
 Alpha  occ. eigenvalues --  -10.35546 -10.35544 -10.27947 -10.27947 -10.27183
 Alpha  occ. eigenvalues --   -1.14171  -1.05453  -0.99022  -0.88561  -0.81762
 Alpha  occ. eigenvalues --   -0.81104  -0.74060  -0.69515  -0.67261  -0.66829
 Alpha  occ. eigenvalues --   -0.63715  -0.57595  -0.50580
 Alpha virt. eigenvalues --   -0.27464  -0.25969  -0.14493  -0.03859  -0.00136
 Alpha virt. eigenvalues --    0.03808   0.07221   0.08642   0.09998   0.18048
 Alpha virt. eigenvalues --    0.19355   0.27331   0.28845   0.37444   0.39925
 Alpha virt. eigenvalues --    0.47290   0.47354   0.47590   0.49863   0.51087
 Alpha virt. eigenvalues --    0.53035   0.54607   0.55642   0.57377   0.57855
 Alpha virt. eigenvalues --    0.68721   0.72257   0.73965   0.77684   0.77723
 Alpha virt. eigenvalues --    0.83316   0.84969   0.86903   0.92972   1.00011
 Alpha virt. eigenvalues --    1.04677   1.09408   1.32030   1.32663
  Beta  occ. eigenvalues --  -10.34624 -10.34620 -10.28295 -10.28294 -10.26384
  Beta  occ. eigenvalues --   -1.13274  -1.04804  -0.96572  -0.87624  -0.81353
  Beta  occ. eigenvalues --   -0.80313  -0.73588  -0.69223  -0.66655  -0.64395
  Beta  occ. eigenvalues --   -0.63811  -0.55194
  Beta virt. eigenvalues --   -0.29275  -0.23652  -0.23563  -0.11644  -0.01378
  Beta virt. eigenvalues --    0.00127   0.04122   0.07723   0.08737   0.10435
  Beta virt. eigenvalues --    0.18661   0.19829   0.27846   0.29090   0.40167
  Beta virt. eigenvalues --    0.40471   0.47892   0.49036   0.49341   0.50496
  Beta virt. eigenvalues --    0.51628   0.53344   0.55267   0.57444   0.58655
  Beta virt. eigenvalues --    0.58689   0.65177   0.72699   0.73441   0.77777
  Beta virt. eigenvalues --    0.78620   0.83733   0.85189   0.87361   0.94275
  Beta virt. eigenvalues --    1.00242   1.05327   1.09985   1.32790   1.33905
          Condensed to atoms (all electrons):
               1          2          3          4          5          6
     1  C    5.179024   0.512113  -0.061431  -0.041845   0.138856   0.100156
     2  C    0.512113   4.949187   0.494537  -0.059416  -0.041845  -0.003216
     3  C   -0.061431   0.494537   4.845654   0.494537  -0.061431   0.000347
     4  C   -0.041845  -0.059416   0.494537   4.949187   0.512113  -0.003216
     5  C    0.138856  -0.041845  -0.061431   0.512113   5.179024   0.100156
     6  H    0.100156  -0.003216   0.000347  -0.003216   0.100156   0.534159
     7  H    0.348193  -0.028176   0.002585   0.000733  -0.002730  -0.004961
     8  H   -0.024592   0.354417  -0.010598   0.003330   0.000433   0.000106
     9  H    0.004335  -0.029050   0.368560  -0.029050   0.004335  -0.000002
    10  H    0.000433   0.003330  -0.010598   0.354417  -0.024592   0.000106
    11  H   -0.002730   0.000733   0.002585  -0.028176   0.348193  -0.004961
               7          8          9         10         11
     1  C    0.348193  -0.024592   0.004335   0.000433  -0.002730
     2  C   -0.028176   0.354417  -0.029050   0.003330   0.000733
     3  C    0.002585  -0.010598   0.368560  -0.010598   0.002585
     4  C    0.000733   0.003330  -0.029050   0.354417  -0.028176
     5  C   -0.002730   0.000433   0.004335  -0.024592   0.348193
     6  H   -0.004961   0.000106  -0.000002   0.000106  -0.004961
     7  H    0.403478   0.000580  -0.000090  -0.000007   0.000020
     8  H    0.000580   0.384658  -0.002752  -0.000058  -0.000007
     9  H   -0.000090  -0.002752   0.442600  -0.002752  -0.000090
    10  H   -0.000007  -0.000058  -0.002752   0.384658   0.000580
    11  H    0.000020  -0.000007  -0.000090   0.000580   0.403478
          Atomic-Atomic Spin Densities.
               1          2          3          4          5          6
     1  C    0.725507  -0.034666  -0.021350  -0.010483   0.051280  -0.012140
     2  C   -0.034666  -0.300756   0.012893   0.005670  -0.010483  -0.000515
     3  C   -0.021350   0.012893   0.649698   0.012893  -0.021350   0.000002
     4  C   -0.010483   0.005670   0.012893  -0.300756  -0.034666  -0.000515
     5  C    0.051280  -0.010483  -0.021350  -0.034666   0.725507  -0.012140
     6  H   -0.012140  -0.000515   0.000002  -0.000515  -0.012140  -0.276322
     7  H   -0.007392   0.001880  -0.000066   0.000034  -0.000212   0.002246
     8  H   -0.001866   0.004088  -0.001060  -0.000176   0.000194  -0.000013
     9  H   -0.000001   0.000061  -0.001312   0.000061  -0.000001   0.000000
    10  H    0.000194  -0.000176  -0.001060   0.004088  -0.001866  -0.000013
    11  H   -0.000212   0.000034  -0.000066   0.001880  -0.007392   0.002246
               7          8          9         10         11
     1  C   -0.007392  -0.001866  -0.000001   0.000194  -0.000212
     2  C    0.001880   0.004088   0.000061  -0.000176   0.000034
     3  C   -0.000066  -0.001060  -0.001312  -0.001060  -0.000066
     4  C    0.000034  -0.000176   0.000061   0.004088   0.001880
     5  C   -0.000212   0.000194  -0.000001  -0.001866  -0.007392
     6  H    0.002246  -0.000013   0.000000  -0.000013   0.002246
     7  H   -0.030912   0.000063   0.000005  -0.000000  -0.000006
     8  H    0.000063   0.014445   0.000046   0.000006  -0.000000
     9  H    0.000005   0.000046  -0.027493   0.000046   0.000005
    10  H   -0.000000   0.000006   0.000046   0.014445   0.000063
    11  H   -0.000006  -0.000000   0.000005   0.000063  -0.030912
 Mulliken charges and spin densities:
               1          2
     1  C   -0.152511   0.688870
     2  C   -0.152613  -0.321970
     3  C   -0.064746   0.629220
     4  C   -0.152613  -0.321970
     5  C   -0.152511   0.688870
     6  H    0.281325  -0.297165
     7  H    0.280374  -0.034363
     8  H    0.294483   0.015727
     9  H    0.243955  -0.028583
    10  H    0.294483   0.015727
    11  H    0.280374  -0.034363
 Sum of Mulliken charges =   1.00000   1.00000
 Mulliken charges and spin densities with hydrogens summed into heavy atoms:
               1          2
     1  C    0.409188   0.357342
     2  C    0.141870  -0.306243
     3  C    0.179209   0.600637
     4  C    0.141870  -0.306243
     5  C    0.127863   0.654507
 Electronic spatial extent (au):  <R**2>=            374.8629
 Charge=              1.0000 electrons
 Dipole moment (field-independent basis, Debye):
    X=             -0.0000    Y=              0.0000    Z=             -2.7489  Tot=              2.7489
 Quadrupole moment (field-independent basis, Debye-Ang):
   XX=            -32.5410   YY=            -13.1678   ZZ=            -10.5085
   XY=              0.0000   XZ=              0.0000   YZ=             -0.0000
 Traceless Quadrupole moment (field-independent basis, Debye-Ang):
   XX=            -13.8019   YY=              5.5713   ZZ=              8.2306
   XY=              0.0000   XZ=              0.0000   YZ=             -0.0000
 Octapole moment (field-independent basis, Debye-Ang**2):
  XXX=              0.0000  YYY=              0.0000  ZZZ=            -22.3213  XYY=             -0.0000
  XXY=             -0.0000  XXZ=              1.6038  XZZ=              0.0000  YZZ=              0.0000
  YYZ=             -3.2457  XYZ=             -0.0000
 Hexadecapole moment (field-independent basis, Debye-Ang**3):
 XXXX=            -33.2206 YYYY=           -180.3560 ZZZZ=            -97.6048 XXXY=             -0.0000
 XXXZ=             -0.0000 YYYX=             -0.0000 YYYZ=              0.0000 ZZZX=             -0.0000
 ZZZY=              0.0000 XXYY=            -55.3499 XXZZ=            -44.3947 YYZZ=            -50.9148
 XXYZ=              0.0000 YYXZ=              0.0000 ZZXY=             -0.0000
 N-N= 1.450218997931D+02 E-N=-7.299862773279D+02  KE= 1.917384936220D+02
 Symmetry A1   KE= 1.107563313118D+02
 Symmetry A2   KE= 2.409464155015D+00
 Symmetry B1   KE= 3.299554330570D+00
 Symmetry B2   KE= 7.527314382462D+01
 Symmetry A1   SP=-2.054850882025D-14
 Symmetry A2   SP=-5.730242795546D-16
 Symmetry B1   SP= 1.000000000000D+00
 Symmetry B2   SP=-4.087090127305D-14
                          Isotropic Fermi Contact Couplings
        Atom                 a.u.       MegaHertz       Gauss      10(-4) cm-1
     1  C(13)              0.12418     139.60035      49.81288      46.56567
     2  C(13)             -0.05127     -57.63517     -20.56566     -19.22502
     3  C(13)              0.09449     106.22522      37.90380      35.43292
     4  C(13)             -0.05127     -57.63517     -20.56566     -19.22502
     5  C(13)              0.12418     139.60035      49.81288      46.56567
     6  H(1)              -0.10028    -448.24051    -159.94336    -149.51694
     7  H(1)              -0.01274     -56.92606     -20.31263     -18.98849
     8  H(1)               0.00650      29.05650      10.36808       9.69221
     9  H(1)              -0.01030     -46.04359     -16.42950     -15.35849
    10  H(1)               0.00650      29.05650      10.36808       9.69221
    11  H(1)              -0.01274     -56.92606     -20.31263     -18.98849
 --------------------------------------------------------
       Center         ----  Spin Dipole Couplings  ----
                      3XX-RR        3YY-RR        3ZZ-RR
 --------------------------------------------------------
     1   Atom        0.503600     -0.211888     -0.291713
     2   Atom       -0.252558      0.099760      0.152798
     3   Atom        0.599779     -0.321632     -0.278147
     4   Atom       -0.252558      0.099760      0.152798
     5   Atom        0.503600     -0.211888     -0.291713
     6   Atom       -0.014995     -0.005338      0.020333
     7   Atom       -0.011938      0.033112     -0.021174
     8   Atom       -0.007954      0.000595      0.007359
     9   Atom       -0.006038     -0.039803      0.045842
    10   Atom       -0.007954      0.000595      0.007359
    11   Atom       -0.011938      0.033112     -0.021174
 --------------------------------------------------------
                        XY            XZ            YZ
 --------------------------------------------------------
     1   Atom        0.000000      0.000000      0.082164
     2   Atom       -0.000000      0.000000     -0.000752
     3   Atom       -0.000000      0.000000     -0.000000
     4   Atom       -0.000000     -0.000000      0.000752
     5   Atom        0.000000      0.000000     -0.082164
     6   Atom        0.000000     -0.000000     -0.000000
     7   Atom        0.000000      0.000000     -0.040388
     8   Atom        0.000000      0.000000     -0.008448
     9   Atom       -0.000000     -0.000000      0.000000
    10   Atom        0.000000     -0.000000      0.008448
    11   Atom       -0.000000      0.000000      0.040388
 --------------------------------------------------------


 ---------------------------------------------------------------------------------
              Anisotropic Spin Dipole Couplings in Principal Axis System
 ---------------------------------------------------------------------------------

       Atom             a.u.   MegaHertz   Gauss  10(-4) cm-1        Axes

              Baa    -0.3431   -46.047   -16.431   -15.360 -0.0000 -0.5306  0.8476
     1 C(13)  Bbb    -0.1605   -21.532    -7.683    -7.182  0.0000  0.8476  0.5306
              Bcc     0.5036    67.578    24.114    22.542  1.0000 -0.0000  0.0000
 
              Baa    -0.2526   -33.891   -12.093   -11.305  1.0000  0.0000 -0.0000
     2 C(13)  Bbb     0.0997    13.385     4.776     4.465 -0.0000  0.9999  0.0142
              Bcc     0.1528    20.506     7.317     6.840  0.0000 -0.0142  0.9999
 
              Baa    -0.3216   -43.160   -15.401   -14.397  0.0000  1.0000  0.0000
     3 C(13)  Bbb    -0.2781   -37.325   -13.318   -12.450  0.0000  0.0000  1.0000
              Bcc     0.5998    80.485    28.719    26.847  1.0000  0.0000  0.0000
 
              Baa    -0.2526   -33.891   -12.093   -11.305  1.0000  0.0000  0.0000
     4 C(13)  Bbb     0.0997    13.385     4.776     4.465 -0.0000  0.9999 -0.0142
              Bcc     0.1528    20.506     7.317     6.840 -0.0000  0.0142  0.9999
 
              Baa    -0.3431   -46.047   -16.431   -15.360 -0.0000  0.5306  0.8476
     5 C(13)  Bbb    -0.1605   -21.532    -7.683    -7.182 -0.0000  0.8476 -0.5306
              Bcc     0.5036    67.578    24.114    22.542  1.0000  0.0000  0.0000
 
              Baa    -0.0150    -8.001    -2.855    -2.669  1.0000 -0.0000  0.0000
     6 H(1)   Bbb    -0.0053    -2.848    -1.016    -0.950  0.0000  1.0000  0.0000
              Bcc     0.0203    10.849     3.871     3.619 -0.0000 -0.0000  1.0000
 
              Baa    -0.0427   -22.779    -8.128    -7.598 -0.0000  0.4702  0.8825
     7 H(1)   Bbb    -0.0119    -6.370    -2.273    -2.125  1.0000  0.0000  0.0000
              Bcc     0.0546    29.148    10.401     9.723 -0.0000  0.8825 -0.4702
 
              Baa    -0.0080    -4.244    -1.514    -1.416  1.0000  0.0000  0.0000
     8 H(1)   Bbb    -0.0051    -2.733    -0.975    -0.912 -0.0000  0.8282  0.5605
              Bcc     0.0131     6.977     2.490     2.327  0.0000 -0.5605  0.8282
 
              Baa    -0.0398   -21.237    -7.578    -7.084  0.0000  1.0000 -0.0000
     9 H(1)   Bbb    -0.0060    -3.222    -1.150    -1.075  1.0000 -0.0000  0.0000
              Bcc     0.0458    24.459     8.728     8.159  0.0000  0.0000  1.0000
 
              Baa    -0.0080    -4.244    -1.514    -1.416  1.0000 -0.0000  0.0000
    10 H(1)   Bbb    -0.0051    -2.733    -0.975    -0.912  0.0000  0.8282 -0.5605
              Bcc     0.0131     6.977     2.490     2.327  0.0000  0.5605  0.8282
 
              Baa    -0.0427   -22.779    -8.128    -7.598 -0.0000 -0.4702  0.8825
    11 H(1)   Bbb    -0.0119    -6.370    -2.273    -2.125  1.0000 -0.0000  0.0000
              Bcc     0.0546    29.148    10.401     9.723  0.0000  0.8825  0.4702
 

 ---------------------------------------------------------------------------------

 No NMR shielding tensors so no spin-rotation constants.
 Leave Link  601 at Tue Feb 25 12:20:48 2020, MaxMem=  6710886400 cpu:               5.1 elap:               0.3
 (Enter /opt/ohpc/pub/libs/gaussian/g16-A.03/haswell/g16/l9999.exe)

 Test job not archived.
 1\1\GINC-HASWELL008\SP\ULC-wHPBE\6-31G\C5H6(1+,2)\SMGO234\25-Feb-2020\
 0\\#P uLC-wHPBE/6-31G iop(3/107=0272800000, 3/108=0272800000) scf=(con
 ver=6,fermi,ndamp=35,noincfock,novaracc,vshift=500,xqc)\\H6 C5\\1,2\C,
 0,-1.206512,0.69658,0.\C,0,-1.206512,-0.69658,0.\C,0,0.,-1.39316,0.\C,
 0,1.206512,-0.69658,0.\C,0,1.206512,0.69658,0.\H,0,0.,2.482681,0.\H,0,
 -2.150065,1.24134,0.\H,0,-2.150065,-1.24134,0.\H,0,0.,-2.482681,0.\H,0
 ,2.150065,-1.24134,0.\H,0,2.150065,1.24134,0.\\Version=ES64L-G16RevA.0
 3\State=2-B1\HF=-193.3124103\S2=0.924299\S2-1=0.\S2A=0.771737\RMSD=6.3
 89e-07\Dipole=0.,1.0815131,0.\Quadrupole=4.1421383,6.1192224,-10.26136
 07,0.,0.,0.\PG=C02V [C2(H1C1H1),SGV(C4H4)]\\@


 IT IS BETTER TO THINK YOU ARE HALF DRY THAN TO KNOW YOU
 ARE ALL WET.  -- SNOOPY
 Job cpu time:       0 days  0 hours  1 minutes  4.2 seconds.
 Elapsed time:       0 days  0 hours  0 minutes  4.3 seconds.
 File lengths (MBytes):  RWF=    272 Int=      0 D2E=      0 Chk=     32 Scr=     32
 Normal termination of Gaussian 16 at Tue Feb 25 12:20:49 2020.
