 Entering Gaussian System, Link 0=g16
 Input=1b_tune_c4.gjf
 Output=1b_tune_c4.log
 Initial command:
 /opt/ohpc/pub/libs/gaussian/g16-A.03/haswell/g16/l1.exe "/scratch/smgo234/Ocelot/test/1b/tuning_1b_ocycle0/Gau-34056.inp" -scrdir="/scratch/smgo234/Ocelot/test/1b/tuning_1b_ocycle0/"
 Entering Link 1 = /opt/ohpc/pub/libs/gaussian/g16-A.03/haswell/g16/l1.exe PID=     34058.
  
 Copyright (c) 1988,1990,1992,1993,1995,1998,2003,2009,2016,
            Gaussian, Inc.  All Rights Reserved.
  
 This is part of the Gaussian(R) 16 program.  It is based on
 the Gaussian(R) 09 system (copyright 2009, Gaussian, Inc.),
 the Gaussian(R) 03 system (copyright 2003, Gaussian, Inc.),
 the Gaussian(R) 98 system (copyright 1998, Gaussian, Inc.),
 the Gaussian(R) 94 system (copyright 1995, Gaussian, Inc.),
 the Gaussian 92(TM) system (copyright 1992, Gaussian, Inc.),
 the Gaussian 90(TM) system (copyright 1990, Gaussian, Inc.),
 the Gaussian 88(TM) system (copyright 1988, Gaussian, Inc.),
 the Gaussian 86(TM) system (copyright 1986, Carnegie Mellon
 University), and the Gaussian 82(TM) system (copyright 1983,
 Carnegie Mellon University). Gaussian is a federally registered
 trademark of Gaussian, Inc.
  
 This software contains proprietary and confidential information,
 including trade secrets, belonging to Gaussian, Inc.
  
 This software is provided under written license and may be
 used, copied, transmitted, or stored only in accord with that
 written license.
  
 The following legend is applicable only to US Government
 contracts under FAR:
  
                    RESTRICTED RIGHTS LEGEND
  
 Use, reproduction and disclosure by the US Government is
 subject to restrictions as set forth in subparagraphs (a)
 and (c) of the Commercial Computer Software - Restricted
 Rights clause in FAR 52.227-19.
  
 Gaussian, Inc.
 340 Quinnipiac St., Bldg. 40, Wallingford CT 06492
  
  
 ---------------------------------------------------------------
 Warning -- This program may not be used in any manner that
 competes with the business of Gaussian, Inc. or will provide
 assistance to any competitor of Gaussian, Inc.  The licensee
 of this program is prohibited from giving any competitor of
 Gaussian, Inc. access to this program.  By using this program,
 the user acknowledges that Gaussian, Inc. is engaged in the
 business of creating and licensing software in the field of
 computational chemistry and represents and warrants to the
 licensee that it is not a competitor of Gaussian, Inc. and that
 it will not use this program in any manner prohibited above.
 ---------------------------------------------------------------
  

 Cite this work as:
 Gaussian 16, Revision A.03,
 M. J. Frisch, G. W. Trucks, H. B. Schlegel, G. E. Scuseria, 
 M. A. Robb, J. R. Cheeseman, G. Scalmani, V. Barone, 
 G. A. Petersson, H. Nakatsuji, X. Li, M. Caricato, A. V. Marenich, 
 J. Bloino, B. G. Janesko, R. Gomperts, B. Mennucci, H. P. Hratchian, 
 J. V. Ortiz, A. F. Izmaylov, J. L. Sonnenberg, D. Williams-Young, 
 F. Ding, F. Lipparini, F. Egidi, J. Goings, B. Peng, A. Petrone, 
 T. Henderson, D. Ranasinghe, V. G. Zakrzewski, J. Gao, N. Rega, 
 G. Zheng, W. Liang, M. Hada, M. Ehara, K. Toyota, R. Fukuda, 
 J. Hasegawa, M. Ishida, T. Nakajima, Y. Honda, O. Kitao, H. Nakai, 
 T. Vreven, K. Throssell, J. A. Montgomery, Jr., J. E. Peralta, 
 F. Ogliaro, M. J. Bearpark, J. J. Heyd, E. N. Brothers, K. N. Kudin, 
 V. N. Staroverov, T. A. Keith, R. Kobayashi, J. Normand, 
 K. Raghavachari, A. P. Rendell, J. C. Burant, S. S. Iyengar, 
 J. Tomasi, M. Cossi, J. M. Millam, M. Klene, C. Adamo, R. Cammi, 
 J. W. Ochterski, R. L. Martin, K. Morokuma, O. Farkas, 
 J. B. Foresman, and D. J. Fox, Gaussian, Inc., Wallingford CT, 2016.
 
 ******************************************
 Gaussian 16:  ES64L-G16RevA.03 25-Dec-2016
                25-Feb-2020 
 ******************************************
 %mem=50GB
 %nproc=16
 Will use up to   16 processors via shared memory.
 ----------------------------------------------------------------------
 #P uLC-wHPBE/6-31G iop(3/107=0276700000, 3/108=0276700000) scf=(conver
 =6,fermi,ndamp=35,noincfock,novaracc,vshift=500,xqc)
 ----------------------------------------------------------------------
 1/38=1,172=1/1;
 2/12=2,17=6,18=5,40=1/2;
 3/5=1,6=6,11=2,25=1,30=1,74=-71,107=276700000,108=276700000,116=2/1,2,3;
 4//1;
 5/5=100002,6=6,8=3,10=500,13=1,18=-1,22=13,38=1,93=35/2,8;
 6/7=2,8=2,9=2,10=2,28=1/1;
 99/5=1,9=1/99;
 Leave Link    1 at Tue Feb 25 12:19:56 2020, MaxMem=  6710886400 cpu:               9.6 elap:               0.6
 (Enter /opt/ohpc/pub/libs/gaussian/g16-A.03/haswell/g16/l101.exe)
 -----
 H6 C5
 -----
 Symbolic Z-matrix:
 Charge =  1 Multiplicity = 2
 C                    -1.20651   0.69658   0. 
 C                    -1.20651  -0.69658   0. 
 C                     0.       -1.39316   0. 
 C                     1.20651  -0.69658   0. 
 C                     1.20651   0.69658   0. 
 H                     0.        2.48268   0. 
 H                    -2.15007   1.24134   0. 
 H                    -2.15007  -1.24134   0. 
 H                     0.       -2.48268   0. 
 H                     2.15007  -1.24134   0. 
 H                     2.15007   1.24134   0. 
 
 ITRead=  0  0  0  0  0  0  0  0  0  0  0
 MicOpt= -1 -1 -1 -1 -1 -1 -1 -1 -1 -1 -1
 NAtoms=     11 NQM=       11 NQMF=       0 NMMI=      0 NMMIF=      0
                NMic=       0 NMicF=      0.
                    Isotopes and Nuclear Properties:
 (Nuclear quadrupole moments (NQMom) in fm**2, nuclear magnetic moments (NMagM)
  in nuclear magnetons)

  Atom         1           2           3           4           5           6           7           8           9          10
 IAtWgt=          12          12          12          12          12           1           1           1           1           1
 AtmWgt=  12.0000000  12.0000000  12.0000000  12.0000000  12.0000000   1.0078250   1.0078250   1.0078250   1.0078250   1.0078250
 NucSpn=           0           0           0           0           0           1           1           1           1           1
 AtZEff=  -0.0000000  -0.0000000  -0.0000000  -0.0000000  -0.0000000  -0.0000000  -0.0000000  -0.0000000  -0.0000000  -0.0000000
 NQMom=    0.0000000   0.0000000   0.0000000   0.0000000   0.0000000   0.0000000   0.0000000   0.0000000   0.0000000   0.0000000
 NMagM=    0.0000000   0.0000000   0.0000000   0.0000000   0.0000000   2.7928460   2.7928460   2.7928460   2.7928460   2.7928460
 AtZNuc=   6.0000000   6.0000000   6.0000000   6.0000000   6.0000000   1.0000000   1.0000000   1.0000000   1.0000000   1.0000000

  Atom        11
 IAtWgt=           1
 AtmWgt=   1.0078250
 NucSpn=           1
 AtZEff=  -0.0000000
 NQMom=    0.0000000
 NMagM=    2.7928460
 AtZNuc=   1.0000000
 Leave Link  101 at Tue Feb 25 12:19:56 2020, MaxMem=  6710886400 cpu:               2.2 elap:               0.2
 (Enter /opt/ohpc/pub/libs/gaussian/g16-A.03/haswell/g16/l202.exe)
                          Input orientation:                          
 ---------------------------------------------------------------------
 Center     Atomic      Atomic             Coordinates (Angstroms)
 Number     Number       Type             X           Y           Z
 ---------------------------------------------------------------------
      1          6           0       -1.206512    0.696580    0.000000
      2          6           0       -1.206512   -0.696580    0.000000
      3          6           0        0.000000   -1.393160    0.000000
      4          6           0        1.206512   -0.696580    0.000000
      5          6           0        1.206512    0.696580    0.000000
      6          1           0        0.000000    2.482681    0.000000
      7          1           0       -2.150065    1.241340    0.000000
      8          1           0       -2.150065   -1.241340    0.000000
      9          1           0        0.000000   -2.482681    0.000000
     10          1           0        2.150065   -1.241340    0.000000
     11          1           0        2.150065    1.241340    0.000000
 ---------------------------------------------------------------------
                    Distance matrix (angstroms):
                    1          2          3          4          5
     1  C    0.000000
     2  C    1.393160   0.000000
     3  C    2.413024   1.393160   0.000000
     4  C    2.786320   2.413024   1.393160   0.000000
     5  C    2.413024   2.786320   2.413024   1.393160   0.000000
     6  H    2.155418   3.400496   3.875841   3.400496   2.155418
     7  H    1.089521   2.155418   3.400496   3.875841   3.400496
     8  H    2.155418   1.089521   2.155418   3.400496   3.875841
     9  H    3.400496   2.155418   1.089521   2.155418   3.400496
    10  H    3.875841   3.400496   2.155418   1.089521   2.155418
    11  H    3.400496   3.875841   3.400496   2.155418   1.089521
                    6          7          8          9         10
     6  H    0.000000
     7  H    2.482681   0.000000
     8  H    4.300129   2.482680   0.000000
     9  H    4.965362   4.300129   2.482681   0.000000
    10  H    4.300129   4.965362   4.300130   2.482681   0.000000
    11  H    2.482681   4.300130   4.965362   4.300129   2.482680
                   11
    11  H    0.000000
 Stoichiometry    C5H6(1+,2)
 Framework group  C2V[C2(HCH),SGV(C4H4)]
 Deg. of freedom    10
 Full point group                 C2V     NOp   4
 Largest Abelian subgroup         C2V     NOp   4
 Largest concise Abelian subgroup C2      NOp   2
                         Standard orientation:                         
 ---------------------------------------------------------------------
 Center     Atomic      Atomic             Coordinates (Angstroms)
 Number     Number       Type             X           Y           Z
 ---------------------------------------------------------------------
      1          6           0       -0.000000    1.206512   -0.928773
      2          6           0       -0.000000    1.206512    0.464387
      3          6           0        0.000000    0.000000    1.160967
      4          6           0       -0.000000   -1.206512    0.464387
      5          6           0       -0.000000   -1.206512   -0.928773
      6          1           0       -0.000000   -0.000000   -2.714874
      7          1           0       -0.000000    2.150065   -1.473533
      8          1           0       -0.000000    2.150065    1.009147
      9          1           0        0.000000    0.000000    2.250488
     10          1           0       -0.000000   -2.150065    1.009147
     11          1           0       -0.000000   -2.150065   -1.473533
 ---------------------------------------------------------------------
 Rotational constants (GHZ):           8.2868568           5.7099792           3.3806054
 Leave Link  202 at Tue Feb 25 12:19:56 2020, MaxMem=  6710886400 cpu:               0.2 elap:               0.0
 (Enter /opt/ohpc/pub/libs/gaussian/g16-A.03/haswell/g16/l301.exe)
 Standard basis: 6-31G (6D, 7F)
 Ernie: Thresh=  0.10000D-02 Tol=  0.10000D-05 Strict=F.
 There are    27 symmetry adapted cartesian basis functions of A1  symmetry.
 There are     4 symmetry adapted cartesian basis functions of A2  symmetry.
 There are     6 symmetry adapted cartesian basis functions of B1  symmetry.
 There are    20 symmetry adapted cartesian basis functions of B2  symmetry.
 There are    27 symmetry adapted basis functions of A1  symmetry.
 There are     4 symmetry adapted basis functions of A2  symmetry.
 There are     6 symmetry adapted basis functions of B1  symmetry.
 There are    20 symmetry adapted basis functions of B2  symmetry.
    57 basis functions,   134 primitive gaussians,    57 cartesian basis functions
    18 alpha electrons       17 beta electrons
       nuclear repulsion energy       145.0218997931 Hartrees.
 IExCor=33909 DFT=T Ex+Corr=LC-wHPBE ExCW=0 ScaHFX=  1.000000
 ScaDFX=  1.000000  1.000000  1.000000  1.000000 ScalE2=  1.000000  1.000000
 IRadAn=      5 IRanWt=     -1 IRanGd=            0 ICorTp=0 IEmpDi=  4
 HFx  wShort=  0.000000 wLong=  0.276700 cFull=  0.000000 cShort=  0.000000 cLong=  1.000000
 DFx  wShort=  0.000000 wLong=  0.276700 cFull=  0.000000 cShort=  1.000000 cLong=  0.000000
 NAtoms=   11 NActive=   11 NUniq=    7 SFac= 2.47D+00 NAtFMM=   60 NAOKFM=F Big=F
 Integral buffers will be    131072 words long.
 Raffenetti 2 integral format.
 Two-electron integral symmetry is turned on.
 Leave Link  301 at Tue Feb 25 12:19:57 2020, MaxMem=  6710886400 cpu:               1.1 elap:               0.1
 (Enter /opt/ohpc/pub/libs/gaussian/g16-A.03/haswell/g16/l302.exe)
 NPDir=0 NMtPBC=     1 NCelOv=     1 NCel=       1 NClECP=     1 NCelD=      1
         NCelK=      1 NCelE2=     1 NClLst=     1 CellRange=     0.0.
 One-electron integrals computed using PRISM.
 One-electron integral symmetry used in STVInt
 NBasis=    57 RedAO= T EigKep=  2.88D-03  NBF=    27     4     6    20
 NBsUse=    57 1.00D-06 EigRej= -1.00D+00 NBFU=    27     4     6    20
 Precomputing XC quadrature grid using
 IXCGrd= 4 IRadAn=           5 IRanWt=          -1 IRanGd=           0 AccXCQ= 0.00D+00.
 Generated NRdTot=       0 NPtTot=           0 NUsed=           0 NTot=          32
 NSgBfM=    57    57    57    57    57 MxSgAt=    11 MxSgA2=    11.
 Leave Link  302 at Tue Feb 25 12:19:57 2020, MaxMem=  6710886400 cpu:               2.7 elap:               0.2
 (Enter /opt/ohpc/pub/libs/gaussian/g16-A.03/haswell/g16/l303.exe)
 DipDrv:  MaxL=1.
 Leave Link  303 at Tue Feb 25 12:19:57 2020, MaxMem=  6710886400 cpu:               0.4 elap:               0.0
 (Enter /opt/ohpc/pub/libs/gaussian/g16-A.03/haswell/g16/l401.exe)
 ExpMin= 1.61D-01 ExpMax= 3.05D+03 ExpMxC= 4.57D+02 IAcc=3 IRadAn=         5 AccDes= 0.00D+00
 Harris functional with IExCor=33909 and IRadAn=       5 diagonalized for initial guess.
 HarFok:  IExCor=33909 AccDes= 0.00D+00 IRadAn=         5 IDoV= 1 UseB2=F ITyADJ=14
 ICtDFT=  3500011 ScaDFX=  1.000000  1.000000  1.000000  1.000000
 FoFCou: FMM=F IPFlag=           0 FMFlag=      100000 FMFlg1=           0
         NFxFlg=           0 DoJE=T BraDBF=F KetDBF=T FulRan=T
         wScrn=  0.000000 ICntrl=       500 IOpCl=  0 I1Cent=   200000004 NGrid=           0
         NMat0=    1 NMatS0=      1 NMatT0=    0 NMatD0=    1 NMtDS0=    0 NMtDT0=    0
 Petite list used in FoFCou.
 Harris En= -188.386528027249    
 JPrj=0 DoOrth=F DoCkMO=F.
 Initial guess orbital symmetries:
 Alpha Orbitals:
       Occupied  (A1) (B2) (A1) (B2) (A1) (A1) (B2) (A1) (B2) (A1)
                 (A1) (B2) (B2) (A1) (B1) (A1) (A2) (B1)
       Virtual   (B2) (A1) (A2) (B1) (A1) (B2) (A1) (B2) (A1) (A1)
                 (B2) (A1) (B2) (B1) (B2) (A1) (B1) (A1) (A2) (B2)
                 (A1) (A2) (B1) (B2) (A1) (A1) (B2) (A1) (B2) (A1)
                 (A1) (B2) (A1) (A1) (B2) (B2) (A1) (A1) (B2)
 Beta  Orbitals:
       Occupied  (A1) (B2) (A1) (B2) (A1) (A1) (B2) (A1) (B2) (A1)
                 (A1) (B2) (B2) (A1) (B1) (A1) (A2)
       Virtual   (B1) (B2) (A1) (A2) (B1) (A1) (B2) (A1) (B2) (A1)
                 (A1) (B2) (A1) (B2) (B1) (B2) (A1) (B1) (A1) (A2)
                 (B2) (A1) (A2) (B1) (B2) (A1) (A1) (B2) (A1) (B2)
                 (A1) (A1) (B2) (A1) (A1) (B2) (B2) (A1) (A1) (B2)
 The electronic state of the initial guess is 2-B1.
 Initial guess <Sx>= 0.0000 <Sy>= 0.0000 <Sz>= 0.5000 <S**2>= 0.7500 S= 0.5000
 Leave Link  401 at Tue Feb 25 12:19:57 2020, MaxMem=  6710886400 cpu:               4.5 elap:               0.3
 (Enter /opt/ohpc/pub/libs/gaussian/g16-A.03/haswell/g16/l502.exe)
 Keep R1 and R2 ints in memory in symmetry-blocked form, NReq=16815659.
 FoFCou: FMM=F IPFlag=           0 FMFlag=           0 FMFlg1=           0
         NFxFlg=           0 DoJE=F BraDBF=F KetDBF=F FulRan=T
         wScrn=  0.000000 ICntrl=       600 IOpCl=  0 I1Cent=           0 NGrid=           0
         NMat0=    1 NMatS0=   1653 NMatT0=    0 NMatD0=    1 NMtDS0=    0 NMtDT0=    0
 Petite list used in FoFCou.
 UHF open shell SCF:
 Using DIIS extrapolation, IDIIS=    10.
 NGot=  6710886400 LenX=  6710059583 LenY=  6710055893
 Requested convergence on RMS density matrix=1.00D-06 within  32 cycles.
 Requested convergence on MAX density matrix=1.00D-04.
 Requested convergence on             energy=1.00D-04.
 Virtual orbitals will be shifted by   0.500 hartree.
 No special actions if energy rises.
 Dynamic level shift is on during FON iterations.

 Cycle   1  Pass 1  IDiag  1:
 E= -193.191980853113    
 DIIS: error= 5.82D-02 at cycle   1 NSaved=   1.
 NSaved= 1 IEnMin= 1 EnMin= -193.191980853113     IErMin= 1 ErrMin= 5.82D-02
 ErrMax= 5.82D-02  0.00D+00 EMaxC= 1.00D+00 BMatC= 2.93D-01 BMatP= 2.93D-01
 IDIUse=1 WtCom= 1.00D+00 WtEn= 0.00D+00
 Coeff-Com:  0.100D+01
 Coeff:      0.100D+01
 Gap=     0.070 Goal=   None    Shift=    0.500
 T= 1894. Gap= 0.527 NK=0 IS=   19 IE=   57 IFin=   18
          NO(<0.9)=   0  NV(>0.1)=   0     18.00e < EF      0.00e >EF  Err=0.0D+00
 Gap=     0.094 Goal=   None    Shift=    0.500
 T= 1894. Gap= 0.601 NK=0 IS=   18 IE=   57 IFin=   17
          NO(<0.9)=   0  NV(>0.1)=   0     17.00e < EF      0.00e >EF  Err=0.0D+00
 GapD=    0.070 DampG=0.500 DampE=0.500 DampFc=0.2500 IDamp=-1.
 Damping current iteration by 2.50D-01
 RMSDP=7.74D-03 MaxDP=6.05D-02              OVMax= 1.24D-01

 Cycle   2  Pass 1  IDiag  1:
 E= -193.228614702156     Delta-E=       -0.036633849043 Rises=F Damp=T
 DIIS: error= 4.29D-02 at cycle   2 NSaved=   2.
 NSaved= 2 IEnMin= 2 EnMin= -193.228614702156     IErMin= 2 ErrMin= 4.29D-02
 ErrMax= 4.29D-02  0.00D+00 EMaxC= 1.00D+00 BMatC= 1.43D-01 BMatP= 2.93D-01
 IDIUse=1 WtCom= 1.00D+00 WtEn= 0.00D+00
 Coeff-Com: -0.203D+01 0.303D+01
 Coeff:     -0.203D+01 0.303D+01
 Gap=     0.169 Goal=   None    Shift=    0.500
 T= 1839. Gap= 0.649 NK=4 IS=   19 IE=   24 IFin=   18
          NO(<0.9)=   0  NV(>0.1)=   0     18.00e < EF      0.00e >EF  Err=0.0D+00
 Gap=     0.202 Goal=   None    Shift=    0.500
 T= 1839. Gap= 0.703 NK=4 IS=   18 IE=   21 IFin=   17
          NO(<0.9)=   0  NV(>0.1)=   0     17.00e < EF      0.00e >EF  Err=0.0D+00
 GapD=    0.169 DampG=1.000 DampE=0.500 DampFc=0.5000 IDamp=-1.
 Damping current iteration by 5.00D-01
 RMSDP=6.31D-03 MaxDP=5.19D-02 DE=-3.66D-02 OVMax= 5.12D-02

 Cycle   3  Pass 1  IDiag  1:
 E= -193.273195733179     Delta-E=       -0.044581031023 Rises=F Damp=T
 DIIS: error= 2.32D-02 at cycle   3 NSaved=   3.
 NSaved= 3 IEnMin= 3 EnMin= -193.273195733179     IErMin= 3 ErrMin= 2.32D-02
 ErrMax= 2.32D-02  0.00D+00 EMaxC= 1.00D+00 BMatC= 3.16D-02 BMatP= 1.43D-01
 IDIUse=1 WtCom= 1.00D+00 WtEn= 0.00D+00
 Coeff-Com:  0.102D+01-0.260D+01 0.258D+01
 Coeff:      0.102D+01-0.260D+01 0.258D+01
 Gap=     0.199 Goal=   None    Shift=    0.500
 T= 1690. Gap= 0.699 NK=4 IS=   19 IE=   24 IFin=   18
          NO(<0.9)=   0  NV(>0.1)=   0     18.00e < EF      0.00e >EF  Err=0.0D+00
 Gap=     0.254 Goal=   None    Shift=    0.500
 T= 1690. Gap= 0.754 NK=4 IS=   18 IE=   21 IFin=   17
          NO(<0.9)=   0  NV(>0.1)=   0     17.00e < EF      0.00e >EF  Err=0.0D+00
 GapD=    0.199 DampG=1.000 DampE=0.500 DampFc=0.5000 IDamp=-1.
 Damping current iteration by 5.00D-01
 RMSDP=3.18D-03 MaxDP=2.58D-02 DE=-4.46D-02 OVMax= 2.24D-02

 Cycle   4  Pass 1  IDiag  1:
 E= -193.291853627295     Delta-E=       -0.018657894116 Rises=F Damp=T
 DIIS: error= 1.36D-02 at cycle   4 NSaved=   4.
 NSaved= 4 IEnMin= 4 EnMin= -193.291853627295     IErMin= 4 ErrMin= 1.36D-02
 ErrMax= 1.36D-02  0.00D+00 EMaxC= 1.00D+00 BMatC= 8.70D-03 BMatP= 3.16D-02
 IDIUse=1 WtCom= 1.00D+00 WtEn= 0.00D+00
 Coeff-Com:  0.328D+00-0.107D+00-0.220D+01 0.298D+01
 Coeff:      0.328D+00-0.107D+00-0.220D+01 0.298D+01
 Gap=     0.213 Goal=   None    Shift=    0.500
 T= 1423. Gap= 0.713 NK=4 IS=   19 IE=   24 IFin=   18
          NO(<0.9)=   0  NV(>0.1)=   0     18.00e < EF      0.00e >EF  Err=0.0D+00
 Gap=     0.266 Goal=   None    Shift=    0.500
 T= 1423. Gap= 0.767 NK=4 IS=   18 IE=   21 IFin=   17
          NO(<0.9)=   0  NV(>0.1)=   0     17.00e < EF      0.00e >EF  Err=0.0D+00
 GapD=    0.213 DampG=1.000 DampE=0.500 DampFc=0.5000 IDamp=-1.
 Damping current iteration by 5.00D-01
 RMSDP=1.79D-03 MaxDP=1.87D-02 DE=-1.87D-02 OVMax= 1.54D-02

 Cycle   5  Pass 1  IDiag  1:
 E= -193.300929818711     Delta-E=       -0.009076191416 Rises=F Damp=T
 DIIS: error= 8.99D-03 at cycle   5 NSaved=   5.
 NSaved= 5 IEnMin= 5 EnMin= -193.300929818711     IErMin= 5 ErrMin= 8.99D-03
 ErrMax= 8.99D-03  0.00D+00 EMaxC= 1.00D+00 BMatC= 3.07D-03 BMatP= 8.70D-03
 IDIUse=1 WtCom= 1.00D+00 WtEn= 0.00D+00
 Coeff-Com: -0.350D+00 0.751D+00 0.194D+00-0.376D+01 0.416D+01
 Coeff:     -0.350D+00 0.751D+00 0.194D+00-0.376D+01 0.416D+01
 Gap=     0.219 Goal=   None    Shift=    0.500
 T= 1090. Gap= 0.719 NK=4 IS=   19 IE=   24 IFin=   18
          NO(<0.9)=   0  NV(>0.1)=   0     18.00e < EF      0.00e >EF  Err=0.0D+00
 Gap=     0.270 Goal=   None    Shift=    0.500
 T= 1090. Gap= 0.770 NK=4 IS=   18 IE=   21 IFin=   17
          NO(<0.9)=   0  NV(>0.1)=   0     17.00e < EF      0.00e >EF  Err=0.0D+00
 GapD=    0.219 DampG=1.000 DampE=1.000 DampFc=1.0000 IDamp=-1.
 RMSDP=1.27D-03 MaxDP=1.55D-02 DE=-9.08D-03 OVMax= 1.61D-02

 Cycle   6  Pass 1  IDiag  1:
 E= -193.310937433202     Delta-E=       -0.010007614490 Rises=F Damp=F
 DIIS: error= 3.49D-03 at cycle   6 NSaved=   6.
 NSaved= 6 IEnMin= 6 EnMin= -193.310937433202     IErMin= 6 ErrMin= 3.49D-03
 ErrMax= 3.49D-03  0.00D+00 EMaxC= 1.00D+00 BMatC= 3.38D-04 BMatP= 3.07D-03
 IDIUse=1 WtCom= 1.00D+00 WtEn= 0.00D+00
 Coeff-Com:  0.147D+00-0.410D+00 0.419D+00 0.167D+01-0.338D+01 0.256D+01
 Coeff:      0.147D+00-0.410D+00 0.419D+00 0.167D+01-0.338D+01 0.256D+01
 Gap=     0.221 Goal=   None    Shift=    0.500
 T=  752. Gap= 0.721 NK=4 IS=   19 IE=   24 IFin=   18
          NO(<0.9)=   0  NV(>0.1)=   0     18.00e < EF      0.00e >EF  Err=0.0D+00
 Gap=     0.270 Goal=   None    Shift=    0.500
 T=  752. Gap= 0.770 NK=4 IS=   18 IE=   21 IFin=   17
          NO(<0.9)=   0  NV(>0.1)=   0     17.00e < EF      0.00e >EF  Err=0.0D+00
 GapD=    0.221 DampG=1.000 DampE=1.000 DampFc=1.0000 IDamp=-1.
 RMSDP=3.72D-04 MaxDP=5.01D-03 DE=-1.00D-02 OVMax= 1.44D-02

 Cycle   7  Pass 1  IDiag  1:
 E= -193.311475208181     Delta-E=       -0.000537774979 Rises=F Damp=F
 DIIS: error= 2.61D-03 at cycle   7 NSaved=   7.
 NSaved= 7 IEnMin= 7 EnMin= -193.311475208181     IErMin= 7 ErrMin= 2.61D-03
 ErrMax= 2.61D-03  0.00D+00 EMaxC= 1.00D+00 BMatC= 1.65D-04 BMatP= 3.38D-04
 IDIUse=1 WtCom= 1.00D+00 WtEn= 0.00D+00
 Coeff-Com:  0.397D-01-0.349D-01-0.332D+00 0.636D+00-0.986D-01-0.217D+01
 Coeff-Com:  0.296D+01
 Coeff:      0.397D-01-0.349D-01-0.332D+00 0.636D+00-0.986D-01-0.217D+01
 Coeff:      0.296D+01
 Gap=     0.223 Goal=   None    Shift=    0.500
 T=  424. Gap= 0.723 NK=4 IS=   19 IE=   24 IFin=   18
          NO(<0.9)=   0  NV(>0.1)=   0     18.00e < EF      0.00e >EF  Err=0.0D+00
 Gap=     0.270 Goal=   None    Shift=    0.500
 T=  424. Gap= 0.770 NK=4 IS=   18 IE=   21 IFin=   17
          NO(<0.9)=   0  NV(>0.1)=   0     17.00e < EF      0.00e >EF  Err=0.0D+00
 GapD=    0.223 DampG=1.000 DampE=1.000 DampFc=1.0000 IDamp=-1.
 RMSDP=3.00D-04 MaxDP=4.41D-03 DE=-5.38D-04 OVMax= 1.26D-02

 Cycle   8  Pass 1  IDiag  1:
 E= -193.311792884987     Delta-E=       -0.000317676807 Rises=F Damp=F
 DIIS: error= 1.78D-03 at cycle   8 NSaved=   8.
 NSaved= 8 IEnMin= 8 EnMin= -193.311792884987     IErMin= 8 ErrMin= 1.78D-03
 ErrMax= 1.78D-03  0.00D+00 EMaxC= 1.00D+00 BMatC= 8.44D-05 BMatP= 1.65D-04
 IDIUse=1 WtCom= 1.00D+00 WtEn= 0.00D+00
 Coeff-Com: -0.282D-01 0.994D-01-0.187D+00-0.415D+00 0.107D+01-0.164D+01
 Coeff-Com:  0.612D+00 0.149D+01
 Coeff:     -0.282D-01 0.994D-01-0.187D+00-0.415D+00 0.107D+01-0.164D+01
 Coeff:      0.612D+00 0.149D+01
 Gap=     0.224 Goal=   None    Shift=    0.500
 T=   34. Gap= 0.724 NK=4 IS=   19 IE=   24 IFin=   18
          NO(<0.9)=   0  NV(>0.1)=   0     18.00e < EF      0.00e >EF  Err=0.0D+00
 Gap=     0.269 Goal=   None    Shift=    0.500
 T=   34. Gap= 0.769 NK=4 IS=   18 IE=   21 IFin=   17
          NO(<0.9)=   0  NV(>0.1)=   0     17.00e < EF      0.00e >EF  Err=0.0D+00
 GapD=    0.224 DampG=1.000 DampE=1.000 DampFc=1.0000 IDamp=-1.
 RMSDP=1.99D-04 MaxDP=2.54D-03 DE=-3.18D-04 OVMax= 8.43D-03

 Cycle   9  Pass 1  IDiag  1:
 E= -193.311949962634     Delta-E=       -0.000157077647 Rises=F Damp=F
 DIIS: error= 1.35D-03 at cycle   9 NSaved=   9.
 NSaved= 9 IEnMin= 9 EnMin= -193.311949962634     IErMin= 9 ErrMin= 1.35D-03
 ErrMax= 1.35D-03  0.00D+00 EMaxC= 1.00D+00 BMatC= 4.97D-05 BMatP= 8.44D-05
 IDIUse=1 WtCom= 1.00D+00 WtEn= 0.00D+00
 Coeff-Com:  0.766D-02-0.763D-01 0.425D+00-0.483D+00-0.197D+00 0.209D+01
 Coeff-Com: -0.254D+01-0.187D+01 0.366D+01
 Coeff:      0.766D-02-0.763D-01 0.425D+00-0.483D+00-0.197D+00 0.209D+01
 Coeff:     -0.254D+01-0.187D+01 0.366D+01
 Gap=     0.225 Goal=   None    Shift=    0.500
 Gap=     0.268 Goal=   None    Shift=    0.500
 GapD=    0.225 DampG=1.000 DampE=1.000 DampFc=1.0000 IDamp=-1.
 RMSDP=1.98D-04 MaxDP=3.03D-03 DE=-1.57D-04 OVMax= 8.50D-03

 Cycle  10  Pass 1  IDiag  1:
 E= -193.312079193863     Delta-E=       -0.000129231229 Rises=F Damp=F
 DIIS: error= 1.19D-03 at cycle  10 NSaved=  10.
 NSaved=10 IEnMin=10 EnMin= -193.312079193863     IErMin=10 ErrMin= 1.19D-03
 ErrMax= 1.19D-03  0.00D+00 EMaxC= 1.00D+00 BMatC= 3.18D-05 BMatP= 4.97D-05
 IDIUse=1 WtCom= 1.00D+00 WtEn= 0.00D+00
 Coeff-Com:  0.209D-02 0.239D-02-0.278D-01 0.126D+00-0.182D+00 0.140D+00
 Coeff-Com:  0.258D+00-0.374D+00-0.176D+01 0.281D+01
 Coeff:      0.209D-02 0.239D-02-0.278D-01 0.126D+00-0.182D+00 0.140D+00
 Coeff:      0.258D+00-0.374D+00-0.176D+01 0.281D+01
 Gap=     0.227 Goal=   None    Shift=    0.500
 Gap=     0.267 Goal=   None    Shift=    0.500
 GapD=    0.227 DampG=1.000 DampE=1.000 DampFc=1.0000 IDamp=-1.
 RMSDP=1.64D-04 MaxDP=2.97D-03 DE=-1.29D-04 OVMax= 8.15D-03

 Cycle  11  Pass 1  IDiag  1:
 E= -193.312173076607     Delta-E=       -0.000093882744 Rises=F Damp=F
 DIIS: error= 1.08D-03 at cycle  11 NSaved=  11.
 NSaved=11 IEnMin=11 EnMin= -193.312173076607     IErMin=11 ErrMin= 1.08D-03
 ErrMax= 1.08D-03  0.00D+00 EMaxC= 1.00D+00 BMatC= 2.43D-05 BMatP= 3.18D-05
 IDIUse=1 WtCom= 1.00D+00 WtEn= 0.00D+00
 Large coefficients: NSaved= 11 BigCof=   12.14 CofMax=   10.00 Det=-1.60D-08
 Inversion failed.  Reducing to 10 matrices.
 Large coefficients: NSaved= 10 BigCof=   12.14 CofMax=   10.00 Det=-1.60D-08
 Inversion failed.  Reducing to  9 matrices.
 Coeff-Com:  0.115D-01-0.234D+00 0.413D+00-0.305D+00-0.345D+00 0.436D+00
 Coeff-Com:  0.363D+01-0.955D+01 0.695D+01
 Coeff:      0.115D-01-0.234D+00 0.413D+00-0.305D+00-0.345D+00 0.436D+00
 Coeff:      0.363D+01-0.955D+01 0.695D+01
 Gap=     0.230 Goal=   None    Shift=    0.500
 Gap=     0.266 Goal=   None    Shift=    0.500
 GapD=    0.230 DampG=1.000 DampE=1.000 DampFc=1.0000 IDamp=-1.
 RMSDP=2.07D-04 MaxDP=3.95D-03 DE=-9.39D-05 OVMax= 1.12D-02

 Cycle  12  Pass 1  IDiag  1:
 E= -193.312281631778     Delta-E=       -0.000108555171 Rises=F Damp=F
 DIIS: error= 9.96D-04 at cycle  12 NSaved=  10.
 NSaved=10 IEnMin=10 EnMin= -193.312281631778     IErMin=10 ErrMin= 9.96D-04
 ErrMax= 9.96D-04  0.00D+00 EMaxC= 1.00D+00 BMatC= 2.10D-05 BMatP= 2.43D-05
 IDIUse=1 WtCom= 1.00D+00 WtEn= 0.00D+00
 Coeff-Com:  0.185D-01-0.237D+00 0.392D+00-0.240D+00-0.361D+00 0.337D+00
 Coeff-Com:  0.331D+01-0.832D+01 0.563D+01 0.463D+00
 Coeff:      0.185D-01-0.237D+00 0.392D+00-0.240D+00-0.361D+00 0.337D+00
 Coeff:      0.331D+01-0.832D+01 0.563D+01 0.463D+00
 Gap=     0.230 Goal=   None    Shift=    0.500
 Gap=     0.266 Goal=   None    Shift=    0.500
 RMSDP=1.28D-04 MaxDP=2.77D-03 DE=-1.09D-04 OVMax= 7.17D-03

 Cycle  13  Pass 1  IDiag  1:
 E= -193.312345023732     Delta-E=       -0.000063391954 Rises=F Damp=F
 DIIS: error= 9.21D-04 at cycle  13 NSaved=  11.
 NSaved=11 IEnMin=11 EnMin= -193.312345023732     IErMin=11 ErrMin= 9.21D-04
 ErrMax= 9.21D-04  0.00D+00 EMaxC= 1.00D+00 BMatC= 1.81D-05 BMatP= 2.10D-05
 IDIUse=1 WtCom= 1.00D+00 WtEn= 0.00D+00
 Large coefficients: NSaved= 11 BigCof=   13.74 CofMax=   10.00 Det=-7.07D-09
 Inversion failed.  Reducing to 10 matrices.
 Large coefficients: NSaved= 10 BigCof=   13.76 CofMax=   10.00 Det=-7.10D-09
 Inversion failed.  Reducing to  9 matrices.
 Coeff-Com:  0.170D-01-0.150D+00 0.236D+00-0.556D-01-0.137D+01 0.610D+01
 Coeff-Com: -0.723D+01-0.386D+01 0.731D+01
 Coeff:      0.170D-01-0.150D+00 0.236D+00-0.556D-01-0.137D+01 0.610D+01
 Coeff:     -0.723D+01-0.386D+01 0.731D+01
 Gap=     0.235 Goal=   None    Shift=    0.500
 Gap=     0.262 Goal=   None    Shift=    0.500
 RMSDP=3.67D-04 MaxDP=7.00D-03 DE=-6.34D-05 OVMax= 2.05D-02

 Cycle  14  Pass 1  IDiag  1:
 E= -193.312502408935     Delta-E=       -0.000157385203 Rises=F Damp=F
 DIIS: error= 8.11D-04 at cycle  14 NSaved=  10.
 NSaved=10 IEnMin=10 EnMin= -193.312502408935     IErMin=10 ErrMin= 8.11D-04
 ErrMax= 8.11D-04  0.00D+00 EMaxC= 1.00D+00 BMatC= 1.83D-05 BMatP= 1.81D-05
 IDIUse=1 WtCom= 1.00D+00 WtEn= 0.00D+00
 Large coefficients: NSaved= 10 BigCof=   15.88 CofMax=   10.00 Det=-1.60D-08
 Inversion failed.  Reducing to  9 matrices.
 Large coefficients: NSaved=  9 BigCof=   15.98 CofMax=   10.00 Det=-1.82D-08
 Inversion failed.  Reducing to  8 matrices.
 Large coefficients: NSaved=  8 BigCof=   15.98 CofMax=   10.00 Det=-2.50D-08
 Inversion failed.  Reducing to  7 matrices.
 Large coefficients: NSaved=  7 BigCof=   15.86 CofMax=   10.00 Det=-1.64D-08
 Inversion failed.  Reducing to  6 matrices.
 Large coefficients: NSaved=  6 BigCof=   15.23 CofMax=   10.00 Det=-1.69D-08
 Inversion failed.  Reducing to  5 matrices.
 Large coefficients: NSaved=  5 BigCof=   14.64 CofMax=   10.00 Det=-3.39D-08
 Inversion failed.  Reducing to  4 matrices.
 Large coefficients: NSaved=  4 BigCof=   14.09 CofMax=   10.00 Det=-4.64D-08
 Inversion failed.  Reducing to  3 matrices.
 Coeff-Com: -0.366D+01 0.401D+01 0.647D+00
 Coeff:     -0.366D+01 0.401D+01 0.647D+00
 Gap=     0.236 Goal=   None    Shift=    0.500
 Gap=     0.263 Goal=   None    Shift=    0.500
 RMSDP=1.70D-04 MaxDP=3.92D-03 DE=-1.57D-04 OVMax= 9.52D-03

 Cycle  15  Pass 1  IDiag  1:
 E= -193.312567585284     Delta-E=       -0.000065176349 Rises=F Damp=F
 DIIS: error= 7.27D-04 at cycle  15 NSaved=   4.
 NSaved= 4 IEnMin= 4 EnMin= -193.312567585284     IErMin= 4 ErrMin= 7.27D-04
 ErrMax= 7.27D-04  0.00D+00 EMaxC= 1.00D+00 BMatC= 1.31D-05 BMatP= 1.81D-05
 IDIUse=1 WtCom= 1.00D+00 WtEn= 0.00D+00
 Coeff-Com:  0.271D+01-0.346D+01-0.344D+01 0.519D+01
 Coeff:      0.271D+01-0.346D+01-0.344D+01 0.519D+01
 Gap=     0.234 Goal=   None    Shift=    0.500
 Gap=     0.261 Goal=   None    Shift=    0.500
 RMSDP=2.92D-04 MaxDP=5.81D-03 DE=-6.52D-05 OVMax= 1.67D-02

 Cycle  16  Pass 1  IDiag  1:
 E= -193.312657004889     Delta-E=       -0.000089419605 Rises=F Damp=F
 DIIS: error= 6.12D-04 at cycle  16 NSaved=   5.
 NSaved= 5 IEnMin= 5 EnMin= -193.312657004889     IErMin= 5 ErrMin= 6.12D-04
 ErrMax= 6.12D-04  0.00D+00 EMaxC= 1.00D+00 BMatC= 1.34D-05 BMatP= 1.31D-05
 IDIUse=1 WtCom= 1.00D+00 WtEn= 0.00D+00
 Coeff-Com:  0.224D+01-0.218D+01-0.391D+01 0.362D+01 0.124D+01
 Coeff:      0.224D+01-0.218D+01-0.391D+01 0.362D+01 0.124D+01
 Gap=     0.234 Goal=   None    Shift=    0.500
 Gap=     0.261 Goal=   None    Shift=    0.500
 RMSDP=1.91D-04 MaxDP=4.24D-03 DE=-8.94D-05 OVMax= 1.11D-02

 Cycle  17  Pass 1  IDiag  1:
 E= -193.312704633632     Delta-E=       -0.000047628742 Rises=F Damp=F
 DIIS: error= 5.10D-04 at cycle  17 NSaved=   6.
 NSaved= 6 IEnMin= 6 EnMin= -193.312704633632     IErMin= 6 ErrMin= 5.10D-04
 ErrMax= 5.10D-04  0.00D+00 EMaxC= 1.00D+00 BMatC= 8.97D-06 BMatP= 1.31D-05
 IDIUse=1 WtCom= 1.00D+00 WtEn= 0.00D+00
 Coeff-Com: -0.412D+01 0.539D+01 0.327D+01-0.483D+01-0.445D+01 0.574D+01
 Coeff:     -0.412D+01 0.539D+01 0.327D+01-0.483D+01-0.445D+01 0.574D+01
 Gap=     0.234 Goal=   None    Shift=    0.500
 Gap=     0.261 Goal=   None    Shift=    0.500
 RMSDP=1.31D-04 MaxDP=2.86D-03 DE=-4.76D-05 OVMax= 7.81D-03

 Cycle  18  Pass 1  IDiag  1:
 E= -193.312731720415     Delta-E=       -0.000027086783 Rises=F Damp=F
 DIIS: error= 4.46D-04 at cycle  18 NSaved=   7.
 NSaved= 7 IEnMin= 7 EnMin= -193.312731720415     IErMin= 7 ErrMin= 4.46D-04
 ErrMax= 4.46D-04  0.00D+00 EMaxC= 1.00D+00 BMatC= 5.56D-06 BMatP= 8.97D-06
 IDIUse=1 WtCom= 1.00D+00 WtEn= 0.00D+00
 Coeff-Com: -0.708D+00 0.748D+00 0.316D+00-0.315D+00-0.216D+00-0.196D+01
 Coeff-Com:  0.313D+01
 Coeff:     -0.708D+00 0.748D+00 0.316D+00-0.315D+00-0.216D+00-0.196D+01
 Coeff:      0.313D+01
 Gap=     0.233 Goal=   None    Shift=    0.500
 Gap=     0.261 Goal=   None    Shift=    0.500
 RMSDP=1.38D-04 MaxDP=2.94D-03 DE=-2.71D-05 OVMax= 7.93D-03

 Cycle  19  Pass 1  IDiag  1:
 E= -193.312752952188     Delta-E=       -0.000021231774 Rises=F Damp=F
 DIIS: error= 2.98D-04 at cycle  19 NSaved=   8.
 NSaved= 8 IEnMin= 8 EnMin= -193.312752952188     IErMin= 8 ErrMin= 2.98D-04
 ErrMax= 2.98D-04  0.00D+00 EMaxC= 1.00D+00 BMatC= 3.74D-06 BMatP= 5.56D-06
 IDIUse=1 WtCom= 1.00D+00 WtEn= 0.00D+00
 Coeff-Com:  0.289D+01-0.327D+01-0.309D+01 0.356D+01 0.296D+01-0.541D+01
 Coeff-Com:  0.110D+01 0.226D+01
 Coeff:      0.289D+01-0.327D+01-0.309D+01 0.356D+01 0.296D+01-0.541D+01
 Coeff:      0.110D+01 0.226D+01
 Gap=     0.233 Goal=   None    Shift=    0.500
 Gap=     0.261 Goal=   None    Shift=    0.500
 RMSDP=1.04D-04 MaxDP=2.25D-03 DE=-2.12D-05 OVMax= 6.06D-03

 Cycle  20  Pass 1  IDiag  1:
 E= -193.312764621754     Delta-E=       -0.000011669566 Rises=F Damp=F
 DIIS: error= 2.20D-04 at cycle  20 NSaved=   9.
 NSaved= 9 IEnMin= 9 EnMin= -193.312764621754     IErMin= 9 ErrMin= 2.20D-04
 ErrMax= 2.20D-04  0.00D+00 EMaxC= 1.00D+00 BMatC= 2.19D-06 BMatP= 3.74D-06
 IDIUse=1 WtCom= 1.00D+00 WtEn= 0.00D+00
 Coeff-Com:  0.125D+00 0.312D+00-0.634D+00 0.265D+00-0.554D+00 0.121D+01
 Coeff-Com: -0.150D+01-0.690D+00 0.246D+01
 Coeff:      0.125D+00 0.312D+00-0.634D+00 0.265D+00-0.554D+00 0.121D+01
 Coeff:     -0.150D+01-0.690D+00 0.246D+01
 Gap=     0.233 Goal=   None    Shift=    0.500
 Gap=     0.261 Goal=   None    Shift=    0.500
 RMSDP=4.79D-05 MaxDP=1.12D-03 DE=-1.17D-05 OVMax= 2.71D-03

 Cycle  21  Pass 1  IDiag  1:
 E= -193.312768856674     Delta-E=       -0.000004234919 Rises=F Damp=F
 DIIS: error= 2.03D-04 at cycle  21 NSaved=  10.
 NSaved=10 IEnMin=10 EnMin= -193.312768856674     IErMin=10 ErrMin= 2.03D-04
 ErrMax= 2.03D-04  0.00D+00 EMaxC= 1.00D+00 BMatC= 9.74D-07 BMatP= 2.19D-06
 IDIUse=1 WtCom= 1.00D+00 WtEn= 0.00D+00
 Coeff-Com: -0.324D+00 0.604D+00 0.465D-01-0.362D+00-0.758D+00 0.199D+01
 Coeff-Com: -0.199D+01 0.356D-01 0.142D+00 0.161D+01
 Coeff:     -0.324D+00 0.604D+00 0.465D-01-0.362D+00-0.758D+00 0.199D+01
 Coeff:     -0.199D+01 0.356D-01 0.142D+00 0.161D+01
 Gap=     0.233 Goal=   None    Shift=    0.500
 Gap=     0.261 Goal=   None    Shift=    0.500
 RMSDP=4.56D-05 MaxDP=1.00D-03 DE=-4.23D-06 OVMax= 2.59D-03

 Cycle  22  Pass 1  IDiag  1:
 E= -193.312771501180     Delta-E=       -0.000002644507 Rises=F Damp=F
 DIIS: error= 1.54D-04 at cycle  22 NSaved=  11.
 NSaved=11 IEnMin=11 EnMin= -193.312771501180     IErMin=11 ErrMin= 1.54D-04
 ErrMax= 1.54D-04  0.00D+00 EMaxC= 1.00D+00 BMatC= 5.55D-07 BMatP= 9.74D-07
 IDIUse=1 WtCom= 1.00D+00 WtEn= 0.00D+00
 Coeff-Com: -0.309D-01 0.279D+00-0.424D+00 0.118D+00-0.565D-02-0.224D+00
 Coeff-Com:  0.389D+00 0.183D+00 0.711D+00-0.433D+01 0.434D+01
 Coeff:     -0.309D-01 0.279D+00-0.424D+00 0.118D+00-0.565D-02-0.224D+00
 Coeff:      0.389D+00 0.183D+00 0.711D+00-0.433D+01 0.434D+01
 Gap=     0.233 Goal=   None    Shift=    0.500
 Gap=     0.261 Goal=   None    Shift=    0.500
 RMSDP=3.21D-05 MaxDP=7.22D-04 DE=-2.64D-06 OVMax= 1.82D-03

 Cycle  23  Pass 1  IDiag  1:
 E= -193.312772762218     Delta-E=       -0.000001261038 Rises=F Damp=F
 DIIS: error= 1.15D-04 at cycle  23 NSaved=  12.
 NSaved=12 IEnMin=12 EnMin= -193.312772762218     IErMin=12 ErrMin= 1.15D-04
 ErrMax= 1.15D-04  0.00D+00 EMaxC= 1.00D+00 BMatC= 2.90D-07 BMatP= 5.55D-07
 IDIUse=1 WtCom= 1.00D+00 WtEn= 0.00D+00
 Coeff-Com:  0.326D+00-0.290D+00-0.556D+00 0.571D+00 0.285D+00-0.264D+00
 Coeff-Com: -0.490D+00 0.392D-01 0.645D+00 0.997D+00-0.377D+01 0.351D+01
 Coeff:      0.326D+00-0.290D+00-0.556D+00 0.571D+00 0.285D+00-0.264D+00
 Coeff:     -0.490D+00 0.392D-01 0.645D+00 0.997D+00-0.377D+01 0.351D+01
 Gap=     0.233 Goal=   None    Shift=    0.500
 Gap=     0.261 Goal=   None    Shift=    0.500
 RMSDP=2.33D-05 MaxDP=5.42D-04 DE=-1.26D-06 OVMax= 1.34D-03

 Cycle  24  Pass 1  IDiag  1:
 E= -193.312773358784     Delta-E=       -0.000000596566 Rises=F Damp=F
 DIIS: error= 7.90D-05 at cycle  24 NSaved=  13.
 NSaved=13 IEnMin=13 EnMin= -193.312773358784     IErMin=13 ErrMin= 7.90D-05
 ErrMax= 7.90D-05  0.00D+00 EMaxC= 1.00D+00 BMatC= 1.44D-07 BMatP= 2.90D-07
 IDIUse=1 WtCom= 1.00D+00 WtEn= 0.00D+00
 Coeff-Com: -0.131D+00 0.236D+00-0.365D-01-0.784D-01-0.122D+00 0.225D+00
 Coeff-Com: -0.719D-01-0.586D-01 0.115D+00-0.469D+00 0.143D+01-0.358D+01
 Coeff-Com:  0.355D+01
 Coeff:     -0.131D+00 0.236D+00-0.365D-01-0.784D-01-0.122D+00 0.225D+00
 Coeff:     -0.719D-01-0.586D-01 0.115D+00-0.469D+00 0.143D+01-0.358D+01
 Coeff:      0.355D+01
 Gap=     0.233 Goal=   None    Shift=    0.500
 Gap=     0.261 Goal=   None    Shift=    0.500
 RMSDP=1.17D-05 MaxDP=3.06D-04 DE=-5.97D-07 OVMax= 6.76D-04

 Cycle  25  Pass 1  IDiag  1:
 E= -193.312773571510     Delta-E=       -0.000000212725 Rises=F Damp=F
 DIIS: error= 5.79D-05 at cycle  25 NSaved=  14.
 NSaved=14 IEnMin=14 EnMin= -193.312773571510     IErMin=14 ErrMin= 5.79D-05
 ErrMax= 5.79D-05  0.00D+00 EMaxC= 1.00D+00 BMatC= 6.55D-08 BMatP= 1.44D-07
 IDIUse=1 WtCom= 1.00D+00 WtEn= 0.00D+00
 Coeff-Com: -0.198D+00 0.279D+00 0.930D-01-0.201D+00-0.162D+00 0.205D+00
 Coeff-Com:  0.952D-01 0.415D-01-0.557D-01-0.119D+01 0.289D+01-0.394D+01
 Coeff-Com:  0.170D+01 0.145D+01
 Coeff:     -0.198D+00 0.279D+00 0.930D-01-0.201D+00-0.162D+00 0.205D+00
 Coeff:      0.952D-01 0.415D-01-0.557D-01-0.119D+01 0.289D+01-0.394D+01
 Coeff:      0.170D+01 0.145D+01
 Gap=     0.233 Goal=   None    Shift=    0.500
 Gap=     0.261 Goal=   None    Shift=    0.500
 RMSDP=8.58D-06 MaxDP=2.18D-04 DE=-2.13D-07 OVMax= 5.13D-04

 Cycle  26  Pass 1  IDiag  1:
 E= -193.312773673579     Delta-E=       -0.000000102070 Rises=F Damp=F
 DIIS: error= 3.99D-05 at cycle  26 NSaved=  15.
 NSaved=15 IEnMin=15 EnMin= -193.312773673579     IErMin=15 ErrMin= 3.99D-05
 ErrMax= 3.99D-05  0.00D+00 EMaxC= 1.00D+00 BMatC= 3.01D-08 BMatP= 6.55D-08
 IDIUse=1 WtCom= 1.00D+00 WtEn= 0.00D+00
 Coeff-Com:  0.373D-01-0.185D-01-0.945D-01 0.747D-01 0.473D-01-0.360D-01
 Coeff-Com: -0.115D+00 0.716D-01 0.165D+00-0.560D-01-0.675D+00 0.177D+01
 Coeff-Com: -0.150D+01-0.188D+01 0.321D+01
 Coeff:      0.373D-01-0.185D-01-0.945D-01 0.747D-01 0.473D-01-0.360D-01
 Coeff:     -0.115D+00 0.716D-01 0.165D+00-0.560D-01-0.675D+00 0.177D+01
 Coeff:     -0.150D+01-0.188D+01 0.321D+01
 Gap=     0.233 Goal=   None    Shift=    0.500
 Gap=     0.261 Goal=   None    Shift=    0.500
 RMSDP=6.17D-06 MaxDP=1.55D-04 DE=-1.02D-07 OVMax= 3.72D-04

 Cycle  27  Pass 1  IDiag  1:
 E= -193.312773720288     Delta-E=       -0.000000046709 Rises=F Damp=F
 DIIS: error= 2.64D-05 at cycle  27 NSaved=  16.
 NSaved=16 IEnMin=16 EnMin= -193.312773720288     IErMin=16 ErrMin= 2.64D-05
 ErrMax= 2.64D-05  0.00D+00 EMaxC= 1.00D+00 BMatC= 1.37D-08 BMatP= 3.01D-08
 IDIUse=1 WtCom= 1.00D+00 WtEn= 0.00D+00
 Coeff-Com: -0.364D-01 0.586D-01-0.840D-02-0.125D-01-0.105D-01 0.259D-01
 Coeff-Com: -0.384D-01 0.374D-02 0.322D-01 0.616D-01-0.187D+00 0.128D+00
 Coeff-Com:  0.102D+00-0.640D-01-0.191D+01 0.285D+01
 Coeff:     -0.364D-01 0.586D-01-0.840D-02-0.125D-01-0.105D-01 0.259D-01
 Coeff:     -0.384D-01 0.374D-02 0.322D-01 0.616D-01-0.187D+00 0.128D+00
 Coeff:      0.102D+00-0.640D-01-0.191D+01 0.285D+01
 Gap=     0.233 Goal=   None    Shift=    0.500
 Gap=     0.261 Goal=   None    Shift=    0.500
 RMSDP=3.13D-06 MaxDP=8.49D-05 DE=-4.67D-08 OVMax= 1.91D-04

 Cycle  28  Pass 1  IDiag  1:
 E= -193.312773737079     Delta-E=       -0.000000016791 Rises=F Damp=F
 DIIS: error= 1.81D-05 at cycle  28 NSaved=  17.
 NSaved=17 IEnMin=17 EnMin= -193.312773737079     IErMin=17 ErrMin= 1.81D-05
 ErrMax= 1.81D-05  0.00D+00 EMaxC= 1.00D+00 BMatC= 5.85D-09 BMatP= 1.37D-08
 IDIUse=1 WtCom= 1.00D+00 WtEn= 0.00D+00
 Coeff-Com: -0.111D-01 0.149D-01 0.960D-02-0.103D-01-0.259D-01 0.315D-01
 Coeff-Com: -0.163D-01 0.195D-01 0.226D-01-0.165D+00 0.317D+00-0.435D+00
 Coeff-Com:  0.333D+00-0.576D-01 0.613D+00-0.300D+01 0.336D+01
 Coeff:     -0.111D-01 0.149D-01 0.960D-02-0.103D-01-0.259D-01 0.315D-01
 Coeff:     -0.163D-01 0.195D-01 0.226D-01-0.165D+00 0.317D+00-0.435D+00
 Coeff:      0.333D+00-0.576D-01 0.613D+00-0.300D+01 0.336D+01
 Gap=     0.233 Goal=   None    Shift=    0.500
 Gap=     0.261 Goal=   None    Shift=    0.500
 RMSDP=2.57D-06 MaxDP=6.50D-05 DE=-1.68D-08 OVMax= 1.60D-04

 Cycle  29  Pass 1  IDiag  1:
 E= -193.312773745329     Delta-E=       -0.000000008251 Rises=F Damp=F
 DIIS: error= 1.13D-05 at cycle  29 NSaved=  18.
 NSaved=18 IEnMin=18 EnMin= -193.312773745329     IErMin=18 ErrMin= 1.13D-05
 ErrMax= 1.13D-05  0.00D+00 EMaxC= 1.00D+00 BMatC= 2.49D-09 BMatP= 5.85D-09
 IDIUse=1 WtCom= 1.00D+00 WtEn= 0.00D+00
 Coeff-Com: -0.290D-01 0.427D-01 0.371D-02-0.223D-01-0.704D-03 0.851D-02
 Coeff-Com:  0.490D-02-0.173D-01-0.152D-01 0.110D+00-0.184D+00 0.223D+00
 Coeff-Com: -0.182D+00-0.104D+00-0.181D+00 0.199D+01-0.477D+01 0.412D+01
 Coeff:     -0.290D-01 0.427D-01 0.371D-02-0.223D-01-0.704D-03 0.851D-02
 Coeff:      0.490D-02-0.173D-01-0.152D-01 0.110D+00-0.184D+00 0.223D+00
 Coeff:     -0.182D+00-0.104D+00-0.181D+00 0.199D+01-0.477D+01 0.412D+01
 Gap=     0.233 Goal=   None    Shift=    0.500
 Gap=     0.261 Goal=   None    Shift=    0.500
 RMSDP=1.10D-06 MaxDP=3.21D-05 DE=-8.25D-09 OVMax= 6.86D-05

 Cycle  30  Pass 1  IDiag  1:
 E= -193.312773747937     Delta-E=       -0.000000002607 Rises=F Damp=F
 DIIS: error= 7.88D-06 at cycle  30 NSaved=  19.
 NSaved=19 IEnMin=19 EnMin= -193.312773747937     IErMin=19 ErrMin= 7.88D-06
 ErrMax= 7.88D-06  0.00D+00 EMaxC= 1.00D+00 BMatC= 1.06D-09 BMatP= 2.49D-09
 IDIUse=1 WtCom= 1.00D+00 WtEn= 0.00D+00
 Coeff-Com:  0.249D-02-0.198D-02-0.366D-02 0.513D-02-0.203D-02 0.204D-02
 Coeff-Com: -0.149D-01 0.132D-01 0.210D-01-0.424D-01 0.143D-01 0.217D-01
 Coeff-Com:  0.249D-01-0.992D-01-0.822D-01 0.376D+00-0.612D-01-0.207D+01
 Coeff-Com:  0.289D+01
 Coeff:      0.249D-02-0.198D-02-0.366D-02 0.513D-02-0.203D-02 0.204D-02
 Coeff:     -0.149D-01 0.132D-01 0.210D-01-0.424D-01 0.143D-01 0.217D-01
 Coeff:      0.249D-01-0.992D-01-0.822D-01 0.376D+00-0.612D-01-0.207D+01
 Coeff:      0.289D+01
 Gap=     0.233 Goal=   None    Shift=    0.500
 Gap=     0.261 Goal=   None    Shift=    0.500
 RMSDP=1.08D-06 MaxDP=2.72D-05 DE=-2.61D-09 OVMax= 6.81D-05

 Cycle  31  Pass 1  IDiag  1:
 E= -193.312773749384     Delta-E=       -0.000000001447 Rises=F Damp=F
 DIIS: error= 4.91D-06 at cycle  31 NSaved=  20.
 NSaved=20 IEnMin=20 EnMin= -193.312773749384     IErMin=20 ErrMin= 4.91D-06
 ErrMax= 4.91D-06  0.00D+00 EMaxC= 1.00D+00 BMatC= 4.60D-10 BMatP= 1.06D-09
 IDIUse=1 WtCom= 1.00D+00 WtEn= 0.00D+00
 Coeff-Com: -0.799D-02 0.112D-01 0.320D-02-0.617D-02-0.670D-02 0.872D-02
 Coeff-Com: -0.292D-03-0.915D-03-0.122D-02-0.130D-01 0.460D-01-0.807D-01
 Coeff-Com:  0.573D-01 0.129D-01 0.282D-01-0.431D+00 0.879D+00-0.292D+00
 Coeff-Com: -0.228D+01 0.307D+01
 Coeff:     -0.799D-02 0.112D-01 0.320D-02-0.617D-02-0.670D-02 0.872D-02
 Coeff:     -0.292D-03-0.915D-03-0.122D-02-0.130D-01 0.460D-01-0.807D-01
 Coeff:      0.573D-01 0.129D-01 0.282D-01-0.431D+00 0.879D+00-0.292D+00
 Coeff:     -0.228D+01 0.307D+01
 Gap=     0.233 Goal=   None    Shift=    0.500
 Gap=     0.261 Goal=   None    Shift=    0.500
 RMSDP=5.26D-07 MaxDP=1.49D-05 DE=-1.45D-09 OVMax= 3.39D-05

 SCF Done:  E(ULC-wHPBE) =  -193.312773749     A.U. after   31 cycles
            NFock= 31  Conv=0.53D-06     -V/T= 2.0082
 <Sx>= 0.0000 <Sy>= 0.0000 <Sz>= 0.5000 <S**2>= 0.9296 S= 0.5861
 <L.S>= 0.000000000000E+00
 KE= 1.917368673248D+02 PE=-7.299822932288D+02 EE= 1.999107523615D+02
 Annihilation of the first spin contaminant:
 S**2 before annihilation     0.9296,   after     0.7731
 Leave Link  502 at Tue Feb 25 12:20:00 2020, MaxMem=  6710886400 cpu:              39.1 elap:               2.5
 (Enter /opt/ohpc/pub/libs/gaussian/g16-A.03/haswell/g16/l508.exe)
 QCSCF skips out because SCF is already converged.
 Leave Link  508 at Tue Feb 25 12:20:00 2020, MaxMem=  6710886400 cpu:               0.1 elap:               0.1
 (Enter /opt/ohpc/pub/libs/gaussian/g16-A.03/haswell/g16/l601.exe)
 Copying SCF densities to generalized density rwf, IOpCl= 1 IROHF=0.

 **********************************************************************

            Population analysis using the SCF density.

 **********************************************************************

 Orbital symmetries:
 Alpha Orbitals:
       Occupied  (B2) (A1) (B2) (A1) (A1) (A1) (B2) (A1) (B2) (A1)
                 (A1) (B2) (B2) (A1) (B1) (A1) (A2) (B1)
       Virtual   (B2) (A1) (A2) (B1) (A1) (B2) (A1) (B2) (A1) (A1)
                 (B2) (A1) (B2) (B1) (B2) (B1) (A1) (A2) (A1) (B2)
                 (A1) (A2) (A1) (B1) (B2) (A1) (B2) (A1) (B2) (A1)
                 (A1) (A1) (B2) (A1) (B2) (B2) (A1) (A1) (B2)
 Beta  Orbitals:
       Occupied  (B2) (A1) (B2) (A1) (A1) (A1) (B2) (A1) (B2) (A1)
                 (A1) (B2) (B2) (A1) (A1) (B1) (A2)
       Virtual   (A1) (B2) (B1) (A2) (B1) (A1) (B2) (A1) (B2) (A1)
                 (A1) (B2) (A1) (B2) (B1) (B2) (A1) (A2) (B1) (A1)
                 (B2) (A1) (A2) (A1) (B2) (B1) (A1) (B2) (A1) (B2)
                 (A1) (A1) (A1) (B2) (A1) (B2) (B2) (A1) (A1) (B2)
 The electronic state is 2-B1.
 Alpha  occ. eigenvalues --  -10.35784 -10.35783 -10.28164 -10.28164 -10.27400
 Alpha  occ. eigenvalues --   -1.14400  -1.05664  -0.99232  -0.88733  -0.81922
 Alpha  occ. eigenvalues --   -0.81265  -0.74207  -0.69642  -0.67395  -0.66974
 Alpha  occ. eigenvalues --   -0.63795  -0.57715  -0.50692
 Alpha virt. eigenvalues --   -0.27422  -0.25831  -0.14426  -0.03762  -0.00055
 Alpha virt. eigenvalues --    0.03891   0.07305   0.08732   0.10094   0.18146
 Alpha virt. eigenvalues --    0.19456   0.27431   0.28953   0.37548   0.40028
 Alpha virt. eigenvalues --    0.47408   0.47460   0.47702   0.49993   0.51221
 Alpha virt. eigenvalues --    0.53158   0.54738   0.55767   0.57508   0.57990
 Alpha virt. eigenvalues --    0.68881   0.72390   0.74125   0.77821   0.77850
 Alpha virt. eigenvalues --    0.83458   0.85112   0.87042   0.93107   1.00142
 Alpha virt. eigenvalues --    1.04808   1.09546   1.32170   1.32800
  Beta  occ. eigenvalues --  -10.34855 -10.34851 -10.28516 -10.28515 -10.26598
  Beta  occ. eigenvalues --   -1.13499  -1.05012  -0.96755  -0.87789  -0.81505
  Beta  occ. eigenvalues --   -0.80469  -0.73729  -0.69350  -0.66785  -0.64493
  Beta  occ. eigenvalues --   -0.63925  -0.55291
  Beta virt. eigenvalues --   -0.29217  -0.23544  -0.23483  -0.11553  -0.01270
  Beta virt. eigenvalues --    0.00210   0.04208   0.07812   0.08825   0.10530
  Beta virt. eigenvalues --    0.18763   0.19931   0.27947   0.29195   0.40285
  Beta virt. eigenvalues --    0.40578   0.47999   0.49151   0.49463   0.50629
  Beta virt. eigenvalues --    0.51762   0.53465   0.55390   0.57586   0.58795
  Beta virt. eigenvalues --    0.58818   0.65278   0.72837   0.73583   0.77912
  Beta virt. eigenvalues --    0.78753   0.83874   0.85330   0.87500   0.94408
  Beta virt. eigenvalues --    1.00369   1.05460   1.10120   1.32929   1.34043
          Condensed to atoms (all electrons):
               1          2          3          4          5          6
     1  C    5.179319   0.511942  -0.061455  -0.041901   0.139098   0.099956
     2  C    0.511942   4.949851   0.494267  -0.059406  -0.041901  -0.003225
     3  C   -0.061455   0.494267   4.846529   0.494267  -0.061455   0.000364
     4  C   -0.041901  -0.059406   0.494267   4.949851   0.511942  -0.003225
     5  C    0.139098  -0.041901  -0.061455   0.511942   5.179319   0.099956
     6  H    0.099956  -0.003225   0.000364  -0.003225   0.099956   0.534601
     7  H    0.348299  -0.028132   0.002570   0.000730  -0.002713  -0.004951
     8  H   -0.024488   0.354496  -0.010553   0.003313   0.000430   0.000104
     9  H    0.004312  -0.028966   0.368677  -0.028966   0.004312  -0.000002
    10  H    0.000430   0.003313  -0.010553   0.354496  -0.024488   0.000104
    11  H   -0.002713   0.000730   0.002570  -0.028132   0.348299  -0.004951
               7          8          9         10         11
     1  C    0.348299  -0.024488   0.004312   0.000430  -0.002713
     2  C   -0.028132   0.354496  -0.028966   0.003313   0.000730
     3  C    0.002570  -0.010553   0.368677  -0.010553   0.002570
     4  C    0.000730   0.003313  -0.028966   0.354496  -0.028132
     5  C   -0.002713   0.000430   0.004312  -0.024488   0.348299
     6  H   -0.004951   0.000104  -0.000002   0.000104  -0.004951
     7  H    0.402911   0.000583  -0.000089  -0.000007   0.000020
     8  H    0.000583   0.384127  -0.002731  -0.000058  -0.000007
     9  H   -0.000089  -0.002731   0.441903  -0.002731  -0.000089
    10  H   -0.000007  -0.000058  -0.002731   0.384127   0.000583
    11  H    0.000020  -0.000007  -0.000089   0.000583   0.402911
          Atomic-Atomic Spin Densities.
               1          2          3          4          5          6
     1  C    0.730597  -0.034965  -0.021242  -0.010702   0.051970  -0.012388
     2  C   -0.034965  -0.304278   0.012915   0.005840  -0.010702  -0.000520
     3  C   -0.021242   0.012915   0.652124   0.012915  -0.021242  -0.000002
     4  C   -0.010702   0.005840   0.012915  -0.304278  -0.034965  -0.000520
     5  C    0.051970  -0.010702  -0.021242  -0.034965   0.730597  -0.012388
     6  H   -0.012388  -0.000520  -0.000002  -0.000520  -0.012388  -0.280910
     7  H   -0.007485   0.001920  -0.000067   0.000034  -0.000213   0.002283
     8  H   -0.001881   0.004144  -0.001063  -0.000178   0.000196  -0.000013
     9  H    0.000001   0.000058  -0.001338   0.000058   0.000001   0.000000
    10  H    0.000196  -0.000178  -0.001063   0.004144  -0.001881  -0.000013
    11  H   -0.000213   0.000034  -0.000067   0.001920  -0.007485   0.002283
               7          8          9         10         11
     1  C   -0.007485  -0.001881   0.000001   0.000196  -0.000213
     2  C    0.001920   0.004144   0.000058  -0.000178   0.000034
     3  C   -0.000067  -0.001063  -0.001338  -0.001063  -0.000067
     4  C    0.000034  -0.000178   0.000058   0.004144   0.001920
     5  C   -0.000213   0.000196   0.000001  -0.001881  -0.007485
     6  H    0.002283  -0.000013   0.000000  -0.000013   0.002283
     7  H   -0.031182   0.000063   0.000005  -0.000000  -0.000006
     8  H    0.000063   0.014684   0.000045   0.000006  -0.000000
     9  H    0.000005   0.000045  -0.027580   0.000045   0.000005
    10  H   -0.000000   0.000006   0.000045   0.014684   0.000063
    11  H   -0.000006  -0.000000   0.000005   0.000063  -0.031182
 Mulliken charges and spin densities:
               1          2
     1  C   -0.152799   0.693888
     2  C   -0.152969  -0.325732
     3  C   -0.065227   0.631869
     4  C   -0.152969  -0.325732
     5  C   -0.152799   0.693888
     6  H    0.281268  -0.302187
     7  H    0.280780  -0.034648
     8  H    0.294784   0.016001
     9  H    0.244368  -0.028700
    10  H    0.294784   0.016001
    11  H    0.280780  -0.034648
 Sum of Mulliken charges =   1.00000   1.00000
 Mulliken charges and spin densities with hydrogens summed into heavy atoms:
               1          2
     1  C    0.409249   0.357053
     2  C    0.141815  -0.309731
     3  C    0.179141   0.603169
     4  C    0.141815  -0.309731
     5  C    0.127980   0.659240
 Electronic spatial extent (au):  <R**2>=            374.8676
 Charge=              1.0000 electrons
 Dipole moment (field-independent basis, Debye):
    X=             -0.0000    Y=              0.0000    Z=             -2.7510  Tot=              2.7510
 Quadrupole moment (field-independent basis, Debye-Ang):
   XX=            -32.5437   YY=            -13.1673   ZZ=            -10.5126
   XY=              0.0000   XZ=              0.0000   YZ=             -0.0000
 Traceless Quadrupole moment (field-independent basis, Debye-Ang):
   XX=            -13.8025   YY=              5.5739   ZZ=              8.2286
   XY=              0.0000   XZ=              0.0000   YZ=             -0.0000
 Octapole moment (field-independent basis, Debye-Ang**2):
  XXX=              0.0000  YYY=              0.0000  ZZZ=            -22.3008  XYY=             -0.0000
  XXY=             -0.0000  XXZ=              1.6044  XZZ=              0.0000  YZZ=              0.0000
  YYZ=             -3.2563  XYZ=             -0.0000
 Hexadecapole moment (field-independent basis, Debye-Ang**3):
 XXXX=            -33.2259 YYYY=           -180.3243 ZZZZ=            -97.6643 XXXY=             -0.0000
 XXXZ=             -0.0000 YYYX=             -0.0000 YYYZ=             -0.0000 ZZZX=             -0.0000
 ZZZY=              0.0000 XXYY=            -55.3536 XXZZ=            -44.4005 YYZZ=            -50.9033
 XXYZ=             -0.0000 YYXZ=              0.0000 ZZXY=             -0.0000
 N-N= 1.450218997931D+02 E-N=-7.299822494774D+02  KE= 1.917368673248D+02
 Symmetry A1   KE= 1.107551797003D+02
 Symmetry A2   KE= 2.409527896665D+00
 Symmetry B1   KE= 3.299606753156D+00
 Symmetry B2   KE= 7.527255297465D+01
 Symmetry A1   SP=-3.480597663115D-14
 Symmetry A2   SP=-4.992935690294D-15
 Symmetry B1   SP= 1.000000000000D+00
 Symmetry B2   SP= 1.833591475618D-14
                          Isotropic Fermi Contact Couplings
        Atom                 a.u.       MegaHertz       Gauss      10(-4) cm-1
     1  C(13)              0.12535     140.91186      50.28085      47.00314
     2  C(13)             -0.05176     -58.19059     -20.76385     -19.41029
     3  C(13)              0.09506     106.87080      38.13416      35.64826
     4  C(13)             -0.05176     -58.19059     -20.76385     -19.41029
     5  C(13)              0.12535     140.91186      50.28085      47.00314
     6  H(1)              -0.10192    -455.58730    -162.56488    -151.96757
     7  H(1)              -0.01286     -57.46231     -20.50398     -19.16736
     8  H(1)               0.00662      29.60606      10.56418       9.87552
     9  H(1)              -0.01035     -46.27369     -16.51160     -15.43524
    10  H(1)               0.00662      29.60606      10.56418       9.87552
    11  H(1)              -0.01286     -57.46231     -20.50398     -19.16736
 --------------------------------------------------------
       Center         ----  Spin Dipole Couplings  ----
                      3XX-RR        3YY-RR        3ZZ-RR
 --------------------------------------------------------
     1   Atom        0.504959     -0.211988     -0.292971
     2   Atom       -0.255909      0.101054      0.154855
     3   Atom        0.601501     -0.322723     -0.278778
     4   Atom       -0.255909      0.101054      0.154855
     5   Atom        0.504959     -0.211988     -0.292971
     6   Atom       -0.015121     -0.005388      0.020509
     7   Atom       -0.012055      0.033343     -0.021289
     8   Atom       -0.007981      0.000516      0.007465
     9   Atom       -0.006038     -0.039928      0.045966
    10   Atom       -0.007981      0.000516      0.007465
    11   Atom       -0.012055      0.033343     -0.021289
 --------------------------------------------------------
                        XY            XZ            YZ
 --------------------------------------------------------
     1   Atom        0.000000      0.000000      0.083694
     2   Atom       -0.000000      0.000000     -0.000611
     3   Atom       -0.000000      0.000000     -0.000000
     4   Atom       -0.000000     -0.000000      0.000611
     5   Atom        0.000000      0.000000     -0.083694
     6   Atom        0.000000     -0.000000     -0.000000
     7   Atom        0.000000      0.000000     -0.040658
     8   Atom        0.000000      0.000000     -0.008595
     9   Atom       -0.000000     -0.000000     -0.000000
    10   Atom        0.000000     -0.000000      0.008595
    11   Atom       -0.000000      0.000000      0.040658
 --------------------------------------------------------


 ---------------------------------------------------------------------------------
              Anisotropic Spin Dipole Couplings in Principal Axis System
 ---------------------------------------------------------------------------------

       Atom             a.u.   MegaHertz   Gauss  10(-4) cm-1        Axes

              Baa    -0.3455   -46.357   -16.541   -15.463 -0.0000 -0.5313  0.8472
     1 C(13)  Bbb    -0.1595   -21.404    -7.638    -7.140  0.0000  0.8472  0.5313
              Bcc     0.5050    67.761    24.179    22.603  1.0000 -0.0000  0.0000
 
              Baa    -0.2559   -34.341   -12.254   -11.455  1.0000  0.0000 -0.0000
     2 C(13)  Bbb     0.1010    13.560     4.838     4.523 -0.0000  0.9999  0.0114
              Bcc     0.1549    20.781     7.415     6.932  0.0000 -0.0114  0.9999
 
              Baa    -0.3227   -43.306   -15.453   -14.445 -0.0000  1.0000  0.0000
     3 C(13)  Bbb    -0.2788   -37.409   -13.349   -12.478  0.0000  0.0000  1.0000
              Bcc     0.6015    80.716    28.801    26.924  1.0000 -0.0000  0.0000
 
              Baa    -0.2559   -34.341   -12.254   -11.455  1.0000  0.0000  0.0000
     4 C(13)  Bbb     0.1010    13.560     4.838     4.523 -0.0000  0.9999 -0.0114
              Bcc     0.1549    20.781     7.415     6.932 -0.0000  0.0114  0.9999
 
              Baa    -0.3455   -46.357   -16.541   -15.463 -0.0000  0.5313  0.8472
     5 C(13)  Bbb    -0.1595   -21.404    -7.638    -7.140 -0.0000  0.8472 -0.5313
              Bcc     0.5050    67.761    24.179    22.603  1.0000  0.0000  0.0000
 
              Baa    -0.0151    -8.068    -2.879    -2.691  1.0000 -0.0000  0.0000
     6 H(1)   Bbb    -0.0054    -2.875    -1.026    -0.959  0.0000  1.0000  0.0000
              Bcc     0.0205    10.943     3.905     3.650 -0.0000 -0.0000  1.0000
 
              Baa    -0.0430   -22.918    -8.178    -7.645 -0.0000  0.4703  0.8825
     7 H(1)   Bbb    -0.0121    -6.432    -2.295    -2.145  1.0000  0.0000  0.0000
              Bcc     0.0550    29.350    10.473     9.790 -0.0000  0.8825 -0.4703
 
              Baa    -0.0080    -4.258    -1.519    -1.420  1.0000  0.0000  0.0000
     8 H(1)   Bbb    -0.0053    -2.817    -1.005    -0.940 -0.0000  0.8291  0.5591
              Bcc     0.0133     7.075     2.525     2.360  0.0000 -0.5591  0.8291
 
              Baa    -0.0399   -21.304    -7.602    -7.106  0.0000  1.0000 -0.0000
     9 H(1)   Bbb    -0.0060    -3.221    -1.149    -1.075  1.0000 -0.0000 -0.0000
              Bcc     0.0460    24.525     8.751     8.181  0.0000  0.0000  1.0000
 
              Baa    -0.0080    -4.258    -1.519    -1.420  1.0000 -0.0000  0.0000
    10 H(1)   Bbb    -0.0053    -2.817    -1.005    -0.940  0.0000  0.8291 -0.5591
              Bcc     0.0133     7.075     2.525     2.360  0.0000  0.5591  0.8291
 
              Baa    -0.0430   -22.918    -8.178    -7.645 -0.0000 -0.4703  0.8825
    11 H(1)   Bbb    -0.0121    -6.432    -2.295    -2.145  1.0000 -0.0000  0.0000
              Bcc     0.0550    29.350    10.473     9.790  0.0000  0.8825  0.4703
 

 ---------------------------------------------------------------------------------

 No NMR shielding tensors so no spin-rotation constants.
 Leave Link  601 at Tue Feb 25 12:20:00 2020, MaxMem=  6710886400 cpu:               5.6 elap:               0.4
 (Enter /opt/ohpc/pub/libs/gaussian/g16-A.03/haswell/g16/l9999.exe)

 Test job not archived.
 1\1\GINC-HASWELL008\SP\ULC-wHPBE\6-31G\C5H6(1+,2)\SMGO234\25-Feb-2020\
 0\\#P uLC-wHPBE/6-31G iop(3/107=0276700000, 3/108=0276700000) scf=(con
 ver=6,fermi,ndamp=35,noincfock,novaracc,vshift=500,xqc)\\H6 C5\\1,2\C,
 0,-1.206512,0.69658,0.\C,0,-1.206512,-0.69658,0.\C,0,0.,-1.39316,0.\C,
 0,1.206512,-0.69658,0.\C,0,1.206512,0.69658,0.\H,0,0.,2.482681,0.\H,0,
 -2.150065,1.24134,0.\H,0,-2.150065,-1.24134,0.\H,0,0.,-2.482681,0.\H,0
 ,2.150065,-1.24134,0.\H,0,2.150065,1.24134,0.\\Version=ES64L-G16RevA.0
 3\State=2-B1\HF=-193.3127737\S2=0.929575\S2-1=0.\S2A=0.773075\RMSD=5.2
 63e-07\Dipole=0.,1.0823104,0.\Quadrupole=4.1440826,6.1177285,-10.26181
 11,0.,0.,0.\PG=C02V [C2(H1C1H1),SGV(C4H4)]\\@


 Age does not diminish the extreme disappointment of
 having a scoop of ice cream fall from the cone.
 -- Jim Fiebig
 Job cpu time:       0 days  0 hours  1 minutes  6.1 seconds.
 Elapsed time:       0 days  0 hours  0 minutes  4.6 seconds.
 File lengths (MBytes):  RWF=    272 Int=      0 D2E=      0 Chk=     32 Scr=     32
 Normal termination of Gaussian 16 at Tue Feb 25 12:20:00 2020.
