 Entering Gaussian System, Link 0=g16
 Input=1b_tune_n3.gjf
 Output=1b_tune_n3.log
 Initial command:
 /opt/ohpc/pub/libs/gaussian/g16-A.03/haswell/g16/l1.exe "/scratch/smgo234/Ocelot/test/1b/tuning_1b_ocycle0/Gau-33546.inp" -scrdir="/scratch/smgo234/Ocelot/test/1b/tuning_1b_ocycle0/"
 Entering Link 1 = /opt/ohpc/pub/libs/gaussian/g16-A.03/haswell/g16/l1.exe PID=     33547.
  
 Copyright (c) 1988,1990,1992,1993,1995,1998,2003,2009,2016,
            Gaussian, Inc.  All Rights Reserved.
  
 This is part of the Gaussian(R) 16 program.  It is based on
 the Gaussian(R) 09 system (copyright 2009, Gaussian, Inc.),
 the Gaussian(R) 03 system (copyright 2003, Gaussian, Inc.),
 the Gaussian(R) 98 system (copyright 1998, Gaussian, Inc.),
 the Gaussian(R) 94 system (copyright 1995, Gaussian, Inc.),
 the Gaussian 92(TM) system (copyright 1992, Gaussian, Inc.),
 the Gaussian 90(TM) system (copyright 1990, Gaussian, Inc.),
 the Gaussian 88(TM) system (copyright 1988, Gaussian, Inc.),
 the Gaussian 86(TM) system (copyright 1986, Carnegie Mellon
 University), and the Gaussian 82(TM) system (copyright 1983,
 Carnegie Mellon University). Gaussian is a federally registered
 trademark of Gaussian, Inc.
  
 This software contains proprietary and confidential information,
 including trade secrets, belonging to Gaussian, Inc.
  
 This software is provided under written license and may be
 used, copied, transmitted, or stored only in accord with that
 written license.
  
 The following legend is applicable only to US Government
 contracts under FAR:
  
                    RESTRICTED RIGHTS LEGEND
  
 Use, reproduction and disclosure by the US Government is
 subject to restrictions as set forth in subparagraphs (a)
 and (c) of the Commercial Computer Software - Restricted
 Rights clause in FAR 52.227-19.
  
 Gaussian, Inc.
 340 Quinnipiac St., Bldg. 40, Wallingford CT 06492
  
  
 ---------------------------------------------------------------
 Warning -- This program may not be used in any manner that
 competes with the business of Gaussian, Inc. or will provide
 assistance to any competitor of Gaussian, Inc.  The licensee
 of this program is prohibited from giving any competitor of
 Gaussian, Inc. access to this program.  By using this program,
 the user acknowledges that Gaussian, Inc. is engaged in the
 business of creating and licensing software in the field of
 computational chemistry and represents and warrants to the
 licensee that it is not a competitor of Gaussian, Inc. and that
 it will not use this program in any manner prohibited above.
 ---------------------------------------------------------------
  

 Cite this work as:
 Gaussian 16, Revision A.03,
 M. J. Frisch, G. W. Trucks, H. B. Schlegel, G. E. Scuseria, 
 M. A. Robb, J. R. Cheeseman, G. Scalmani, V. Barone, 
 G. A. Petersson, H. Nakatsuji, X. Li, M. Caricato, A. V. Marenich, 
 J. Bloino, B. G. Janesko, R. Gomperts, B. Mennucci, H. P. Hratchian, 
 J. V. Ortiz, A. F. Izmaylov, J. L. Sonnenberg, D. Williams-Young, 
 F. Ding, F. Lipparini, F. Egidi, J. Goings, B. Peng, A. Petrone, 
 T. Henderson, D. Ranasinghe, V. G. Zakrzewski, J. Gao, N. Rega, 
 G. Zheng, W. Liang, M. Hada, M. Ehara, K. Toyota, R. Fukuda, 
 J. Hasegawa, M. Ishida, T. Nakajima, Y. Honda, O. Kitao, H. Nakai, 
 T. Vreven, K. Throssell, J. A. Montgomery, Jr., J. E. Peralta, 
 F. Ogliaro, M. J. Bearpark, J. J. Heyd, E. N. Brothers, K. N. Kudin, 
 V. N. Staroverov, T. A. Keith, R. Kobayashi, J. Normand, 
 K. Raghavachari, A. P. Rendell, J. C. Burant, S. S. Iyengar, 
 J. Tomasi, M. Cossi, J. M. Millam, M. Klene, C. Adamo, R. Cammi, 
 J. W. Ochterski, R. L. Martin, K. Morokuma, O. Farkas, 
 J. B. Foresman, and D. J. Fox, Gaussian, Inc., Wallingford CT, 2016.
 
 ******************************************
 Gaussian 16:  ES64L-G16RevA.03 25-Dec-2016
                25-Feb-2020 
 ******************************************
 %mem=50GB
 %nproc=16
 Will use up to   16 processors via shared memory.
 ----------------------------------------------------------------------
 #P uLC-wHPBE/6-31G iop(3/107=0280700000, 3/108=0280700000) scf=(conver
 =6,fermi,ndamp=35,noincfock,novaracc,vshift=500,xqc)
 ----------------------------------------------------------------------
 1/38=1,172=1/1;
 2/12=2,17=6,18=5,40=1/2;
 3/5=1,6=6,11=2,25=1,30=1,74=-71,107=280700000,108=280700000,116=2/1,2,3;
 4//1;
 5/5=100002,6=6,8=3,10=500,13=1,18=-1,22=13,38=1,93=35/2,8;
 6/7=2,8=2,9=2,10=2,28=1/1;
 99/5=1,9=1/99;
 Leave Link    1 at Tue Feb 25 12:19:44 2020, MaxMem=  6710886400 cpu:               9.8 elap:               0.7
 (Enter /opt/ohpc/pub/libs/gaussian/g16-A.03/haswell/g16/l101.exe)
 -----
 H6 C5
 -----
 Symbolic Z-matrix:
 Charge =  0 Multiplicity = 1
 C                    -1.20651   0.69658   0. 
 C                    -1.20651  -0.69658   0. 
 C                     0.       -1.39316   0. 
 C                     1.20651  -0.69658   0. 
 C                     1.20651   0.69658   0. 
 H                     0.        2.48268   0. 
 H                    -2.15007   1.24134   0. 
 H                    -2.15007  -1.24134   0. 
 H                     0.       -2.48268   0. 
 H                     2.15007  -1.24134   0. 
 H                     2.15007   1.24134   0. 
 
 ITRead=  0  0  0  0  0  0  0  0  0  0  0
 MicOpt= -1 -1 -1 -1 -1 -1 -1 -1 -1 -1 -1
 NAtoms=     11 NQM=       11 NQMF=       0 NMMI=      0 NMMIF=      0
                NMic=       0 NMicF=      0.
                    Isotopes and Nuclear Properties:
 (Nuclear quadrupole moments (NQMom) in fm**2, nuclear magnetic moments (NMagM)
  in nuclear magnetons)

  Atom         1           2           3           4           5           6           7           8           9          10
 IAtWgt=          12          12          12          12          12           1           1           1           1           1
 AtmWgt=  12.0000000  12.0000000  12.0000000  12.0000000  12.0000000   1.0078250   1.0078250   1.0078250   1.0078250   1.0078250
 NucSpn=           0           0           0           0           0           1           1           1           1           1
 AtZEff=  -0.0000000  -0.0000000  -0.0000000  -0.0000000  -0.0000000  -0.0000000  -0.0000000  -0.0000000  -0.0000000  -0.0000000
 NQMom=    0.0000000   0.0000000   0.0000000   0.0000000   0.0000000   0.0000000   0.0000000   0.0000000   0.0000000   0.0000000
 NMagM=    0.0000000   0.0000000   0.0000000   0.0000000   0.0000000   2.7928460   2.7928460   2.7928460   2.7928460   2.7928460
 AtZNuc=   6.0000000   6.0000000   6.0000000   6.0000000   6.0000000   1.0000000   1.0000000   1.0000000   1.0000000   1.0000000

  Atom        11
 IAtWgt=           1
 AtmWgt=   1.0078250
 NucSpn=           1
 AtZEff=  -0.0000000
 NQMom=    0.0000000
 NMagM=    2.7928460
 AtZNuc=   1.0000000
 Leave Link  101 at Tue Feb 25 12:19:45 2020, MaxMem=  6710886400 cpu:               2.5 elap:               0.2
 (Enter /opt/ohpc/pub/libs/gaussian/g16-A.03/haswell/g16/l202.exe)
                          Input orientation:                          
 ---------------------------------------------------------------------
 Center     Atomic      Atomic             Coordinates (Angstroms)
 Number     Number       Type             X           Y           Z
 ---------------------------------------------------------------------
      1          6           0       -1.206512    0.696580    0.000000
      2          6           0       -1.206512   -0.696580    0.000000
      3          6           0        0.000000   -1.393160    0.000000
      4          6           0        1.206512   -0.696580    0.000000
      5          6           0        1.206512    0.696580    0.000000
      6          1           0        0.000000    2.482681    0.000000
      7          1           0       -2.150065    1.241340    0.000000
      8          1           0       -2.150065   -1.241340    0.000000
      9          1           0        0.000000   -2.482681    0.000000
     10          1           0        2.150065   -1.241340    0.000000
     11          1           0        2.150065    1.241340    0.000000
 ---------------------------------------------------------------------
                    Distance matrix (angstroms):
                    1          2          3          4          5
     1  C    0.000000
     2  C    1.393160   0.000000
     3  C    2.413024   1.393160   0.000000
     4  C    2.786320   2.413024   1.393160   0.000000
     5  C    2.413024   2.786320   2.413024   1.393160   0.000000
     6  H    2.155418   3.400496   3.875841   3.400496   2.155418
     7  H    1.089521   2.155418   3.400496   3.875841   3.400496
     8  H    2.155418   1.089521   2.155418   3.400496   3.875841
     9  H    3.400496   2.155418   1.089521   2.155418   3.400496
    10  H    3.875841   3.400496   2.155418   1.089521   2.155418
    11  H    3.400496   3.875841   3.400496   2.155418   1.089521
                    6          7          8          9         10
     6  H    0.000000
     7  H    2.482681   0.000000
     8  H    4.300129   2.482680   0.000000
     9  H    4.965362   4.300129   2.482681   0.000000
    10  H    4.300129   4.965362   4.300130   2.482681   0.000000
    11  H    2.482681   4.300130   4.965362   4.300129   2.482680
                   11
    11  H    0.000000
 Stoichiometry    C5H6
 Framework group  C2V[C2(HCH),SGV(C4H4)]
 Deg. of freedom    10
 Full point group                 C2V     NOp   4
 Largest Abelian subgroup         C2V     NOp   4
 Largest concise Abelian subgroup C2      NOp   2
                         Standard orientation:                         
 ---------------------------------------------------------------------
 Center     Atomic      Atomic             Coordinates (Angstroms)
 Number     Number       Type             X           Y           Z
 ---------------------------------------------------------------------
      1          6           0       -0.000000    1.206512   -0.928773
      2          6           0       -0.000000    1.206512    0.464387
      3          6           0        0.000000    0.000000    1.160967
      4          6           0       -0.000000   -1.206512    0.464387
      5          6           0       -0.000000   -1.206512   -0.928773
      6          1           0       -0.000000   -0.000000   -2.714874
      7          1           0       -0.000000    2.150065   -1.473533
      8          1           0       -0.000000    2.150065    1.009147
      9          1           0        0.000000    0.000000    2.250488
     10          1           0       -0.000000   -2.150065    1.009147
     11          1           0       -0.000000   -2.150065   -1.473533
 ---------------------------------------------------------------------
 Rotational constants (GHZ):           8.2868568           5.7099792           3.3806054
 Leave Link  202 at Tue Feb 25 12:19:45 2020, MaxMem=  6710886400 cpu:               0.2 elap:               0.0
 (Enter /opt/ohpc/pub/libs/gaussian/g16-A.03/haswell/g16/l301.exe)
 Standard basis: 6-31G (6D, 7F)
 Ernie: Thresh=  0.10000D-02 Tol=  0.10000D-05 Strict=F.
 There are    27 symmetry adapted cartesian basis functions of A1  symmetry.
 There are     4 symmetry adapted cartesian basis functions of A2  symmetry.
 There are     6 symmetry adapted cartesian basis functions of B1  symmetry.
 There are    20 symmetry adapted cartesian basis functions of B2  symmetry.
 There are    27 symmetry adapted basis functions of A1  symmetry.
 There are     4 symmetry adapted basis functions of A2  symmetry.
 There are     6 symmetry adapted basis functions of B1  symmetry.
 There are    20 symmetry adapted basis functions of B2  symmetry.
    57 basis functions,   134 primitive gaussians,    57 cartesian basis functions
    18 alpha electrons       18 beta electrons
       nuclear repulsion energy       145.0218997931 Hartrees.
 IExCor=33909 DFT=T Ex+Corr=LC-wHPBE ExCW=0 ScaHFX=  1.000000
 ScaDFX=  1.000000  1.000000  1.000000  1.000000 ScalE2=  1.000000  1.000000
 IRadAn=      5 IRanWt=     -1 IRanGd=            0 ICorTp=0 IEmpDi=  4
 HFx  wShort=  0.000000 wLong=  0.280700 cFull=  0.000000 cShort=  0.000000 cLong=  1.000000
 DFx  wShort=  0.000000 wLong=  0.280700 cFull=  0.000000 cShort=  1.000000 cLong=  0.000000
 NAtoms=   11 NActive=   11 NUniq=    7 SFac= 2.47D+00 NAtFMM=   60 NAOKFM=F Big=F
 Integral buffers will be    131072 words long.
 Raffenetti 2 integral format.
 Two-electron integral symmetry is turned on.
 Leave Link  301 at Tue Feb 25 12:19:45 2020, MaxMem=  6710886400 cpu:               0.8 elap:               0.1
 (Enter /opt/ohpc/pub/libs/gaussian/g16-A.03/haswell/g16/l302.exe)
 NPDir=0 NMtPBC=     1 NCelOv=     1 NCel=       1 NClECP=     1 NCelD=      1
         NCelK=      1 NCelE2=     1 NClLst=     1 CellRange=     0.0.
 One-electron integrals computed using PRISM.
 One-electron integral symmetry used in STVInt
 NBasis=    57 RedAO= T EigKep=  2.88D-03  NBF=    27     4     6    20
 NBsUse=    57 1.00D-06 EigRej= -1.00D+00 NBFU=    27     4     6    20
 Precomputing XC quadrature grid using
 IXCGrd= 4 IRadAn=           5 IRanWt=          -1 IRanGd=           0 AccXCQ= 0.00D+00.
 Generated NRdTot=       0 NPtTot=           0 NUsed=           0 NTot=          32
 NSgBfM=    57    57    57    57    57 MxSgAt=    11 MxSgA2=    11.
 Leave Link  302 at Tue Feb 25 12:19:45 2020, MaxMem=  6710886400 cpu:               3.1 elap:               0.2
 (Enter /opt/ohpc/pub/libs/gaussian/g16-A.03/haswell/g16/l303.exe)
 DipDrv:  MaxL=1.
 Leave Link  303 at Tue Feb 25 12:19:45 2020, MaxMem=  6710886400 cpu:               0.4 elap:               0.0
 (Enter /opt/ohpc/pub/libs/gaussian/g16-A.03/haswell/g16/l401.exe)
 ExpMin= 1.61D-01 ExpMax= 3.05D+03 ExpMxC= 4.57D+02 IAcc=3 IRadAn=         5 AccDes= 0.00D+00
 Harris functional with IExCor=33909 and IRadAn=       5 diagonalized for initial guess.
 HarFok:  IExCor=33909 AccDes= 0.00D+00 IRadAn=         5 IDoV= 1 UseB2=F ITyADJ=14
 ICtDFT=  3500011 ScaDFX=  1.000000  1.000000  1.000000  1.000000
 FoFCou: FMM=F IPFlag=           0 FMFlag=      100000 FMFlg1=           0
         NFxFlg=           0 DoJE=T BraDBF=F KetDBF=T FulRan=T
         wScrn=  0.000000 ICntrl=       500 IOpCl=  0 I1Cent=   200000004 NGrid=           0
         NMat0=    1 NMatS0=      1 NMatT0=    0 NMatD0=    1 NMtDS0=    0 NMtDT0=    0
 Petite list used in FoFCou.
 Harris En= -188.430040439901    
 JPrj=0 DoOrth=F DoCkMO=F.
 Initial guess orbital symmetries:
 Alpha Orbitals:
       Occupied  (A1) (B2) (A1) (B2) (A1) (A1) (B2) (A1) (B2) (A1)
                 (A1) (B2) (B2) (A1) (B1) (A1) (A2) (B1)
       Virtual   (B2) (A1) (A2) (B1) (A1) (B2) (A1) (B2) (A1) (A1)
                 (B2) (A1) (B2) (B1) (B2) (A1) (B1) (A1) (A2) (B2)
                 (A1) (A2) (B1) (B2) (A1) (A1) (B2) (A1) (B2) (A1)
                 (A1) (B2) (A1) (A1) (B2) (B2) (A1) (A1) (B2)
 Beta  Orbitals:
       Occupied  (A1) (B2) (A1) (B2) (A1) (A1) (B2) (A1) (B2) (A1)
                 (A1) (B2) (B2) (A1) (B1) (A1) (A2) (B1)
       Virtual   (B2) (A1) (A2) (B1) (A1) (B2) (A1) (B2) (A1) (A1)
                 (B2) (A1) (B2) (B1) (B2) (A1) (B1) (A1) (A2) (B2)
                 (A1) (A2) (B1) (B2) (A1) (A1) (B2) (A1) (B2) (A1)
                 (A1) (B2) (A1) (A1) (B2) (B2) (A1) (A1) (B2)
 The electronic state of the initial guess is 1-A1.
 Initial guess <Sx>= 0.0000 <Sy>= 0.0000 <Sz>= 0.0000 <S**2>=-0.0000 S=-0.0000
 Leave Link  401 at Tue Feb 25 12:19:45 2020, MaxMem=  6710886400 cpu:               4.6 elap:               0.3
 (Enter /opt/ohpc/pub/libs/gaussian/g16-A.03/haswell/g16/l502.exe)
 Keep R1 and R2 ints in memory in symmetry-blocked form, NReq=16815659.
 FoFCou: FMM=F IPFlag=           0 FMFlag=           0 FMFlg1=           0
         NFxFlg=           0 DoJE=F BraDBF=F KetDBF=F FulRan=T
         wScrn=  0.000000 ICntrl=       600 IOpCl=  0 I1Cent=           0 NGrid=           0
         NMat0=    1 NMatS0=   1653 NMatT0=    0 NMatD0=    1 NMtDS0=    0 NMtDT0=    0
 Petite list used in FoFCou.
 UHF open shell SCF:
 Using DIIS extrapolation, IDIIS=    10.
 NGot=  6710886400 LenX=  6710059583 LenY=  6710055893
 Requested convergence on RMS density matrix=1.00D-06 within  32 cycles.
 Requested convergence on MAX density matrix=1.00D-04.
 Requested convergence on             energy=1.00D-04.
 Virtual orbitals will be shifted by   0.500 hartree.
 No special actions if energy rises.
 Dynamic level shift is on during FON iterations.

 Cycle   1  Pass 1  IDiag  1:
 E= -193.361812839274    
 DIIS: error= 4.74D-02 at cycle   1 NSaved=   1.
 NSaved= 1 IEnMin= 1 EnMin= -193.361812839274     IErMin= 1 ErrMin= 4.74D-02
 ErrMax= 4.74D-02  0.00D+00 EMaxC= 1.00D+00 BMatC= 4.72D-01 BMatP= 4.72D-01
 IDIUse=1 WtCom= 1.00D+00 WtEn= 0.00D+00
 Coeff-Com:  0.100D+01
 Coeff:      0.100D+01
 Gap=     0.034 Goal=   None    Shift=    0.500
 T= 1771. Gap= 0.485 NK=0 IS=   19 IE=   57 IFin=   18
          NO(<0.9)=   0  NV(>0.1)=   0     18.00e < EF      0.00e >EF  Err=0.0D+00
 Gap=     0.034 Goal=   None    Shift=    0.500
 T= 1771. Gap= 0.485 NK=0 IS=   19 IE=   57 IFin=   18
          NO(<0.9)=   0  NV(>0.1)=   0     18.00e < EF      0.00e >EF  Err=0.0D+00
 GapD=    0.034 DampG=0.250 DampE=0.500 DampFc=0.1250 IDamp=-1.
 Damping current iteration by 1.25D-01
 RMSDP=2.25D-02 MaxDP=4.97D-01              OVMax= 1.42D-01

 Cycle   2  Pass 1  IDiag  1:
 E= -193.393187084594     Delta-E=       -0.031374245320 Rises=F Damp=T
 DIIS: error= 3.38D-02 at cycle   2 NSaved=   2.
 NSaved= 2 IEnMin= 2 EnMin= -193.393187084594     IErMin= 2 ErrMin= 3.38D-02
 ErrMax= 3.38D-02  0.00D+00 EMaxC= 1.00D+00 BMatC= 2.67D-01 BMatP= 4.72D-01
 IDIUse=1 WtCom= 1.00D+00 WtEn= 0.00D+00
 Coeff-Com: -0.276D+01 0.376D+01
 Coeff:     -0.276D+01 0.376D+01
 Gap=     0.005 Goal=   None    Shift=    0.500
 T= 1710. Gap= 0.518 NK=0 IS=   19 IE=   57 IFin=   18
          NO(<0.9)=   0  NV(>0.1)=   0     18.00e < EF      0.00e >EF  Err=0.0D+00
 Gap=     0.005 Goal=   None    Shift=    0.500
 T= 1710. Gap= 0.518 NK=0 IS=   19 IE=   57 IFin=   18
          NO(<0.9)=   0  NV(>0.1)=   0     18.00e < EF      0.00e >EF  Err=0.0D+00
 GapD=    0.005 DampG=0.250 DampE=0.500 DampFc=0.1250 IDamp=-1.
 Damping current iteration by 1.25D-01
 RMSDP=7.88D-03 MaxDP=5.37D-02 DE=-3.14D-02 OVMax= 1.13D-01

 Cycle   3  Pass 1  IDiag  1:
 E= -193.414422318664     Delta-E=       -0.021235234071 Rises=F Damp=T
 DIIS: error= 2.97D-02 at cycle   3 NSaved=   3.
 NSaved= 3 IEnMin= 3 EnMin= -193.414422318664     IErMin= 3 ErrMin= 2.97D-02
 ErrMax= 2.97D-02  0.00D+00 EMaxC= 1.00D+00 BMatC= 2.01D-01 BMatP= 2.67D-01
 IDIUse=1 WtCom= 1.00D+00 WtEn= 0.00D+00
 Coeff-Com: -0.121D+01-0.220D+01 0.441D+01
 Coeff:     -0.121D+01-0.220D+01 0.441D+01
 Gap=     0.105 Goal=   None    Shift=    0.500
 T= 1622. Gap= 0.606 NK=0 IS=   19 IE=   57 IFin=   18
          NO(<0.9)=   0  NV(>0.1)=   0     18.00e < EF      0.00e >EF  Err=0.0D+00
 Gap=     0.105 Goal=   None    Shift=    0.500
 T= 1622. Gap= 0.606 NK=0 IS=   19 IE=   57 IFin=   18
          NO(<0.9)=   0  NV(>0.1)=   0     18.00e < EF      0.00e >EF  Err=0.0D+00
 GapD=    0.105 DampG=1.000 DampE=0.500 DampFc=0.5000 IDamp=-1.
 Damping current iteration by 5.00D-01
 RMSDP=6.40D-03 MaxDP=4.11D-02 DE=-2.12D-02 OVMax= 3.45D-02

 Cycle   4  Pass 1  IDiag  1:
 E= -193.482271738142     Delta-E=       -0.067849419478 Rises=F Damp=T
 DIIS: error= 1.77D-02 at cycle   4 NSaved=   4.
 NSaved= 4 IEnMin= 4 EnMin= -193.482271738142     IErMin= 4 ErrMin= 1.77D-02
 ErrMax= 1.77D-02  0.00D+00 EMaxC= 1.00D+00 BMatC= 5.94D-02 BMatP= 2.01D-01
 IDIUse=1 WtCom= 1.00D+00 WtEn= 0.00D+00
 Coeff-Com: -0.658D+00 0.497D+01-0.636D+01 0.305D+01
 Coeff:     -0.658D+00 0.497D+01-0.636D+01 0.305D+01
 Gap=     0.140 Goal=   None    Shift=    0.500
 T= 1435. Gap= 0.640 NK=0 IS=   19 IE=   57 IFin=   18
          NO(<0.9)=   0  NV(>0.1)=   0     18.00e < EF      0.00e >EF  Err=0.0D+00
 Gap=     0.140 Goal=   None    Shift=    0.500
 T= 1435. Gap= 0.640 NK=0 IS=   19 IE=   57 IFin=   18
          NO(<0.9)=   0  NV(>0.1)=   0     18.00e < EF      0.00e >EF  Err=0.0D+00
 GapD=    0.140 DampG=1.000 DampE=0.500 DampFc=0.5000 IDamp=-1.
 Damping current iteration by 5.00D-01
 RMSDP=3.54D-03 MaxDP=2.60D-02 DE=-6.78D-02 OVMax= 8.19D-03

 Cycle   5  Pass 1  IDiag  1:
 E= -193.515323795808     Delta-E=       -0.033052057666 Rises=F Damp=T
 DIIS: error= 1.13D-02 at cycle   5 NSaved=   5.
 NSaved= 5 IEnMin= 5 EnMin= -193.515323795808     IErMin= 5 ErrMin= 1.13D-02
 ErrMax= 1.13D-02  0.00D+00 EMaxC= 1.00D+00 BMatC= 2.07D-02 BMatP= 5.94D-02
 IDIUse=1 WtCom= 1.00D+00 WtEn= 0.00D+00
 Coeff-Com: -0.283D+00-0.511D+00 0.223D+01-0.467D+01 0.423D+01
 Coeff:     -0.283D+00-0.511D+00 0.223D+01-0.467D+01 0.423D+01
 Gap=     0.158 Goal=   None    Shift=    0.500
 T= 1240. Gap= 0.658 NK=0 IS=   19 IE=   57 IFin=   18
          NO(<0.9)=   0  NV(>0.1)=   0     18.00e < EF      0.00e >EF  Err=0.0D+00
 Gap=     0.158 Goal=   None    Shift=    0.500
 T= 1240. Gap= 0.658 NK=0 IS=   19 IE=   57 IFin=   18
          NO(<0.9)=   0  NV(>0.1)=   0     18.00e < EF      0.00e >EF  Err=0.0D+00
 GapD=    0.158 DampG=1.000 DampE=0.500 DampFc=0.5000 IDamp=-1.
 Damping current iteration by 5.00D-01
 RMSDP=2.16D-03 MaxDP=1.67D-02 DE=-3.31D-02 OVMax= 8.00D-03

 Cycle   6  Pass 1  IDiag  1:
 E= -193.532174828155     Delta-E=       -0.016851032347 Rises=F Damp=T
 DIIS: error= 7.42D-03 at cycle   6 NSaved=   6.
 NSaved= 6 IEnMin= 6 EnMin= -193.532174828155     IErMin= 6 ErrMin= 7.42D-03
 ErrMax= 7.42D-03  0.00D+00 EMaxC= 1.00D+00 BMatC= 7.56D-03 BMatP= 2.07D-02
 IDIUse=1 WtCom= 1.00D+00 WtEn= 0.00D+00
 Coeff-Com: -0.117D+00-0.128D+01 0.237D+01-0.155D+01-0.131D+01 0.288D+01
 Coeff:     -0.117D+00-0.128D+01 0.237D+01-0.155D+01-0.131D+01 0.288D+01
 Gap=     0.165 Goal=   None    Shift=    0.500
 T=  953. Gap= 0.665 NK=0 IS=   19 IE=   57 IFin=   18
          NO(<0.9)=   0  NV(>0.1)=   0     18.00e < EF      0.00e >EF  Err=0.0D+00
 Gap=     0.165 Goal=   None    Shift=    0.500
 T=  953. Gap= 0.665 NK=0 IS=   19 IE=   57 IFin=   18
          NO(<0.9)=   0  NV(>0.1)=   0     18.00e < EF      0.00e >EF  Err=0.0D+00
 GapD=    0.165 DampG=1.000 DampE=1.000 DampFc=1.0000 IDamp=-1.
 RMSDP=1.34D-03 MaxDP=1.03D-02 DE=-1.69D-02 OVMax= 5.69D-03

 Cycle   7  Pass 1  IDiag  1:
 E= -193.549272649428     Delta-E=       -0.017097821273 Rises=F Damp=F
 DIIS: error= 2.29D-03 at cycle   7 NSaved=   7.
 NSaved= 7 IEnMin= 7 EnMin= -193.549272649428     IErMin= 7 ErrMin= 2.29D-03
 ErrMax= 2.29D-03  0.00D+00 EMaxC= 1.00D+00 BMatC= 4.06D-04 BMatP= 7.56D-03
 IDIUse=1 WtCom= 1.00D+00 WtEn= 0.00D+00
 Coeff-Com: -0.354D-01 0.114D+01-0.186D+01 0.112D+01 0.332D+01-0.636D+01
 Coeff-Com:  0.367D+01
 Coeff:     -0.354D-01 0.114D+01-0.186D+01 0.112D+01 0.332D+01-0.636D+01
 Coeff:      0.367D+01
 Gap=     0.172 Goal=   None    Shift=    0.500
 T=  623. Gap= 0.672 NK=0 IS=   19 IE=   57 IFin=   18
          NO(<0.9)=   0  NV(>0.1)=   0     18.00e < EF      0.00e >EF  Err=0.0D+00
 Gap=     0.172 Goal=   None    Shift=    0.500
 T=  623. Gap= 0.672 NK=0 IS=   19 IE=   57 IFin=   18
          NO(<0.9)=   0  NV(>0.1)=   0     18.00e < EF      0.00e >EF  Err=0.0D+00
 GapD=    0.172 DampG=1.000 DampE=1.000 DampFc=1.0000 IDamp=-1.
 RMSDP=1.74D-04 MaxDP=2.46D-03 DE=-1.71D-02 OVMax= 4.86D-03

 Cycle   8  Pass 1  IDiag  1:
 E= -193.549481312163     Delta-E=       -0.000208662736 Rises=F Damp=F
 DIIS: error= 1.47D-03 at cycle   8 NSaved=   8.
 NSaved= 8 IEnMin= 8 EnMin= -193.549481312163     IErMin= 8 ErrMin= 1.47D-03
 ErrMax= 1.47D-03  0.00D+00 EMaxC= 1.00D+00 BMatC= 1.38D-04 BMatP= 4.06D-04
 IDIUse=1 WtCom= 1.00D+00 WtEn= 0.00D+00
 Coeff-Com: -0.258D-01 0.701D+00-0.114D+01 0.579D+00 0.243D+01-0.424D+01
 Coeff-Com:  0.161D+01 0.107D+01
 Coeff:     -0.258D-01 0.701D+00-0.114D+01 0.579D+00 0.243D+01-0.424D+01
 Coeff:      0.161D+01 0.107D+01
 Gap=     0.173 Goal=   None    Shift=    0.500
 T=  245. Gap= 0.673 NK=0 IS=   19 IE=   57 IFin=   18
          NO(<0.9)=   0  NV(>0.1)=   0     18.00e < EF      0.00e >EF  Err=0.0D+00
 Gap=     0.173 Goal=   None    Shift=    0.500
 T=  245. Gap= 0.673 NK=0 IS=   19 IE=   57 IFin=   18
          NO(<0.9)=   0  NV(>0.1)=   0     18.00e < EF      0.00e >EF  Err=0.0D+00
 GapD=    0.173 DampG=1.000 DampE=1.000 DampFc=1.0000 IDamp=-1.
 RMSDP=9.36D-05 MaxDP=1.53D-03 DE=-2.09D-04 OVMax= 2.94D-03

 Cycle   9  Pass 1  IDiag  1:
 E= -193.549552374089     Delta-E=       -0.000071061925 Rises=F Damp=F
 DIIS: error= 9.77D-04 at cycle   9 NSaved=   9.
 NSaved= 9 IEnMin= 9 EnMin= -193.549552374089     IErMin= 9 ErrMin= 9.77D-04
 ErrMax= 9.77D-04  0.00D+00 EMaxC= 1.00D+00 BMatC= 5.05D-05 BMatP= 1.38D-04
 IDIUse=1 WtCom= 1.00D+00 WtEn= 0.00D+00
 Coeff-Com: -0.131D-01 0.112D+00-0.122D+00-0.174D+00 0.857D+00-0.944D+00
 Coeff-Com:  0.164D+00-0.778D+00 0.190D+01
 Coeff:     -0.131D-01 0.112D+00-0.122D+00-0.174D+00 0.857D+00-0.944D+00
 Coeff:      0.164D+00-0.778D+00 0.190D+01
 Gap=     0.173 Goal=   None    Shift=    0.500
 Gap=     0.173 Goal=   None    Shift=    0.500
 RMSDP=5.75D-05 MaxDP=1.02D-03 DE=-7.11D-05 OVMax= 2.09D-03

 Cycle  10  Pass 1  IDiag  1:
 E= -193.549579352144     Delta-E=       -0.000026978055 Rises=F Damp=F
 DIIS: error= 6.08D-04 at cycle  10 NSaved=  10.
 NSaved=10 IEnMin=10 EnMin= -193.549579352144     IErMin=10 ErrMin= 6.08D-04
 ErrMax= 6.08D-04  0.00D+00 EMaxC= 1.00D+00 BMatC= 1.89D-05 BMatP= 5.05D-05
 IDIUse=1 WtCom= 1.00D+00 WtEn= 0.00D+00
 Coeff-Com: -0.660D-02 0.496D-01-0.475D-01-0.346D-01 0.138D+00-0.149D+00
 Coeff-Com:  0.441D+00-0.103D+01-0.593D+00 0.223D+01
 Coeff:     -0.660D-02 0.496D-01-0.475D-01-0.346D-01 0.138D+00-0.149D+00
 Coeff:      0.441D+00-0.103D+01-0.593D+00 0.223D+01
 Gap=     0.174 Goal=   None    Shift=    0.500
 Gap=     0.174 Goal=   None    Shift=    0.500
 RMSDP=3.58D-05 MaxDP=5.97D-04 DE=-2.70D-05 OVMax= 1.29D-03

 Cycle  11  Pass 1  IDiag  1:
 E= -193.549589332941     Delta-E=       -0.000009980797 Rises=F Damp=F
 DIIS: error= 3.83D-04 at cycle  11 NSaved=  11.
 NSaved=11 IEnMin=11 EnMin= -193.549589332941     IErMin=11 ErrMin= 3.83D-04
 ErrMax= 3.83D-04  0.00D+00 EMaxC= 1.00D+00 BMatC= 6.70D-06 BMatP= 1.89D-05
 IDIUse=1 WtCom= 1.00D+00 WtEn= 0.00D+00
 Coeff-Com: -0.352D-02 0.180D-01-0.239D-01 0.108D-01 0.703D-01-0.118D+00
 Coeff-Com:  0.126D+00 0.120D+00-0.585D+00-0.105D+01 0.244D+01
 Coeff:     -0.352D-02 0.180D-01-0.239D-01 0.108D-01 0.703D-01-0.118D+00
 Coeff:      0.126D+00 0.120D+00-0.585D+00-0.105D+01 0.244D+01
 Gap=     0.174 Goal=   None    Shift=    0.500
 Gap=     0.174 Goal=   None    Shift=    0.500
 RMSDP=2.11D-05 MaxDP=3.66D-04 DE=-9.98D-06 OVMax= 8.07D-04

 Cycle  12  Pass 1  IDiag  1:
 E= -193.549592861075     Delta-E=       -0.000003528134 Rises=F Damp=F
 DIIS: error= 2.41D-04 at cycle  12 NSaved=  12.
 NSaved=12 IEnMin=12 EnMin= -193.549592861075     IErMin=12 ErrMin= 2.41D-04
 ErrMax= 2.41D-04  0.00D+00 EMaxC= 1.00D+00 BMatC= 2.48D-06 BMatP= 6.70D-06
 IDIUse=1 WtCom= 1.00D+00 WtEn= 0.00D+00
 Coeff-Com: -0.173D-02 0.799D-02-0.610D-02-0.135D-01 0.647D-01-0.823D-01
 Coeff-Com:  0.455D-01-0.438D-02-0.492D-01 0.902D+00-0.356D+01 0.369D+01
 Coeff:     -0.173D-02 0.799D-02-0.610D-02-0.135D-01 0.647D-01-0.823D-01
 Coeff:      0.455D-01-0.438D-02-0.492D-01 0.902D+00-0.356D+01 0.369D+01
 Gap=     0.174 Goal=   None    Shift=    0.500
 Gap=     0.174 Goal=   None    Shift=    0.500
 RMSDP=1.28D-05 MaxDP=2.31D-04 DE=-3.53D-06 OVMax= 5.28D-04

 Cycle  13  Pass 1  IDiag  1:
 E= -193.549594192901     Delta-E=       -0.000001331825 Rises=F Damp=F
 DIIS: error= 1.46D-04 at cycle  13 NSaved=  13.
 NSaved=13 IEnMin=13 EnMin= -193.549594192901     IErMin=13 ErrMin= 1.46D-04
 ErrMax= 1.46D-04  0.00D+00 EMaxC= 1.00D+00 BMatC= 8.72D-07 BMatP= 2.48D-06
 IDIUse=1 WtCom= 1.00D+00 WtEn= 0.00D+00
 Coeff-Com: -0.651D-03 0.639D-02-0.759D-02 0.129D-02-0.349D-02 0.109D-01
 Coeff-Com:  0.275D-01-0.779D-01-0.330D-01-0.300D+00 0.212D+01-0.481D+01
 Coeff-Com:  0.406D+01
 Coeff:     -0.651D-03 0.639D-02-0.759D-02 0.129D-02-0.349D-02 0.109D-01
 Coeff:      0.275D-01-0.779D-01-0.330D-01-0.300D+00 0.212D+01-0.481D+01
 Coeff:      0.406D+01
 Gap=     0.174 Goal=   None    Shift=    0.500
 Gap=     0.174 Goal=   None    Shift=    0.500
 RMSDP=7.61D-06 MaxDP=1.44D-04 DE=-1.33D-06 OVMax= 3.22D-04

 Cycle  14  Pass 1  IDiag  1:
 E= -193.549594663899     Delta-E=       -0.000000470998 Rises=F Damp=F
 DIIS: error= 8.83D-05 at cycle  14 NSaved=  14.
 NSaved=14 IEnMin=14 EnMin= -193.549594663899     IErMin=14 ErrMin= 8.83D-05
 ErrMax= 8.83D-05  0.00D+00 EMaxC= 1.00D+00 BMatC= 2.96D-07 BMatP= 8.72D-07
 IDIUse=1 WtCom= 1.00D+00 WtEn= 0.00D+00
 Coeff-Com: -0.123D-03 0.243D-03 0.537D-03-0.289D-02 0.265D-02 0.143D-02
 Coeff-Com:  0.158D-01 0.431D-02-0.144D+00-0.483D-01 0.917D+00-0.115D+01
 Coeff-Com: -0.132D+01 0.272D+01
 Coeff:     -0.123D-03 0.243D-03 0.537D-03-0.289D-02 0.265D-02 0.143D-02
 Coeff:      0.158D-01 0.431D-02-0.144D+00-0.483D-01 0.917D+00-0.115D+01
 Coeff:     -0.132D+01 0.272D+01
 Gap=     0.174 Goal=   None    Shift=    0.500
 Gap=     0.174 Goal=   None    Shift=    0.500
 RMSDP=4.51D-06 MaxDP=8.84D-05 DE=-4.71D-07 OVMax= 1.97D-04

 Cycle  15  Pass 1  IDiag  1:
 E= -193.549594828658     Delta-E=       -0.000000164759 Rises=F Damp=F
 DIIS: error= 5.24D-05 at cycle  15 NSaved=  15.
 NSaved=15 IEnMin=15 EnMin= -193.549594828658     IErMin=15 ErrMin= 5.24D-05
 ErrMax= 5.24D-05  0.00D+00 EMaxC= 1.00D+00 BMatC= 9.77D-08 BMatP= 2.96D-07
 IDIUse=1 WtCom= 1.00D+00 WtEn= 0.00D+00
 Coeff-Com: -0.898D-05 0.155D-02-0.242D-02 0.143D-02 0.577D-03-0.160D-02
 Coeff-Com:  0.784D-02-0.614D-02-0.352D-01 0.208D-02 0.230D+00-0.481D+00
 Coeff-Com:  0.122D+01-0.360D+01 0.366D+01
 Coeff:     -0.898D-05 0.155D-02-0.242D-02 0.143D-02 0.577D-03-0.160D-02
 Coeff:      0.784D-02-0.614D-02-0.352D-01 0.208D-02 0.230D+00-0.481D+00
 Coeff:      0.122D+01-0.360D+01 0.366D+01
 Gap=     0.174 Goal=   None    Shift=    0.500
 Gap=     0.174 Goal=   None    Shift=    0.500
 RMSDP=2.60D-06 MaxDP=5.29D-05 DE=-1.65D-07 OVMax= 1.18D-04

 Cycle  16  Pass 1  IDiag  1:
 E= -193.549594884291     Delta-E=       -0.000000055632 Rises=F Damp=F
 DIIS: error= 3.09D-05 at cycle  16 NSaved=  16.
 NSaved=16 IEnMin=16 EnMin= -193.549594884291     IErMin=16 ErrMin= 3.09D-05
 ErrMax= 3.09D-05  0.00D+00 EMaxC= 1.00D+00 BMatC= 3.20D-08 BMatP= 9.77D-08
 IDIUse=1 WtCom= 1.00D+00 WtEn= 0.00D+00
 Coeff-Com:  0.732D-05 0.183D-03-0.174D-03-0.511D-03 0.410D-03 0.961D-03
 Coeff-Com:  0.169D-02 0.318D-02-0.209D-01-0.744D-01 0.372D+00-0.554D+00
 Coeff-Com:  0.986D-01 0.119D+01-0.345D+01 0.343D+01
 Coeff:      0.732D-05 0.183D-03-0.174D-03-0.511D-03 0.410D-03 0.961D-03
 Coeff:      0.169D-02 0.318D-02-0.209D-01-0.744D-01 0.372D+00-0.554D+00
 Coeff:      0.986D-01 0.119D+01-0.345D+01 0.343D+01
 Gap=     0.174 Goal=   None    Shift=    0.500
 Gap=     0.174 Goal=   None    Shift=    0.500
 RMSDP=1.48D-06 MaxDP=3.10D-05 DE=-5.56D-08 OVMax= 6.91D-05

 Cycle  17  Pass 1  IDiag  1:
 E= -193.549594902771     Delta-E=       -0.000000018481 Rises=F Damp=F
 DIIS: error= 1.81D-05 at cycle  17 NSaved=  17.
 NSaved=17 IEnMin=17 EnMin= -193.549594902771     IErMin=17 ErrMin= 1.81D-05
 ErrMax= 1.81D-05  0.00D+00 EMaxC= 1.00D+00 BMatC= 1.06D-08 BMatP= 3.20D-08
 IDIUse=1 WtCom= 1.00D+00 WtEn= 0.00D+00
 Coeff-Com:  0.148D-04-0.225D-03 0.363D-03-0.139D-03-0.954D-03 0.145D-02
 Coeff-Com: -0.438D-03 0.160D-02-0.864D-02 0.149D-01-0.771D-02 0.328D-01
 Coeff-Com: -0.924D-01-0.723D-01 0.128D+01-0.416D+01 0.401D+01
 Coeff:      0.148D-04-0.225D-03 0.363D-03-0.139D-03-0.954D-03 0.145D-02
 Coeff:     -0.438D-03 0.160D-02-0.864D-02 0.149D-01-0.771D-02 0.328D-01
 Coeff:     -0.924D-01-0.723D-01 0.128D+01-0.416D+01 0.401D+01
 Gap=     0.174 Goal=   None    Shift=    0.500
 Gap=     0.174 Goal=   None    Shift=    0.500
 RMSDP=8.55D-07 MaxDP=1.83D-05 DE=-1.85D-08 OVMax= 4.09D-05

 SCF Done:  E(ULC-wHPBE) =  -193.549594903     A.U. after   17 cycles
            NFock= 17  Conv=0.85D-06     -V/T= 2.0087
 <Sx>= 0.0000 <Sy>= 0.0000 <Sz>= 0.0000 <S**2>=-0.0000 S=-0.0000
 <L.S>= 0.000000000000E+00
 KE= 1.918871953117D+02 PE=-7.384198039746D+02 EE= 2.079611139670D+02
 Annihilation of the first spin contaminant:
 S**2 before annihilation    -0.0000,   after     0.0000
 Leave Link  502 at Tue Feb 25 12:19:47 2020, MaxMem=  6710886400 cpu:              25.6 elap:               1.6
 (Enter /opt/ohpc/pub/libs/gaussian/g16-A.03/haswell/g16/l508.exe)
 QCSCF skips out because SCF is already converged.
 Leave Link  508 at Tue Feb 25 12:19:47 2020, MaxMem=  6710886400 cpu:               0.0 elap:               0.0
 (Enter /opt/ohpc/pub/libs/gaussian/g16-A.03/haswell/g16/l601.exe)
 Copying SCF densities to generalized density rwf, IOpCl= 1 IROHF=0.

 **********************************************************************

            Population analysis using the SCF density.

 **********************************************************************

 Orbital symmetries:
 Alpha Orbitals:
       Occupied  (B2) (A1) (B2) (A1) (A1) (A1) (B2) (A1) (B2) (A1)
                 (A1) (B2) (B2) (A1) (B1) (A1) (A2) (B1)
       Virtual   (A1) (B2) (A2) (A1) (B1) (B2) (A1) (B2) (A1) (A1)
                 (B2) (A1) (B2) (B2) (B1) (A2) (B1) (A1) (A1) (B2)
                 (A1) (A2) (A1) (B1) (B2) (A1) (B2) (A1) (B2) (A1)
                 (A1) (A1) (B2) (A1) (B2) (B2) (A1) (A1) (B2)
 Beta  Orbitals:
       Occupied  (B2) (A1) (B2) (A1) (A1) (A1) (B2) (A1) (B2) (A1)
                 (A1) (B2) (B2) (A1) (B1) (A1) (A2) (B1)
       Virtual   (A1) (B2) (A2) (A1) (B1) (B2) (A1) (B2) (A1) (A1)
                 (B2) (A1) (B2) (B2) (B1) (A2) (B1) (A1) (A1) (B2)
                 (A1) (A2) (A1) (B1) (B2) (A1) (B2) (A1) (B2) (A1)
                 (A1) (A1) (B2) (A1) (B2) (B2) (A1) (A1) (B2)
 The electronic state is 1-A1.
 Alpha  occ. eigenvalues --  -10.10969 -10.10968 -10.06373 -10.06372 -10.00971
 Alpha  occ. eigenvalues --   -0.90315  -0.82582  -0.74779  -0.65817  -0.60173
 Alpha  occ. eigenvalues --   -0.58437  -0.51584  -0.47055  -0.44164  -0.42899
 Alpha  occ. eigenvalues --   -0.41845  -0.33698  -0.23819
 Alpha virt. eigenvalues --   -0.06417  -0.02120   0.08537   0.18740   0.19556
 Alpha virt. eigenvalues --    0.22535   0.26394   0.27321   0.28934   0.39777
 Alpha virt. eigenvalues --    0.40996   0.48955   0.50143   0.61139   0.61322
 Alpha virt. eigenvalues --    0.70038   0.70288   0.71108   0.72039   0.73821
 Alpha virt. eigenvalues --    0.74427   0.75944   0.79103   0.79562   0.80555
 Alpha virt. eigenvalues --    0.87493   0.92942   0.95016   0.97508   0.99455
 Alpha virt. eigenvalues --    1.04151   1.06726   1.09054   1.15000   1.21310
 Alpha virt. eigenvalues --    1.26702   1.30763   1.54459   1.55148
  Beta  occ. eigenvalues --  -10.10969 -10.10968 -10.06373 -10.06372 -10.00971
  Beta  occ. eigenvalues --   -0.90315  -0.82582  -0.74779  -0.65817  -0.60173
  Beta  occ. eigenvalues --   -0.58437  -0.51584  -0.47055  -0.44164  -0.42899
  Beta  occ. eigenvalues --   -0.41845  -0.33698  -0.23819
  Beta virt. eigenvalues --   -0.06417  -0.02120   0.08537   0.18740   0.19556
  Beta virt. eigenvalues --    0.22535   0.26394   0.27321   0.28934   0.39777
  Beta virt. eigenvalues --    0.40996   0.48955   0.50143   0.61139   0.61322
  Beta virt. eigenvalues --    0.70038   0.70288   0.71108   0.72039   0.73821
  Beta virt. eigenvalues --    0.74427   0.75944   0.79103   0.79562   0.80555
  Beta virt. eigenvalues --    0.87493   0.92942   0.95016   0.97508   0.99455
  Beta virt. eigenvalues --    1.04151   1.06726   1.09054   1.15000   1.21310
  Beta virt. eigenvalues --    1.26702   1.30763   1.54459   1.55148
          Condensed to atoms (all electrons):
               1          2          3          4          5          6
     1  C    5.286376   0.513952  -0.077587  -0.042401   0.148346   0.116319
     2  C    0.513952   4.899927   0.548711  -0.050985  -0.042401  -0.002650
     3  C   -0.077587   0.548711   4.874617   0.548711  -0.077587  -0.000469
     4  C   -0.042401  -0.050985   0.548711   4.899927   0.513952  -0.002650
     5  C    0.148346  -0.042401  -0.077587   0.513952   5.286376   0.116319
     6  H    0.116319  -0.002650  -0.000469  -0.002650   0.116319   0.659622
     7  H    0.352938  -0.036731   0.003000   0.000931  -0.003864  -0.008446
     8  H   -0.035555   0.357206  -0.013701   0.004548   0.000516   0.000203
     9  H    0.005828  -0.040586   0.371092  -0.040586   0.005828  -0.000004
    10  H    0.000516   0.004548  -0.013701   0.357206  -0.035555   0.000203
    11  H   -0.003864   0.000931   0.003000  -0.036731   0.352938  -0.008446
               7          8          9         10         11
     1  C    0.352938  -0.035555   0.005828   0.000516  -0.003864
     2  C   -0.036731   0.357206  -0.040586   0.004548   0.000931
     3  C    0.003000  -0.013701   0.371092  -0.013701   0.003000
     4  C    0.000931   0.004548  -0.040586   0.357206  -0.036731
     5  C   -0.003864   0.000516   0.005828  -0.035555   0.352938
     6  H   -0.008446   0.000203  -0.000004   0.000203  -0.008446
     7  H    0.512695   0.000969  -0.000159  -0.000012   0.000039
     8  H    0.000969   0.493373  -0.004391  -0.000103  -0.000012
     9  H   -0.000159  -0.004391   0.589032  -0.004391  -0.000159
    10  H   -0.000012  -0.000103  -0.004391   0.493373   0.000969
    11  H    0.000039  -0.000012  -0.000159   0.000969   0.512695
          Atomic-Atomic Spin Densities.
               1          2          3          4          5          6
     1  C    0.000000   0.000000   0.000000   0.000000   0.000000   0.000000
     2  C    0.000000   0.000000   0.000000   0.000000   0.000000   0.000000
     3  C    0.000000   0.000000   0.000000   0.000000   0.000000   0.000000
     4  C    0.000000   0.000000   0.000000   0.000000   0.000000   0.000000
     5  C    0.000000   0.000000   0.000000   0.000000   0.000000   0.000000
     6  H    0.000000   0.000000   0.000000   0.000000   0.000000   0.000000
     7  H    0.000000   0.000000   0.000000   0.000000   0.000000   0.000000
     8  H    0.000000   0.000000   0.000000   0.000000   0.000000   0.000000
     9  H    0.000000   0.000000   0.000000   0.000000   0.000000   0.000000
    10  H    0.000000   0.000000   0.000000   0.000000   0.000000   0.000000
    11  H    0.000000   0.000000   0.000000   0.000000   0.000000   0.000000
               7          8          9         10         11
     1  C    0.000000   0.000000   0.000000   0.000000   0.000000
     2  C    0.000000   0.000000   0.000000   0.000000   0.000000
     3  C    0.000000   0.000000   0.000000   0.000000   0.000000
     4  C    0.000000   0.000000   0.000000   0.000000   0.000000
     5  C    0.000000   0.000000   0.000000   0.000000   0.000000
     6  H    0.000000   0.000000   0.000000   0.000000   0.000000
     7  H    0.000000   0.000000   0.000000   0.000000   0.000000
     8  H    0.000000   0.000000   0.000000   0.000000   0.000000
     9  H    0.000000   0.000000   0.000000   0.000000   0.000000
    10  H    0.000000   0.000000   0.000000   0.000000   0.000000
    11  H    0.000000   0.000000   0.000000   0.000000   0.000000
 Mulliken charges and spin densities:
               1          2
     1  C   -0.264868   0.000000
     2  C   -0.151923   0.000000
     3  C   -0.166086   0.000000
     4  C   -0.151923   0.000000
     5  C   -0.264868   0.000000
     6  H    0.129999   0.000000
     7  H    0.178641   0.000000
     8  H    0.196947   0.000000
     9  H    0.118494   0.000000
    10  H    0.196947   0.000000
    11  H    0.178641   0.000000
 Sum of Mulliken charges =  -0.00000   0.00000
 Mulliken charges and spin densities with hydrogens summed into heavy atoms:
               1          2
     1  C    0.043772   0.000000
     2  C    0.045024   0.000000
     3  C   -0.047593   0.000000
     4  C    0.045024   0.000000
     5  C   -0.086227   0.000000
 Electronic spatial extent (au):  <R**2>=            395.7068
 Charge=             -0.0000 electrons
 Dipole moment (field-independent basis, Debye):
    X=             -0.0000    Y=              0.0000    Z=             -1.2297  Tot=              1.2297
 Quadrupole moment (field-independent basis, Debye-Ang):
   XX=            -36.6466   YY=            -23.4334   ZZ=            -24.1731
   XY=              0.0000   XZ=             -0.0000   YZ=             -0.0000
 Traceless Quadrupole moment (field-independent basis, Debye-Ang):
   XX=             -8.5622   YY=              4.6510   ZZ=              3.9113
   XY=              0.0000   XZ=             -0.0000   YZ=             -0.0000
 Octapole moment (field-independent basis, Debye-Ang**2):
  XXX=              0.0000  YYY=             -0.0000  ZZZ=            -11.6428  XYY=              0.0000
  XXY=              0.0000  XXZ=              2.6429  XZZ=              0.0000  YZZ=              0.0000
  YYZ=              1.5871  XYZ=             -0.0000
 Hexadecapole moment (field-independent basis, Debye-Ang**3):
 XXXX=            -39.9581 YYYY=           -235.5893 ZZZZ=           -178.7627 XXXY=             -0.0000
 XXXZ=             -0.0000 YYYX=             -0.0000 YYYZ=             -0.0000 ZZZX=             -0.0000
 ZZZY=              0.0000 XXYY=            -62.0784 XXZZ=            -52.7675 YYZZ=            -71.9436
 XXYZ=             -0.0000 YYXZ=             -0.0000 ZZXY=             -0.0000
 N-N= 1.450218997931D+02 E-N=-7.384195004179D+02  KE= 1.918871953117D+02
 Symmetry A1   KE= 1.102361111280D+02
 Symmetry A2   KE= 2.317343853526D+00
 Symmetry B1   KE= 4.313102345275D+00
 Symmetry B2   KE= 7.502063798488D+01
 Symmetry A1   SP= 0.000000000000D+00
 Symmetry A2   SP= 0.000000000000D+00
 Symmetry B1   SP= 0.000000000000D+00
 Symmetry B2   SP= 0.000000000000D+00
                          Isotropic Fermi Contact Couplings
        Atom                 a.u.       MegaHertz       Gauss      10(-4) cm-1
     1  C(13)              0.00000       0.00000       0.00000       0.00000
     2  C(13)              0.00000       0.00000       0.00000       0.00000
     3  C(13)              0.00000       0.00000       0.00000       0.00000
     4  C(13)              0.00000       0.00000       0.00000       0.00000
     5  C(13)              0.00000       0.00000       0.00000       0.00000
     6  H(1)               0.00000       0.00000       0.00000       0.00000
     7  H(1)               0.00000       0.00000       0.00000       0.00000
     8  H(1)               0.00000       0.00000       0.00000       0.00000
     9  H(1)               0.00000       0.00000       0.00000       0.00000
    10  H(1)               0.00000       0.00000       0.00000       0.00000
    11  H(1)               0.00000       0.00000       0.00000       0.00000
 --------------------------------------------------------
       Center         ----  Spin Dipole Couplings  ----
                      3XX-RR        3YY-RR        3ZZ-RR
 --------------------------------------------------------
     1   Atom        0.000000      0.000000      0.000000
     2   Atom        0.000000      0.000000      0.000000
     3   Atom        0.000000      0.000000      0.000000
     4   Atom        0.000000      0.000000      0.000000
     5   Atom        0.000000      0.000000      0.000000
     6   Atom        0.000000      0.000000      0.000000
     7   Atom        0.000000      0.000000      0.000000
     8   Atom        0.000000      0.000000      0.000000
     9   Atom        0.000000      0.000000      0.000000
    10   Atom        0.000000      0.000000      0.000000
    11   Atom        0.000000      0.000000      0.000000
 --------------------------------------------------------
                        XY            XZ            YZ
 --------------------------------------------------------
     1   Atom        0.000000      0.000000      0.000000
     2   Atom        0.000000      0.000000      0.000000
     3   Atom        0.000000      0.000000      0.000000
     4   Atom        0.000000      0.000000      0.000000
     5   Atom        0.000000      0.000000      0.000000
     6   Atom        0.000000      0.000000      0.000000
     7   Atom        0.000000      0.000000      0.000000
     8   Atom        0.000000      0.000000      0.000000
     9   Atom        0.000000      0.000000      0.000000
    10   Atom        0.000000      0.000000      0.000000
    11   Atom        0.000000      0.000000      0.000000
 --------------------------------------------------------


 ---------------------------------------------------------------------------------
              Anisotropic Spin Dipole Couplings in Principal Axis System
 ---------------------------------------------------------------------------------

       Atom             a.u.   MegaHertz   Gauss  10(-4) cm-1        Axes

              Baa     0.0000     0.000     0.000     0.000  1.0000  0.0000  0.0000
     1 C(13)  Bbb     0.0000     0.000     0.000     0.000 -0.0000  1.0000  0.0000
              Bcc     0.0000     0.000     0.000     0.000  0.0000  0.0000  1.0000
 
              Baa     0.0000     0.000     0.000     0.000  1.0000  0.0000  0.0000
     2 C(13)  Bbb     0.0000     0.000     0.000     0.000 -0.0000  1.0000  0.0000
              Bcc     0.0000     0.000     0.000     0.000  0.0000  0.0000  1.0000
 
              Baa     0.0000     0.000     0.000     0.000  1.0000  0.0000  0.0000
     3 C(13)  Bbb     0.0000     0.000     0.000     0.000 -0.0000  1.0000  0.0000
              Bcc     0.0000     0.000     0.000     0.000  0.0000  0.0000  1.0000
 
              Baa     0.0000     0.000     0.000     0.000  1.0000  0.0000  0.0000
     4 C(13)  Bbb     0.0000     0.000     0.000     0.000 -0.0000  1.0000  0.0000
              Bcc     0.0000     0.000     0.000     0.000  0.0000  0.0000  1.0000
 
              Baa     0.0000     0.000     0.000     0.000  1.0000  0.0000  0.0000
     5 C(13)  Bbb     0.0000     0.000     0.000     0.000 -0.0000  1.0000  0.0000
              Bcc     0.0000     0.000     0.000     0.000  0.0000  0.0000  1.0000
 
              Baa     0.0000     0.000     0.000     0.000  1.0000  0.0000  0.0000
     6 H(1)   Bbb     0.0000     0.000     0.000     0.000 -0.0000  1.0000  0.0000
              Bcc     0.0000     0.000     0.000     0.000  0.0000  0.0000  1.0000
 
              Baa     0.0000     0.000     0.000     0.000  1.0000  0.0000  0.0000
     7 H(1)   Bbb     0.0000     0.000     0.000     0.000 -0.0000  1.0000  0.0000
              Bcc     0.0000     0.000     0.000     0.000  0.0000  0.0000  1.0000
 
              Baa     0.0000     0.000     0.000     0.000  1.0000  0.0000  0.0000
     8 H(1)   Bbb     0.0000     0.000     0.000     0.000 -0.0000  1.0000  0.0000
              Bcc     0.0000     0.000     0.000     0.000  0.0000  0.0000  1.0000
 
              Baa     0.0000     0.000     0.000     0.000  1.0000  0.0000  0.0000
     9 H(1)   Bbb     0.0000     0.000     0.000     0.000 -0.0000  1.0000  0.0000
              Bcc     0.0000     0.000     0.000     0.000  0.0000  0.0000  1.0000
 
              Baa     0.0000     0.000     0.000     0.000  1.0000  0.0000  0.0000
    10 H(1)   Bbb     0.0000     0.000     0.000     0.000 -0.0000  1.0000  0.0000
              Bcc     0.0000     0.000     0.000     0.000  0.0000  0.0000  1.0000
 
              Baa     0.0000     0.000     0.000     0.000  1.0000  0.0000  0.0000
    11 H(1)   Bbb     0.0000     0.000     0.000     0.000 -0.0000  1.0000  0.0000
              Bcc     0.0000     0.000     0.000     0.000  0.0000  0.0000  1.0000
 

 ---------------------------------------------------------------------------------

 No NMR shielding tensors so no spin-rotation constants.
 Leave Link  601 at Tue Feb 25 12:19:47 2020, MaxMem=  6710886400 cpu:               3.0 elap:               0.2
 (Enter /opt/ohpc/pub/libs/gaussian/g16-A.03/haswell/g16/l9999.exe)

 Test job not archived.
 1\1\GINC-HASWELL008\SP\ULC-wHPBE\6-31G\C5H6\SMGO234\25-Feb-2020\0\\#P 
 uLC-wHPBE/6-31G iop(3/107=0280700000, 3/108=0280700000) scf=(conver=6,
 fermi,ndamp=35,noincfock,novaracc,vshift=500,xqc)\\H6 C5\\0,1\C,0,-1.2
 06512,0.69658,0.\C,0,-1.206512,-0.69658,0.\C,0,0.,-1.39316,0.\C,0,1.20
 6512,-0.69658,0.\C,0,1.206512,0.69658,0.\H,0,0.,2.482681,0.\H,0,-2.150
 065,1.24134,0.\H,0,-2.150065,-1.24134,0.\H,0,0.,-2.482681,0.\H,0,2.150
 065,-1.24134,0.\H,0,2.150065,1.24134,0.\\Version=ES64L-G16RevA.03\Stat
 e=1-A1\HF=-193.5495949\S2=0.\S2-1=0.\S2A=0.\RMSD=8.549e-07\Dipole=0.,0
 .4837969,0.\Quadrupole=3.4578752,2.9079233,-6.3657984,0.,0.,0.\PG=C02V
  [C2(H1C1H1),SGV(C4H4)]\\@


 ANYONE WHO IS NOT SHOCKED BY QUANTUM THEORY HAS
 NOT UNDERSTOOD IT. -- NIELS BOHR(1885-1962)
 Job cpu time:       0 days  0 hours  0 minutes 50.4 seconds.
 Elapsed time:       0 days  0 hours  0 minutes  3.5 seconds.
 File lengths (MBytes):  RWF=    272 Int=      0 D2E=      0 Chk=     32 Scr=     32
 Normal termination of Gaussian 16 at Tue Feb 25 12:19:47 2020.
