 Entering Gaussian System, Link 0=g16
 Input=a1b_tune_c0.gjf
 Output=a1b_tune_c0.log
 Initial command:
 /opt/ohpc/pub/libs/gaussian/g16-A.03/sandybridge/g16/l1.exe "/scratch/smgo234/Ocelot/test/a1b/tuning_a1b_acycle2/Gau-83883.inp" -scrdir="/scratch/smgo234/Ocelot/test/a1b/tuning_a1b_acycle2/"
 Entering Link 1 = /opt/ohpc/pub/libs/gaussian/g16-A.03/sandybridge/g16/l1.exe PID=     83884.
  
 Copyright (c) 1988,1990,1992,1993,1995,1998,2003,2009,2016,
            Gaussian, Inc.  All Rights Reserved.
  
 This is part of the Gaussian(R) 16 program.  It is based on
 the Gaussian(R) 09 system (copyright 2009, Gaussian, Inc.),
 the Gaussian(R) 03 system (copyright 2003, Gaussian, Inc.),
 the Gaussian(R) 98 system (copyright 1998, Gaussian, Inc.),
 the Gaussian(R) 94 system (copyright 1995, Gaussian, Inc.),
 the Gaussian 92(TM) system (copyright 1992, Gaussian, Inc.),
 the Gaussian 90(TM) system (copyright 1990, Gaussian, Inc.),
 the Gaussian 88(TM) system (copyright 1988, Gaussian, Inc.),
 the Gaussian 86(TM) system (copyright 1986, Carnegie Mellon
 University), and the Gaussian 82(TM) system (copyright 1983,
 Carnegie Mellon University). Gaussian is a federally registered
 trademark of Gaussian, Inc.
  
 This software contains proprietary and confidential information,
 including trade secrets, belonging to Gaussian, Inc.
  
 This software is provided under written license and may be
 used, copied, transmitted, or stored only in accord with that
 written license.
  
 The following legend is applicable only to US Government
 contracts under FAR:
  
                    RESTRICTED RIGHTS LEGEND
  
 Use, reproduction and disclosure by the US Government is
 subject to restrictions as set forth in subparagraphs (a)
 and (c) of the Commercial Computer Software - Restricted
 Rights clause in FAR 52.227-19.
  
 Gaussian, Inc.
 340 Quinnipiac St., Bldg. 40, Wallingford CT 06492
  
  
 ---------------------------------------------------------------
 Warning -- This program may not be used in any manner that
 competes with the business of Gaussian, Inc. or will provide
 assistance to any competitor of Gaussian, Inc.  The licensee
 of this program is prohibited from giving any competitor of
 Gaussian, Inc. access to this program.  By using this program,
 the user acknowledges that Gaussian, Inc. is engaged in the
 business of creating and licensing software in the field of
 computational chemistry and represents and warrants to the
 licensee that it is not a competitor of Gaussian, Inc. and that
 it will not use this program in any manner prohibited above.
 ---------------------------------------------------------------
  

 Cite this work as:
 Gaussian 16, Revision A.03,
 M. J. Frisch, G. W. Trucks, H. B. Schlegel, G. E. Scuseria, 
 M. A. Robb, J. R. Cheeseman, G. Scalmani, V. Barone, 
 G. A. Petersson, H. Nakatsuji, X. Li, M. Caricato, A. V. Marenich, 
 J. Bloino, B. G. Janesko, R. Gomperts, B. Mennucci, H. P. Hratchian, 
 J. V. Ortiz, A. F. Izmaylov, J. L. Sonnenberg, D. Williams-Young, 
 F. Ding, F. Lipparini, F. Egidi, J. Goings, B. Peng, A. Petrone, 
 T. Henderson, D. Ranasinghe, V. G. Zakrzewski, J. Gao, N. Rega, 
 G. Zheng, W. Liang, M. Hada, M. Ehara, K. Toyota, R. Fukuda, 
 J. Hasegawa, M. Ishida, T. Nakajima, Y. Honda, O. Kitao, H. Nakai, 
 T. Vreven, K. Throssell, J. A. Montgomery, Jr., J. E. Peralta, 
 F. Ogliaro, M. J. Bearpark, J. J. Heyd, E. N. Brothers, K. N. Kudin, 
 V. N. Staroverov, T. A. Keith, R. Kobayashi, J. Normand, 
 K. Raghavachari, A. P. Rendell, J. C. Burant, S. S. Iyengar, 
 J. Tomasi, M. Cossi, J. M. Millam, M. Klene, C. Adamo, R. Cammi, 
 J. W. Ochterski, R. L. Martin, K. Morokuma, O. Farkas, 
 J. B. Foresman, and D. J. Fox, Gaussian, Inc., Wallingford CT, 2016.
 
 ******************************************
 Gaussian 16:  EM64L-G16RevA.03 25-Dec-2016
                 5-Mar-2020 
 ******************************************
 %mem=50GB
 %nproc=16
 Will use up to   16 processors via shared memory.
 ----------------------------------------------------------------------
 #P uLC-wHPBE/6-31G iop(3/130=0195900000, 3/131=0195900000, 3/119=08041
 00000, 3/120=0804100000) scf=(conver=6,fermi,ndamp=35,noincfock,novara
 cc,vshift=500,xqc)
 ----------------------------------------------------------------------
 1/38=1,172=1/1;
 2/12=2,17=6,18=5,40=1/2;
 3/5=1,6=6,11=2,25=1,30=1,74=-71,116=2,119=804100000,120=804100000,130=195900000,131=195900000/1,2,3;
 4//1;
 5/5=100002,6=6,8=3,10=500,13=1,18=-1,22=13,38=1,93=35/2,8;
 6/7=2,8=2,9=2,10=2,28=1/1;
 99/5=1,9=1/99;
 Leave Link    1 at Thu Mar  5 12:53:56 2020, MaxMem=  6710886400 cpu:              19.9 elap:               1.3
 (Enter /opt/ohpc/pub/libs/gaussian/g16-A.03/sandybridge/g16/l101.exe)
 -----
 H6 C5
 -----
 Symbolic Z-matrix:
 Charge =  1 Multiplicity = 2
 C                     0.        0.8788   -0.93154 
 C                     0.        1.12816   0.42346 
 C                     0.        0.        1.24088 
 C                     0.       -1.12816   0.42346 
 C                     0.       -0.8788   -0.93154 
 H                     0.        0.       -1.73227 
 H                     0.        1.6083   -1.73405 
 H                     0.        2.15663   0.76567 
 H                     0.        0.        2.32078 
 H                     0.       -2.15663   0.76567 
 H                     0.       -1.6083   -1.73405 
 
 ITRead=  0  0  0  0  0  0  0  0  0  0  0
 MicOpt= -1 -1 -1 -1 -1 -1 -1 -1 -1 -1 -1
 NAtoms=     11 NQM=       11 NQMF=       0 NMMI=      0 NMMIF=      0
                NMic=       0 NMicF=      0.
                    Isotopes and Nuclear Properties:
 (Nuclear quadrupole moments (NQMom) in fm**2, nuclear magnetic moments (NMagM)
  in nuclear magnetons)

  Atom         1           2           3           4           5           6           7           8           9          10
 IAtWgt=          12          12          12          12          12           1           1           1           1           1
 AtmWgt=  12.0000000  12.0000000  12.0000000  12.0000000  12.0000000   1.0078250   1.0078250   1.0078250   1.0078250   1.0078250
 NucSpn=           0           0           0           0           0           1           1           1           1           1
 AtZEff=  -0.0000000  -0.0000000  -0.0000000  -0.0000000  -0.0000000  -0.0000000  -0.0000000  -0.0000000  -0.0000000  -0.0000000
 NQMom=    0.0000000   0.0000000   0.0000000   0.0000000   0.0000000   0.0000000   0.0000000   0.0000000   0.0000000   0.0000000
 NMagM=    0.0000000   0.0000000   0.0000000   0.0000000   0.0000000   2.7928460   2.7928460   2.7928460   2.7928460   2.7928460
 AtZNuc=   6.0000000   6.0000000   6.0000000   6.0000000   6.0000000   1.0000000   1.0000000   1.0000000   1.0000000   1.0000000

  Atom        11
 IAtWgt=           1
 AtmWgt=   1.0078250
 NucSpn=           1
 AtZEff=  -0.0000000
 NQMom=    0.0000000
 NMagM=    2.7928460
 AtZNuc=   1.0000000
 Leave Link  101 at Thu Mar  5 12:53:56 2020, MaxMem=  6710886400 cpu:               2.7 elap:               0.2
 (Enter /opt/ohpc/pub/libs/gaussian/g16-A.03/sandybridge/g16/l202.exe)
                          Input orientation:                          
 ---------------------------------------------------------------------
 Center     Atomic      Atomic             Coordinates (Angstroms)
 Number     Number       Type             X           Y           Z
 ---------------------------------------------------------------------
      1          6           0        0.000000    0.878804   -0.931542
      2          6           0        0.000000    1.128157    0.423457
      3          6           0        0.000000    0.000000    1.240879
      4          6           0        0.000000   -1.128157    0.423457
      5          6           0        0.000000   -0.878804   -0.931542
      6          1           0        0.000000    0.000000   -1.732269
      7          1           0        0.000000    1.608300   -1.734053
      8          1           0        0.000000    2.156626    0.765670
      9          1           0        0.000000    0.000000    2.320778
     10          1           0        0.000000   -2.156626    0.765670
     11          1           0        0.000000   -1.608300   -1.734053
 ---------------------------------------------------------------------
                    Distance matrix (angstroms):
                    1          2          3          4          5
     1  C    0.000000
     2  C    1.377752   0.000000
     3  C    2.343440   1.393168   0.000000
     4  C    2.421552   2.256314   1.393168   0.000000
     5  C    1.757608   2.421552   2.343440   1.377752   0.000000
     6  H    1.188890   2.433083   2.973148   2.433083   1.188890
     7  H    1.084522   2.210291   3.381841   3.484687   2.613371
     8  H    2.124466   1.083909   2.208361   3.302561   3.477695
     9  H    3.368959   2.207389   1.079899   2.207389   3.368959
    10  H    3.477695   3.302561   2.208361   1.083909   2.124466
    11  H    2.613371   3.484687   3.381841   2.210291   1.084522
                    6          7          8          9         10
     6  H    0.000000
     7  H    1.608301   0.000000
     8  H    3.300111   2.559155   0.000000
     9  H    4.053047   4.362142   2.658834   0.000000
    10  H    3.300111   4.519213   4.313252   2.658834   0.000000
    11  H    1.608301   3.216600   4.519213   4.362142   2.559155
                   11
    11  H    0.000000
 Stoichiometry    C5H6(1+,2)
 Framework group  C2V[C2(HCH),SGV(C4H4)]
 Deg. of freedom    10
 Full point group                 C2V     NOp   4
 Largest Abelian subgroup         C2V     NOp   4
 Largest concise Abelian subgroup C2      NOp   2
                         Standard orientation:                         
 ---------------------------------------------------------------------
 Center     Atomic      Atomic             Coordinates (Angstroms)
 Number     Number       Type             X           Y           Z
 ---------------------------------------------------------------------
      1          6           0        0.000000    0.878804   -0.931542
      2          6           0        0.000000    1.128157    0.423457
      3          6           0        0.000000   -0.000000    1.240879
      4          6           0       -0.000000   -1.128157    0.423457
      5          6           0       -0.000000   -0.878804   -0.931542
      6          1           0       -0.000000    0.000000   -1.732269
      7          1           0        0.000000    1.608300   -1.734053
      8          1           0        0.000000    2.156626    0.765670
      9          1           0        0.000000   -0.000000    2.320778
     10          1           0       -0.000000   -2.156626    0.765670
     11          1           0       -0.000000   -1.608300   -1.734053
 ---------------------------------------------------------------------
 Rotational constants (GHZ):           8.5259551           7.9375455           4.1106177
 Leave Link  202 at Thu Mar  5 12:53:56 2020, MaxMem=  6710886400 cpu:               0.2 elap:               0.0
 (Enter /opt/ohpc/pub/libs/gaussian/g16-A.03/sandybridge/g16/l301.exe)
 Standard basis: 6-31G (6D, 7F)
 Ernie: Thresh=  0.10000D-02 Tol=  0.10000D-05 Strict=F.
 There are    27 symmetry adapted cartesian basis functions of A1  symmetry.
 There are     4 symmetry adapted cartesian basis functions of A2  symmetry.
 There are     6 symmetry adapted cartesian basis functions of B1  symmetry.
 There are    20 symmetry adapted cartesian basis functions of B2  symmetry.
 There are    27 symmetry adapted basis functions of A1  symmetry.
 There are     4 symmetry adapted basis functions of A2  symmetry.
 There are     6 symmetry adapted basis functions of B1  symmetry.
 There are    20 symmetry adapted basis functions of B2  symmetry.
    57 basis functions,   134 primitive gaussians,    57 cartesian basis functions
    18 alpha electrons       17 beta electrons
       nuclear repulsion energy       156.0127424860 Hartrees.
 IExCor=33909 DFT=T Ex+Corr=LC-wHPBE ExCW=0 ScaHFX=  1.000000
 ScaDFX=  1.000000  1.000000  1.000000  1.000000 ScalE2=  1.000000  1.000000
 IRadAn=      5 IRanWt=     -1 IRanGd=            0 ICorTp=0 IEmpDi=  4
 HFx  wShort=  0.000000 wLong=  0.400000 cFull=  0.000000 cShort=  0.000000 cLong=  0.804100
 DFx  wShort=  0.000000 wLong=  0.400000 cFull=  0.000000 cShort=  1.000000 cLong=  0.804100
 NAtoms=   11 NActive=   11 NUniq=    7 SFac= 2.47D+00 NAtFMM=   60 NAOKFM=F Big=F
 Integral buffers will be    131072 words long.
 Raffenetti 2 integral format.
 Two-electron integral symmetry is turned on.
 Leave Link  301 at Thu Mar  5 12:53:56 2020, MaxMem=  6710886400 cpu:               0.9 elap:               0.1
 (Enter /opt/ohpc/pub/libs/gaussian/g16-A.03/sandybridge/g16/l302.exe)
 NPDir=0 NMtPBC=     1 NCelOv=     1 NCel=       1 NClECP=     1 NCelD=      1
         NCelK=      1 NCelE2=     1 NClLst=     1 CellRange=     0.0.
 One-electron integrals computed using PRISM.
 One-electron integral symmetry used in STVInt
 NBasis=    57 RedAO= T EigKep=  1.84D-03  NBF=    27     4     6    20
 NBsUse=    57 1.00D-06 EigRej= -1.00D+00 NBFU=    27     4     6    20
 Precomputing XC quadrature grid using
 IXCGrd= 4 IRadAn=           5 IRanWt=          -1 IRanGd=           0 AccXCQ= 0.00D+00.
 Generated NRdTot=       0 NPtTot=           0 NUsed=           0 NTot=          32
 NSgBfM=    57    57    57    57    57 MxSgAt=    11 MxSgA2=    11.
 Leave Link  302 at Thu Mar  5 12:53:57 2020, MaxMem=  6710886400 cpu:               2.0 elap:               0.1
 (Enter /opt/ohpc/pub/libs/gaussian/g16-A.03/sandybridge/g16/l303.exe)
 DipDrv:  MaxL=1.
 Leave Link  303 at Thu Mar  5 12:53:57 2020, MaxMem=  6710886400 cpu:               0.4 elap:               0.0
 (Enter /opt/ohpc/pub/libs/gaussian/g16-A.03/sandybridge/g16/l401.exe)
 ExpMin= 1.61D-01 ExpMax= 3.05D+03 ExpMxC= 4.57D+02 IAcc=3 IRadAn=         5 AccDes= 0.00D+00
 Harris functional with IExCor=33909 and IRadAn=       5 diagonalized for initial guess.
 HarFok:  IExCor=33909 AccDes= 0.00D+00 IRadAn=         5 IDoV= 1 UseB2=F ITyADJ=14
 ICtDFT=  3500011 ScaDFX=  1.000000  1.000000  1.000000  1.000000
 FoFCou: FMM=F IPFlag=           0 FMFlag=      100000 FMFlg1=           0
         NFxFlg=           0 DoJE=T BraDBF=F KetDBF=T FulRan=T
         wScrn=  0.000000 ICntrl=       500 IOpCl=  0 I1Cent=   200000004 NGrid=           0
         NMat0=    1 NMatS0=      1 NMatT0=    0 NMatD0=    1 NMtDS0=    0 NMtDT0=    0
 Petite list used in FoFCou.
 Harris En= -192.150794074459    
 JPrj=0 DoOrth=F DoCkMO=F.
 Initial guess orbital symmetries:
 Alpha Orbitals:
       Occupied  (A1) (B2) (A1) (B2) (A1) (A1) (A1) (B2) (A1) (B2)
                 (A1) (B2) (A1) (B2) (A1) (B1) (A2) (B1)
       Virtual   (A2) (B2) (B1) (A1) (A1) (B2) (A1) (B2) (A1) (B2)
                 (A1) (B2) (A1) (B2) (B1) (A1) (A2) (B1) (B2) (A1)
                 (A1) (A2) (B1) (B2) (B2) (A1) (B2) (A1) (A1) (B2)
                 (A1) (A1) (A1) (B2) (A1) (B2) (A1) (A1) (B2)
 Beta  Orbitals:
       Occupied  (A1) (B2) (A1) (B2) (A1) (A1) (A1) (B2) (A1) (B2)
                 (A1) (B2) (A1) (B2) (A1) (B1) (A2)
       Virtual   (B1) (A2) (B2) (B1) (A1) (A1) (B2) (A1) (B2) (A1)
                 (B2) (A1) (B2) (A1) (B2) (B1) (A1) (A2) (B1) (B2)
                 (A1) (A1) (A2) (B1) (B2) (B2) (A1) (B2) (A1) (A1)
                 (B2) (A1) (A1) (A1) (B2) (A1) (B2) (A1) (A1) (B2)
 The electronic state of the initial guess is 2-B1.
 Initial guess <Sx>= 0.0000 <Sy>= 0.0000 <Sz>= 0.5000 <S**2>= 0.7500 S= 0.5000
 Leave Link  401 at Thu Mar  5 12:53:57 2020, MaxMem=  6710886400 cpu:               3.3 elap:               0.2
 (Enter /opt/ohpc/pub/libs/gaussian/g16-A.03/sandybridge/g16/l502.exe)
 Keep R1 and R2 ints in memory in symmetry-blocked form, NReq=16815681.
 FoFCou: FMM=F IPFlag=           0 FMFlag=           0 FMFlg1=           0
         NFxFlg=           0 DoJE=F BraDBF=F KetDBF=F FulRan=T
         wScrn=  0.000000 ICntrl=       600 IOpCl=  0 I1Cent=           0 NGrid=           0
         NMat0=    1 NMatS0=   1653 NMatT0=    0 NMatD0=    1 NMtDS0=    0 NMtDT0=    0
 Petite list used in FoFCou.
 UHF open shell SCF:
 Using DIIS extrapolation, IDIIS=    10.
 NGot=  6710886400 LenX=  6710059561 LenY=  6710055871
 Requested convergence on RMS density matrix=1.00D-06 within  32 cycles.
 Requested convergence on MAX density matrix=1.00D-04.
 Requested convergence on             energy=1.00D-04.
 Virtual orbitals will be shifted by   0.500 hartree.
 No special actions if energy rises.
 Dynamic level shift is on during FON iterations.

 Cycle   1  Pass 1  IDiag  1:
 E= -197.563195178630    
 DIIS: error= 4.86D-02 at cycle   1 NSaved=   1.
 NSaved= 1 IEnMin= 1 EnMin= -197.563195178630     IErMin= 1 ErrMin= 4.86D-02
 ErrMax= 4.86D-02  0.00D+00 EMaxC= 1.00D+00 BMatC= 1.96D-01 BMatP= 1.96D-01
 IDIUse=1 WtCom= 1.00D+00 WtEn= 0.00D+00
 Coeff-Com:  0.100D+01
 Coeff:      0.100D+01
 Gap=     0.340 Goal=   None    Shift=    0.500
 T= 1786. Gap= 0.813 NK=0 IS=   19 IE=   57 IFin=   18
          NO(<0.9)=   0  NV(>0.1)=   0     18.00e < EF      0.00e >EF  Err=0.0D+00
 Gap=     0.216 Goal=   None    Shift=    0.500
 T= 1786. Gap= 0.719 NK=0 IS=   18 IE=   57 IFin=   17
          NO(<0.9)=   0  NV(>0.1)=   0     17.00e < EF      0.00e >EF  Err=0.0D+00
 GapD=    0.216 DampG=1.000 DampE=0.500 DampFc=0.5000 IDamp=-1.
 Damping current iteration by 5.00D-01
 RMSDP=6.98D-03 MaxDP=5.32D-02              OVMax= 1.05D-01

 Cycle   2  Pass 1  IDiag  1:
 E= -197.600793858141     Delta-E=       -0.037598679511 Rises=F Damp=T
 DIIS: error= 2.33D-02 at cycle   2 NSaved=   2.
 NSaved= 2 IEnMin= 2 EnMin= -197.600793858141     IErMin= 2 ErrMin= 2.33D-02
 ErrMax= 2.33D-02  0.00D+00 EMaxC= 1.00D+00 BMatC= 3.44D-02 BMatP= 1.96D-01
 IDIUse=1 WtCom= 1.00D+00 WtEn= 0.00D+00
 Coeff-Com: -0.542D+00 0.154D+01
 Coeff:     -0.542D+00 0.154D+01
 Gap=     0.409 Goal=   None    Shift=    0.500
 T= 1672. Gap= 0.895 NK=4 IS=   19 IE=   23 IFin=   18
          NO(<0.9)=   0  NV(>0.1)=   0     18.00e < EF      0.00e >EF  Err=0.0D+00
 Gap=     0.244 Goal=   None    Shift=    0.500
 T= 1672. Gap= 0.743 NK=4 IS=   18 IE=   23 IFin=   17
          NO(<0.9)=   0  NV(>0.1)=   0     17.00e < EF      0.00e >EF  Err=0.0D+00
 GapD=    0.244 DampG=1.000 DampE=0.500 DampFc=0.5000 IDamp=-1.
 Damping current iteration by 5.00D-01
 RMSDP=4.26D-03 MaxDP=3.30D-02 DE=-3.76D-02 OVMax= 1.77D-02

 Cycle   3  Pass 1  IDiag  1:
 E= -197.614215024614     Delta-E=       -0.013421166473 Rises=F Damp=T
 DIIS: error= 1.35D-02 at cycle   3 NSaved=   3.
 NSaved= 3 IEnMin= 3 EnMin= -197.614215024614     IErMin= 3 ErrMin= 1.35D-02
 ErrMax= 1.35D-02  0.00D+00 EMaxC= 1.00D+00 BMatC= 8.17D-03 BMatP= 3.44D-02
 IDIUse=1 WtCom= 1.00D+00 WtEn= 0.00D+00
 Coeff-Com:  0.322D+00-0.181D+01 0.249D+01
 Coeff:      0.322D+00-0.181D+01 0.249D+01
 Gap=     0.398 Goal=   None    Shift=    0.500
 T= 1465. Gap= 0.898 NK=0 IS=   19 IE=   57 IFin=   18
          NO(<0.9)=   0  NV(>0.1)=   0     18.00e < EF      0.00e >EF  Err=0.0D+00
 Gap=     0.249 Goal=   None    Shift=    0.500
 T= 1465. Gap= 0.749 NK=0 IS=   18 IE=   57 IFin=   17
          NO(<0.9)=   0  NV(>0.1)=   0     17.00e < EF      0.00e >EF  Err=0.0D+00
 GapD=    0.249 DampG=1.000 DampE=0.500 DampFc=0.5000 IDamp=-1.
 Damping current iteration by 5.00D-01
 RMSDP=2.40D-03 MaxDP=1.94D-02 DE=-1.34D-02 OVMax= 1.63D-02

 Cycle   4  Pass 1  IDiag  1:
 E= -197.620650711772     Delta-E=       -0.006435687158 Rises=F Damp=T
 DIIS: error= 8.71D-03 at cycle   4 NSaved=   4.
 NSaved= 4 IEnMin= 4 EnMin= -197.620650711772     IErMin= 4 ErrMin= 8.71D-03
 ErrMax= 8.71D-03  0.00D+00 EMaxC= 1.00D+00 BMatC= 2.88D-03 BMatP= 8.17D-03
 IDIUse=1 WtCom= 1.00D+00 WtEn= 0.00D+00
 Coeff-Com:  0.215D-01 0.744D+00-0.361D+01 0.384D+01
 Coeff:      0.215D-01 0.744D+00-0.361D+01 0.384D+01
 Gap=     0.403 Goal=   None    Shift=    0.500
 T= 1087. Gap= 0.903 NK=0 IS=   19 IE=   57 IFin=   18
          NO(<0.9)=   0  NV(>0.1)=   0     18.00e < EF      0.00e >EF  Err=0.0D+00
 Gap=     0.254 Goal=   None    Shift=    0.500
 T= 1087. Gap= 0.754 NK=0 IS=   18 IE=   57 IFin=   17
          NO(<0.9)=   0  NV(>0.1)=   0     17.00e < EF      0.00e >EF  Err=0.0D+00
 GapD=    0.254 DampG=1.000 DampE=1.000 DampFc=1.0000 IDamp=-1.
 RMSDP=1.53D-03 MaxDP=1.60D-02 DE=-6.44D-03 OVMax= 1.56D-02

 Cycle   5  Pass 1  IDiag  1:
 E= -197.628292730734     Delta-E=       -0.007642018962 Rises=F Damp=F
 DIIS: error= 4.19D-03 at cycle   5 NSaved=   5.
 NSaved= 5 IEnMin= 5 EnMin= -197.628292730734     IErMin= 5 ErrMin= 4.19D-03
 ErrMax= 4.19D-03  0.00D+00 EMaxC= 1.00D+00 BMatC= 4.79D-04 BMatP= 2.88D-03
 IDIUse=1 WtCom= 1.00D+00 WtEn= 0.00D+00
 Coeff-Com: -0.184D+00 0.931D+00-0.780D+00-0.889D+00 0.192D+01
 Coeff:     -0.184D+00 0.931D+00-0.780D+00-0.889D+00 0.192D+01
 Gap=     0.406 Goal=   None    Shift=    0.500
 T=  760. Gap= 0.906 NK=0 IS=   19 IE=   57 IFin=   18
          NO(<0.9)=   0  NV(>0.1)=   0     18.00e < EF      0.00e >EF  Err=0.0D+00
 Gap=     0.258 Goal=   None    Shift=    0.500
 T=  760. Gap= 0.759 NK=0 IS=   18 IE=   57 IFin=   17
          NO(<0.9)=   0  NV(>0.1)=   0     17.00e < EF      0.00e >EF  Err=0.0D+00
 GapD=    0.258 DampG=1.000 DampE=1.000 DampFc=1.0000 IDamp=-1.
 RMSDP=4.56D-04 MaxDP=7.32D-03 DE=-7.64D-03 OVMax= 1.57D-02

 Cycle   6  Pass 1  IDiag  1:
 E= -197.628988608645     Delta-E=       -0.000695877911 Rises=F Damp=F
 DIIS: error= 3.32D-03 at cycle   6 NSaved=   6.
 NSaved= 6 IEnMin= 6 EnMin= -197.628988608645     IErMin= 6 ErrMin= 3.32D-03
 ErrMax= 3.32D-03  0.00D+00 EMaxC= 1.00D+00 BMatC= 2.23D-04 BMatP= 4.79D-04
 IDIUse=1 WtCom= 1.00D+00 WtEn= 0.00D+00
 Coeff-Com: -0.165D-02-0.258D+00 0.805D+00-0.559D+00-0.167D+01 0.269D+01
 Coeff:     -0.165D-02-0.258D+00 0.805D+00-0.559D+00-0.167D+01 0.269D+01
 Gap=     0.409 Goal=   None    Shift=    0.500
 T=  468. Gap= 0.909 NK=0 IS=   19 IE=   57 IFin=   18
          NO(<0.9)=   0  NV(>0.1)=   0     18.00e < EF      0.00e >EF  Err=0.0D+00
 Gap=     0.261 Goal=   None    Shift=    0.500
 T=  468. Gap= 0.761 NK=0 IS=   18 IE=   57 IFin=   17
          NO(<0.9)=   0  NV(>0.1)=   0     17.00e < EF      0.00e >EF  Err=0.0D+00
 GapD=    0.261 DampG=1.000 DampE=1.000 DampFc=1.0000 IDamp=-1.
 RMSDP=3.68D-04 MaxDP=5.96D-03 DE=-6.96D-04 OVMax= 1.43D-02

 Cycle   7  Pass 1  IDiag  1:
 E= -197.629390842693     Delta-E=       -0.000402234048 Rises=F Damp=F
 DIIS: error= 2.46D-03 at cycle   7 NSaved=   7.
 NSaved= 7 IEnMin= 7 EnMin= -197.629390842693     IErMin= 7 ErrMin= 2.46D-03
 ErrMax= 2.46D-03  0.00D+00 EMaxC= 1.00D+00 BMatC= 1.03D-04 BMatP= 2.23D-04
 IDIUse=1 WtCom= 1.00D+00 WtEn= 0.00D+00
 Coeff-Com:  0.193D-01-0.888D-01-0.756D-01 0.366D+00-0.401D+00-0.106D+01
 Coeff-Com:  0.224D+01
 Coeff:      0.193D-01-0.888D-01-0.756D-01 0.366D+00-0.401D+00-0.106D+01
 Coeff:      0.224D+01
 Gap=     0.409 Goal=   None    Shift=    0.500
 T=  176. Gap= 0.909 NK=0 IS=   19 IE=   57 IFin=   18
          NO(<0.9)=   0  NV(>0.1)=   0     18.00e < EF      0.00e >EF  Err=0.0D+00
 Gap=     0.262 Goal=   None    Shift=    0.500
 T=  176. Gap= 0.762 NK=0 IS=   18 IE=   57 IFin=   17
          NO(<0.9)=   0  NV(>0.1)=   0     17.00e < EF      0.00e >EF  Err=0.0D+00
 GapD=    0.262 DampG=1.000 DampE=1.000 DampFc=1.0000 IDamp=-1.
 RMSDP=2.53D-04 MaxDP=3.76D-03 DE=-4.02D-04 OVMax= 1.08D-02

 Cycle   8  Pass 1  IDiag  1:
 E= -197.629576682982     Delta-E=       -0.000185840289 Rises=F Damp=F
 DIIS: error= 1.79D-03 at cycle   8 NSaved=   8.
 NSaved= 8 IEnMin= 8 EnMin= -197.629576682982     IErMin= 8 ErrMin= 1.79D-03
 ErrMax= 1.79D-03  0.00D+00 EMaxC= 1.00D+00 BMatC= 5.15D-05 BMatP= 1.03D-04
 IDIUse=1 WtCom= 1.00D+00 WtEn= 0.00D+00
 Coeff-Com: -0.929D-02 0.262D+00-0.772D+00 0.551D+00 0.132D+01-0.267D+01
 Coeff-Com: -0.112D+00 0.243D+01
 Coeff:     -0.929D-02 0.262D+00-0.772D+00 0.551D+00 0.132D+01-0.267D+01
 Coeff:     -0.112D+00 0.243D+01
 Gap=     0.410 Goal=   None    Shift=    0.500
 T=   10. Gap= 0.910 NK=0 IS=   19 IE=   57 IFin=   18
          NO(<0.9)=   0  NV(>0.1)=   0     18.00e < EF      0.00e >EF  Err=0.0D+00
 Gap=     0.263 Goal=   None    Shift=    0.500
 T=   10. Gap= 0.763 NK=0 IS=   18 IE=   57 IFin=   17
          NO(<0.9)=   0  NV(>0.1)=   0     17.00e < EF      0.00e >EF  Err=0.0D+00
 GapD=    0.263 DampG=1.000 DampE=1.000 DampFc=1.0000 IDamp=-1.
 RMSDP=2.10D-04 MaxDP=3.04D-03 DE=-1.86D-04 OVMax= 9.43D-03

 Cycle   9  Pass 1  IDiag  1:
 E= -197.629679195935     Delta-E=       -0.000102512953 Rises=F Damp=F
 DIIS: error= 1.23D-03 at cycle   9 NSaved=   9.
 NSaved= 9 IEnMin= 9 EnMin= -197.629679195935     IErMin= 9 ErrMin= 1.23D-03
 ErrMax= 1.23D-03  0.00D+00 EMaxC= 1.00D+00 BMatC= 2.32D-05 BMatP= 5.15D-05
 IDIUse=1 WtCom= 1.00D+00 WtEn= 0.00D+00
 Coeff-Com: -0.335D-02-0.129D+00 0.568D+00-0.590D+00-0.515D+00 0.209D+01
 Coeff-Com: -0.105D+01-0.352D+01 0.415D+01
 Coeff:     -0.335D-02-0.129D+00 0.568D+00-0.590D+00-0.515D+00 0.209D+01
 Coeff:     -0.105D+01-0.352D+01 0.415D+01
 Gap=     0.411 Goal=   None    Shift=    0.500
 Gap=     0.263 Goal=   None    Shift=    0.500
 GapD=    0.263 DampG=1.000 DampE=1.000 DampFc=1.0000 IDamp=-1.
 RMSDP=1.67D-04 MaxDP=2.58D-03 DE=-1.03D-04 OVMax= 8.03D-03

 Cycle  10  Pass 1  IDiag  1:
 E= -197.629731931892     Delta-E=       -0.000052735956 Rises=F Damp=F
 DIIS: error= 7.54D-04 at cycle  10 NSaved=  10.
 NSaved=10 IEnMin=10 EnMin= -197.629731931892     IErMin=10 ErrMin= 7.54D-04
 ErrMax= 7.54D-04  0.00D+00 EMaxC= 1.00D+00 BMatC= 9.24D-06 BMatP= 2.32D-05
 IDIUse=1 WtCom= 1.00D+00 WtEn= 0.00D+00
 Coeff-Com:  0.290D-02 0.287D-02-0.386D-01 0.476D-01 0.303D-01-0.175D+00
 Coeff-Com:  0.281D+00 0.131D+00-0.190D+01 0.262D+01
 Coeff:      0.290D-02 0.287D-02-0.386D-01 0.476D-01 0.303D-01-0.175D+00
 Coeff:      0.281D+00 0.131D+00-0.190D+01 0.262D+01
 Gap=     0.411 Goal=   None    Shift=    0.500
 Gap=     0.263 Goal=   None    Shift=    0.500
 RMSDP=9.93D-05 MaxDP=1.58D-03 DE=-5.27D-05 OVMax= 4.98D-03

 Cycle  11  Pass 1  IDiag  1:
 E= -197.629751600577     Delta-E=       -0.000019668685 Rises=F Damp=F
 DIIS: error= 4.65D-04 at cycle  11 NSaved=  11.
 NSaved=11 IEnMin=11 EnMin= -197.629751600577     IErMin=11 ErrMin= 4.65D-04
 ErrMax= 4.65D-04  0.00D+00 EMaxC= 1.00D+00 BMatC= 3.95D-06 BMatP= 9.24D-06
 IDIUse=1 WtCom= 1.00D+00 WtEn= 0.00D+00
 Coeff-Com: -0.197D-02-0.160D-01 0.109D+00-0.139D+00-0.122D-01 0.369D+00
 Coeff-Com: -0.444D+00-0.655D+00 0.298D+01-0.597D+01 0.478D+01
 Coeff:     -0.197D-02-0.160D-01 0.109D+00-0.139D+00-0.122D-01 0.369D+00
 Coeff:     -0.444D+00-0.655D+00 0.298D+01-0.597D+01 0.478D+01
 Gap=     0.411 Goal=   None    Shift=    0.500
 Gap=     0.263 Goal=   None    Shift=    0.500
 RMSDP=6.65D-05 MaxDP=1.01D-03 DE=-1.97D-05 OVMax= 3.40D-03

 Cycle  12  Pass 1  IDiag  1:
 E= -197.629759876776     Delta-E=       -0.000008276199 Rises=F Damp=F
 DIIS: error= 2.72D-04 at cycle  12 NSaved=  12.
 NSaved=12 IEnMin=12 EnMin= -197.629759876776     IErMin=12 ErrMin= 2.72D-04
 ErrMax= 2.72D-04  0.00D+00 EMaxC= 1.00D+00 BMatC= 1.46D-06 BMatP= 3.95D-06
 IDIUse=1 WtCom= 1.00D+00 WtEn= 0.00D+00
 Coeff-Com: -0.305D-03-0.210D-01 0.905D-01-0.938D-01-0.737D-01 0.304D+00
 Coeff-Com: -0.815D-01-0.618D+00 0.587D+00 0.557D+00-0.252D+01 0.287D+01
 Coeff:     -0.305D-03-0.210D-01 0.905D-01-0.938D-01-0.737D-01 0.304D+00
 Coeff:     -0.815D-01-0.618D+00 0.587D+00 0.557D+00-0.252D+01 0.287D+01
 Gap=     0.411 Goal=   None    Shift=    0.500
 Gap=     0.263 Goal=   None    Shift=    0.500
 RMSDP=4.02D-05 MaxDP=5.95D-04 DE=-8.28D-06 OVMax= 2.06D-03

 Cycle  13  Pass 1  IDiag  1:
 E= -197.629762865094     Delta-E=       -0.000002988318 Rises=F Damp=F
 DIIS: error= 1.57D-04 at cycle  13 NSaved=  13.
 NSaved=13 IEnMin=13 EnMin= -197.629762865094     IErMin=13 ErrMin= 1.57D-04
 ErrMax= 1.57D-04  0.00D+00 EMaxC= 1.00D+00 BMatC= 5.28D-07 BMatP= 1.46D-06
 IDIUse=1 WtCom= 1.00D+00 WtEn= 0.00D+00
 Coeff-Com:  0.444D-03 0.609D-02-0.231D-01 0.193D-01 0.433D-01-0.899D-01
 Coeff-Com: -0.416D-01 0.205D+00 0.207D+00-0.144D+01 0.301D+01-0.504D+01
 Coeff-Com:  0.414D+01
 Coeff:      0.444D-03 0.609D-02-0.231D-01 0.193D-01 0.433D-01-0.899D-01
 Coeff:     -0.416D-01 0.205D+00 0.207D+00-0.144D+01 0.301D+01-0.504D+01
 Coeff:      0.414D+01
 Gap=     0.411 Goal=   None    Shift=    0.500
 Gap=     0.263 Goal=   None    Shift=    0.500
 RMSDP=2.45D-05 MaxDP=3.69D-04 DE=-2.99D-06 OVMax= 1.27D-03

 Cycle  14  Pass 1  IDiag  1:
 E= -197.629763940191     Delta-E=       -0.000001075097 Rises=F Damp=F
 DIIS: error= 8.63D-05 at cycle  14 NSaved=  14.
 NSaved=14 IEnMin=14 EnMin= -197.629763940191     IErMin=14 ErrMin= 8.63D-05
 ErrMax= 8.63D-05  0.00D+00 EMaxC= 1.00D+00 BMatC= 1.94D-07 BMatP= 5.28D-07
 IDIUse=1 WtCom= 1.00D+00 WtEn= 0.00D+00
 Coeff-Com: -0.401D-04-0.561D-02 0.280D-01-0.327D-01-0.115D-01 0.780D-01
 Coeff-Com: -0.277D-01-0.180D+00 0.381D+00-0.468D+00-0.110D+00 0.157D+01
 Coeff-Com: -0.349D+01 0.327D+01
 Coeff:     -0.401D-04-0.561D-02 0.280D-01-0.327D-01-0.115D-01 0.780D-01
 Coeff:     -0.277D-01-0.180D+00 0.381D+00-0.468D+00-0.110D+00 0.157D+01
 Coeff:     -0.349D+01 0.327D+01
 Gap=     0.411 Goal=   None    Shift=    0.500
 Gap=     0.263 Goal=   None    Shift=    0.500
 RMSDP=1.43D-05 MaxDP=2.14D-04 DE=-1.08D-06 OVMax= 7.49D-04

 Cycle  15  Pass 1  IDiag  1:
 E= -197.629764305784     Delta-E=       -0.000000365593 Rises=F Damp=F
 DIIS: error= 4.70D-05 at cycle  15 NSaved=  15.
 NSaved=15 IEnMin=15 EnMin= -197.629764305784     IErMin=15 ErrMin= 4.70D-05
 ErrMax= 4.70D-05  0.00D+00 EMaxC= 1.00D+00 BMatC= 6.68D-08 BMatP= 1.94D-07
 IDIUse=1 WtCom= 1.00D+00 WtEn= 0.00D+00
 Coeff-Com:  0.665D-04 0.215D-02-0.116D-01 0.142D-01 0.429D-02-0.321D-01
 Coeff-Com:  0.132D-01 0.833D-01-0.177D+00 0.220D+00 0.530D-01-0.108D+01
 Coeff-Com:  0.280D+01-0.487D+01 0.397D+01
 Coeff:      0.665D-04 0.215D-02-0.116D-01 0.142D-01 0.429D-02-0.321D-01
 Coeff:      0.132D-01 0.833D-01-0.177D+00 0.220D+00 0.530D-01-0.108D+01
 Coeff:      0.280D+01-0.487D+01 0.397D+01
 Gap=     0.411 Goal=   None    Shift=    0.500
 Gap=     0.263 Goal=   None    Shift=    0.500
 RMSDP=8.10D-06 MaxDP=1.17D-04 DE=-3.66D-07 OVMax= 4.25D-04

 Cycle  16  Pass 1  IDiag  1:
 E= -197.629764422749     Delta-E=       -0.000000116965 Rises=F Damp=F
 DIIS: error= 2.49D-05 at cycle  16 NSaved=  16.
 NSaved=16 IEnMin=16 EnMin= -197.629764422749     IErMin=16 ErrMin= 2.49D-05
 ErrMax= 2.49D-05  0.00D+00 EMaxC= 1.00D+00 BMatC= 2.31D-08 BMatP= 6.68D-08
 IDIUse=1 WtCom= 1.00D+00 WtEn= 0.00D+00
 Coeff-Com:  0.793D-05 0.207D-03 0.148D-02-0.372D-02 0.707D-02-0.833D-02
 Coeff-Com:  0.341D-02-0.687D-02 0.782D-01-0.228D+00 0.295D+00-0.171D+00
 Coeff-Com: -0.469D+00 0.189D+01-0.385D+01 0.346D+01
 Coeff:      0.793D-05 0.207D-03 0.148D-02-0.372D-02 0.707D-02-0.833D-02
 Coeff:      0.341D-02-0.687D-02 0.782D-01-0.228D+00 0.295D+00-0.171D+00
 Coeff:     -0.469D+00 0.189D+01-0.385D+01 0.346D+01
 Gap=     0.411 Goal=   None    Shift=    0.500
 Gap=     0.263 Goal=   None    Shift=    0.500
 RMSDP=4.45D-06 MaxDP=6.19D-05 DE=-1.17D-07 OVMax= 2.34D-04

 Cycle  17  Pass 1  IDiag  1:
 E= -197.629764458945     Delta-E=       -0.000000036197 Rises=F Damp=F
 DIIS: error= 1.31D-05 at cycle  17 NSaved=  17.
 NSaved=17 IEnMin=17 EnMin= -197.629764458945     IErMin=17 ErrMin= 1.31D-05
 ErrMax= 1.31D-05  0.00D+00 EMaxC= 1.00D+00 BMatC= 7.78D-09 BMatP= 2.31D-08
 IDIUse=1 WtCom= 1.00D+00 WtEn= 0.00D+00
 Coeff-Com:  0.464D-04 0.773D-05-0.170D-02 0.309D-02-0.288D-02-0.799D-03
 Coeff-Com:  0.395D-02 0.105D-01-0.521D-01 0.116D+00-0.114D+00-0.480D-01
 Coeff-Com:  0.496D+00-0.143D+01 0.286D+01-0.468D+01 0.384D+01
 Coeff:      0.464D-04 0.773D-05-0.170D-02 0.309D-02-0.288D-02-0.799D-03
 Coeff:      0.395D-02 0.105D-01-0.521D-01 0.116D+00-0.114D+00-0.480D-01
 Coeff:      0.496D+00-0.143D+01 0.286D+01-0.468D+01 0.384D+01
 Gap=     0.411 Goal=   None    Shift=    0.500
 Gap=     0.263 Goal=   None    Shift=    0.500
 RMSDP=2.36D-06 MaxDP=3.17D-05 DE=-3.62D-08 OVMax= 1.25D-04

 Cycle  18  Pass 1  IDiag  1:
 E= -197.629764469828     Delta-E=       -0.000000010883 Rises=F Damp=F
 DIIS: error= 7.82D-06 at cycle  18 NSaved=  18.
 NSaved=18 IEnMin=18 EnMin= -197.629764469828     IErMin=18 ErrMin= 7.82D-06
 ErrMax= 7.82D-06  0.00D+00 EMaxC= 1.00D+00 BMatC= 2.53D-09 BMatP= 7.78D-09
 IDIUse=1 WtCom= 1.00D+00 WtEn= 0.00D+00
 Coeff-Com: -0.339D-05 0.413D-03-0.152D-02 0.140D-02 0.243D-02-0.792D-02
 Coeff-Com:  0.458D-02 0.924D-02-0.113D-01-0.639D-02 0.443D-01-0.108D+00
 Coeff-Com:  0.154D+00-0.902D-01-0.330D+00 0.142D+01-0.339D+01 0.332D+01
 Coeff:     -0.339D-05 0.413D-03-0.152D-02 0.140D-02 0.243D-02-0.792D-02
 Coeff:      0.458D-02 0.924D-02-0.113D-01-0.639D-02 0.443D-01-0.108D+00
 Coeff:      0.154D+00-0.902D-01-0.330D+00 0.142D+01-0.339D+01 0.332D+01
 Gap=     0.411 Goal=   None    Shift=    0.500
 Gap=     0.263 Goal=   None    Shift=    0.500
 RMSDP=1.22D-06 MaxDP=1.67D-05 DE=-1.09D-08 OVMax= 6.50D-05

 Cycle  19  Pass 1  IDiag  1:
 E= -197.629764473066     Delta-E=       -0.000000003238 Rises=F Damp=F
 DIIS: error= 4.67D-06 at cycle  19 NSaved=  19.
 NSaved=19 IEnMin=19 EnMin= -197.629764473066     IErMin=19 ErrMin= 4.67D-06
 ErrMax= 4.67D-06  0.00D+00 EMaxC= 1.00D+00 BMatC= 7.91D-10 BMatP= 2.53D-09
 IDIUse=1 WtCom= 1.00D+00 WtEn= 0.00D+00
 Coeff-Com:  0.353D-05 0.141D-03-0.577D-03 0.587D-03 0.554D-03-0.261D-02
 Coeff-Com:  0.233D-02 0.310D-02-0.810D-02 0.896D-02-0.301D-02-0.765D-02
 Coeff-Com:  0.152D-01-0.178D-01 0.573D-01-0.408D+00 0.129D+01-0.294D+01
 Coeff-Com:  0.301D+01
 Coeff:      0.353D-05 0.141D-03-0.577D-03 0.587D-03 0.554D-03-0.261D-02
 Coeff:      0.233D-02 0.310D-02-0.810D-02 0.896D-02-0.301D-02-0.765D-02
 Coeff:      0.152D-01-0.178D-01 0.573D-01-0.408D+00 0.129D+01-0.294D+01
 Coeff:      0.301D+01
 Gap=     0.411 Goal=   None    Shift=    0.500
 Gap=     0.263 Goal=   None    Shift=    0.500
 RMSDP=6.45D-07 MaxDP=8.92D-06 DE=-3.24D-09 OVMax= 3.43D-05

 SCF Done:  E(ULC-wHPBE) =  -197.629764473     A.U. after   19 cycles
            NFock= 19  Conv=0.65D-06     -V/T= 2.0240
 <Sx>= 0.0000 <Sy>= 0.0000 <Sz>= 0.5000 <S**2>= 0.8237 S= 0.5362
 <L.S>= 0.000000000000E+00
 KE= 1.929901375510D+02 PE=-7.527702091113D+02 EE= 2.061375646013D+02
 Annihilation of the first spin contaminant:
 S**2 before annihilation     0.8237,   after     0.7531
 Leave Link  502 at Thu Mar  5 12:53:59 2020, MaxMem=  6710886400 cpu:              29.3 elap:               1.9
 (Enter /opt/ohpc/pub/libs/gaussian/g16-A.03/sandybridge/g16/l508.exe)
 QCSCF skips out because SCF is already converged.
 Leave Link  508 at Thu Mar  5 12:53:59 2020, MaxMem=  6710886400 cpu:               0.0 elap:               0.0
 (Enter /opt/ohpc/pub/libs/gaussian/g16-A.03/sandybridge/g16/l601.exe)
 Copying SCF densities to generalized density rwf, IOpCl= 1 IROHF=0.

 **********************************************************************

            Population analysis using the SCF density.

 **********************************************************************

 Orbital symmetries:
 Alpha Orbitals:
       Occupied  (B2) (A1) (A1) (B2) (A1) (A1) (A1) (B2) (A1) (B2)
                 (A1) (B2) (A1) (A1) (B1) (B2) (A2) (B1)
       Virtual   (A2) (B2) (B1) (A1) (A1) (B2) (A1) (A1) (B2) (A1)
                 (B2) (A1) (B2) (B1) (B2) (B1) (A2) (A1) (A1) (B2)
                 (A1) (A2) (B1) (B2) (B2) (A1) (A1) (A1) (B2) (A1)
                 (B2) (A1) (A1) (B2) (A1) (B2) (A1) (A1) (B2)
 Beta  Orbitals:
       Occupied  (B2) (A1) (B2) (A1) (A1) (A1) (A1) (B2) (A1) (B2)
                 (A1) (B2) (A1) (A1) (B2) (B1) (A2)
       Virtual   (B1) (B2) (A2) (A1) (B1) (A1) (B2) (A1) (B2) (A1)
                 (A1) (B2) (A1) (B2) (B2) (B1) (A2) (A1) (B1) (A1)
                 (B2) (A1) (A2) (B1) (B2) (B2) (A1) (A1) (B2) (A1)
                 (B2) (A1) (A1) (A1) (B2) (A1) (B2) (A1) (A1) (B2)
 The electronic state is 2-B1.
 Alpha  occ. eigenvalues --  -10.48376 -10.48373 -10.43316 -10.42488 -10.42486
 Alpha  occ. eigenvalues --   -1.34947  -1.21964  -1.17021  -1.03138  -1.00848
 Alpha  occ. eigenvalues --   -0.96096  -0.86195  -0.83979  -0.82854  -0.81684
 Alpha  occ. eigenvalues --   -0.80497  -0.66750  -0.65753
 Alpha virt. eigenvalues --   -0.24681  -0.24134  -0.17651  -0.16976  -0.10245
 Alpha virt. eigenvalues --   -0.05502  -0.03491  -0.01075  -0.01044   0.09666
 Alpha virt. eigenvalues --    0.09988   0.20219   0.20545   0.28754   0.29690
 Alpha virt. eigenvalues --    0.36461   0.36994   0.37786   0.39722   0.40563
 Alpha virt. eigenvalues --    0.40908   0.44441   0.45921   0.53575   0.60392
 Alpha virt. eigenvalues --    0.62697   0.63759   0.66340   0.66411   0.72416
 Alpha virt. eigenvalues --    0.72606   0.76906   0.81116   0.87765   0.95831
 Alpha virt. eigenvalues --    0.96750   1.02645   1.24114   1.25638
  Beta  occ. eigenvalues --  -10.47735 -10.47729 -10.42842 -10.42841 -10.42321
  Beta  occ. eigenvalues --   -1.33608  -1.19969  -1.16811  -1.02017  -1.00092
  Beta  occ. eigenvalues --   -0.95854  -0.85926  -0.83716  -0.82290  -0.80359
  Beta  occ. eigenvalues --   -0.76941  -0.65346
  Beta virt. eigenvalues --   -0.39005  -0.22535  -0.21543  -0.16750  -0.14072
  Beta virt. eigenvalues --   -0.09817  -0.05230  -0.03296  -0.01130  -0.00405
  Beta virt. eigenvalues --    0.10159   0.10316   0.20630   0.20909   0.30109
  Beta virt. eigenvalues --    0.31252   0.38115   0.38368   0.39474   0.40082
  Beta virt. eigenvalues --    0.40917   0.42071   0.44982   0.47600   0.54160
  Beta virt. eigenvalues --    0.60830   0.63619   0.64235   0.66290   0.66802
  Beta virt. eigenvalues --    0.72887   0.73128   0.77732   0.81944   0.87723
  Beta virt. eigenvalues --    0.96308   0.97286   1.03874   1.25072   1.26518
          Condensed to atoms (all electrons):
               1          2          3          4          5          6
     1  C    5.377002   0.493936  -0.043357  -0.123120   0.177519   0.161886
     2  C    0.493936   4.970379   0.454889  -0.026471  -0.123120  -0.021238
     3  C   -0.043357   0.454889   4.895139   0.454889  -0.043357   0.007361
     4  C   -0.123120  -0.026471   0.454889   4.970379   0.493936  -0.021238
     5  C    0.177519  -0.123120  -0.043357   0.493936   5.377002   0.161886
     6  H    0.161886  -0.021238   0.007361  -0.021238   0.161886   0.346753
     7  H    0.335182   0.004855  -0.000435   0.003078  -0.014996  -0.009841
     8  H   -0.022856   0.360207  -0.011419   0.003706   0.000746   0.000328
     9  H    0.004728  -0.025543   0.362667  -0.025543   0.004728  -0.000030
    10  H    0.000746   0.003706  -0.011419   0.360207  -0.022856   0.000328
    11  H   -0.014996   0.003078  -0.000435   0.004855   0.335182  -0.009841
               7          8          9         10         11
     1  C    0.335182  -0.022856   0.004728   0.000746  -0.014996
     2  C    0.004855   0.360207  -0.025543   0.003706   0.003078
     3  C   -0.000435  -0.011419   0.362667  -0.011419  -0.000435
     4  C    0.003078   0.003706  -0.025543   0.360207   0.004855
     5  C   -0.014996   0.000746   0.004728  -0.022856   0.335182
     6  H   -0.009841   0.000328  -0.000030   0.000328  -0.009841
     7  H    0.337400   0.000182  -0.000048  -0.000015   0.000381
     8  H    0.000182   0.376049  -0.001065  -0.000076  -0.000015
     9  H   -0.000048  -0.001065   0.394583  -0.001065  -0.000048
    10  H   -0.000015  -0.000076  -0.001065   0.376049   0.000182
    11  H    0.000381  -0.000015  -0.000048   0.000182   0.337400
          Atomic-Atomic Spin Densities.
               1          2          3          4          5          6
     1  C    0.537798  -0.040645  -0.022493  -0.009556   0.020665  -0.004374
     2  C   -0.040645  -0.291464   0.027603   0.000354  -0.009556   0.000410
     3  C   -0.022493   0.027603   0.744292   0.027603  -0.022493   0.000200
     4  C   -0.009556   0.000354   0.027603  -0.291464  -0.040645   0.000410
     5  C    0.020665  -0.009556  -0.022493  -0.040645   0.537798  -0.004374
     6  H   -0.004374   0.000410   0.000200   0.000410  -0.004374  -0.016611
     7  H   -0.003237  -0.000573   0.000125  -0.000115   0.000175  -0.000117
     8  H   -0.000394   0.002197  -0.001105  -0.000142   0.000076   0.000027
     9  H   -0.000012  -0.000006  -0.001469  -0.000006  -0.000012  -0.000001
    10  H    0.000076  -0.000142  -0.001105   0.002197  -0.000394   0.000027
    11  H    0.000175  -0.000115   0.000125  -0.000573  -0.003237  -0.000117
               7          8          9         10         11
     1  C   -0.003237  -0.000394  -0.000012   0.000076   0.000175
     2  C   -0.000573   0.002197  -0.000006  -0.000142  -0.000115
     3  C    0.000125  -0.001105  -0.001469  -0.001105   0.000125
     4  C   -0.000115  -0.000142  -0.000006   0.002197  -0.000573
     5  C    0.000175   0.000076  -0.000012  -0.000394  -0.003237
     6  H   -0.000117   0.000027  -0.000001   0.000027  -0.000117
     7  H   -0.019651   0.000049   0.000004  -0.000000  -0.000077
     8  H    0.000049   0.008731   0.000007  -0.000000  -0.000000
     9  H    0.000004   0.000007  -0.029456   0.000007   0.000004
    10  H   -0.000000  -0.000000   0.000007   0.008731   0.000049
    11  H   -0.000077  -0.000000   0.000004   0.000049  -0.019651
 Mulliken charges and spin densities:
               1          2
     1  C   -0.346670   0.478002
     2  C   -0.094678  -0.311939
     3  C   -0.064524   0.751281
     4  C   -0.094678  -0.311939
     5  C   -0.346670   0.478002
     6  H    0.383647  -0.024523
     7  H    0.344256  -0.023418
     8  H    0.294213   0.009446
     9  H    0.286635  -0.030941
    10  H    0.294213   0.009446
    11  H    0.344256  -0.023418
 Sum of Mulliken charges =   1.00000   1.00000
 Mulliken charges and spin densities with hydrogens summed into heavy atoms:
               1          2
     1  C    0.381233   0.430061
     2  C    0.199535  -0.302493
     3  C    0.222111   0.720340
     4  C    0.199535  -0.302493
     5  C   -0.002414   0.454584
 Electronic spatial extent (au):  <R**2>=            317.5894
 Charge=              1.0000 electrons
 Dipole moment (field-independent basis, Debye):
    X=             -0.0000    Y=             -0.0000    Z=             -2.0537  Tot=              2.0537
 Quadrupole moment (field-independent basis, Debye-Ang):
   XX=            -30.7638   YY=            -16.8940   ZZ=            -12.5816
   XY=              0.0000   XZ=              0.0000   YZ=             -0.0000
 Traceless Quadrupole moment (field-independent basis, Debye-Ang):
   XX=            -10.6840   YY=              3.1858   ZZ=              7.4982
   XY=              0.0000   XZ=              0.0000   YZ=             -0.0000
 Octapole moment (field-independent basis, Debye-Ang**2):
  XXX=              0.0000  YYY=              0.0000  ZZZ=             -7.6127  XYY=             -0.0000
  XXY=              0.0000  XXZ=              0.6421  XZZ=              0.0000  YZZ=             -0.0000
  YYZ=             -2.7038  XYZ=             -0.0000
 Hexadecapole moment (field-independent basis, Debye-Ang**3):
 XXXX=            -30.1715 YYYY=           -139.1370 ZZZZ=           -120.1114 XXXY=             -0.0000
 XXXZ=             -0.0000 YYYX=             -0.0000 YYYZ=             -0.0000 ZZZX=              0.0000
 ZZZY=              0.0000 XXYY=            -41.2483 XXZZ=            -37.8701 YYZZ=            -40.9571
 XXYZ=             -0.0000 YYXZ=             -0.0000 ZZXY=             -0.0000
 N-N= 1.560127424860D+02 E-N=-7.527702141378D+02  KE= 1.929901375510D+02
 Symmetry A1   KE= 1.114960115896D+02
 Symmetry A2   KE= 2.566606103879D+00
 Symmetry B1   KE= 3.311038288448D+00
 Symmetry B2   KE= 7.561648156907D+01
 Symmetry A1   SP= 8.365534556309D-15
 Symmetry A2   SP=-3.489287851710D-15
 Symmetry B1   SP= 1.000000000000D+00
 Symmetry B2   SP= 1.227289754199D-15
                          Isotropic Fermi Contact Couplings
        Atom                 a.u.       MegaHertz       Gauss      10(-4) cm-1
     1  C(13)              0.07806      87.75377      31.31273      29.27151
     2  C(13)             -0.05571     -62.62730     -22.34698     -20.89022
     3  C(13)              0.11383     127.96829      45.66227      42.68563
     4  C(13)             -0.05571     -62.62730     -22.34698     -20.89022
     5  C(13)              0.07806      87.75377      31.31273      29.27151
     6  H(1)              -0.00938     -41.91277     -14.95552     -13.98060
     7  H(1)              -0.01026     -45.84245     -16.35772     -15.29139
     8  H(1)               0.00388      17.32140       6.18071       5.77780
     9  H(1)              -0.01429     -63.88184     -22.79463     -21.30869
    10  H(1)               0.00388      17.32140       6.18071       5.77780
    11  H(1)              -0.01026     -45.84245     -16.35772     -15.29139
 --------------------------------------------------------
       Center         ----  Spin Dipole Couplings  ----
                      3XX-RR        3YY-RR        3ZZ-RR
 --------------------------------------------------------
     1   Atom        0.501153     -0.244065     -0.257087
     2   Atom       -0.210818      0.103284      0.107534
     3   Atom        0.713725     -0.364851     -0.348873
     4   Atom       -0.210818      0.103284      0.107534
     5   Atom        0.501153     -0.244065     -0.257087
     6   Atom       -0.008573      0.008435      0.000139
     7   Atom       -0.006778      0.007074     -0.000296
     8   Atom       -0.006132     -0.002032      0.008164
     9   Atom       -0.008632     -0.046380      0.055012
    10   Atom       -0.006132     -0.002032      0.008164
    11   Atom       -0.006778      0.007074     -0.000296
 --------------------------------------------------------
                        XY            XZ            YZ
 --------------------------------------------------------
     1   Atom       -0.000000      0.000000     -0.008424
     2   Atom       -0.000000      0.000000     -0.005101
     3   Atom       -0.000000     -0.000000      0.000000
     4   Atom       -0.000000     -0.000000      0.005101
     5   Atom        0.000000      0.000000      0.008424
     6   Atom       -0.000000      0.000000     -0.000000
     7   Atom        0.000000      0.000000     -0.036209
     8   Atom       -0.000000      0.000000     -0.006726
     9   Atom       -0.000000     -0.000000      0.000000
    10   Atom        0.000000     -0.000000      0.006726
    11   Atom       -0.000000     -0.000000      0.036209
 --------------------------------------------------------


 ---------------------------------------------------------------------------------
              Anisotropic Spin Dipole Couplings in Principal Axis System
 ---------------------------------------------------------------------------------

       Atom             a.u.   MegaHertz   Gauss  10(-4) cm-1        Axes

              Baa    -0.2612   -35.054   -12.508   -11.693 -0.0000  0.4407  0.8977
     1 C(13)  Bbb    -0.2399   -32.196   -11.488   -10.740 -0.0000  0.8977 -0.4407
              Bcc     0.5012    67.250    23.996    22.432  1.0000  0.0000  0.0000
 
              Baa    -0.2108   -28.290   -10.094    -9.436  1.0000  0.0000  0.0000
     2 C(13)  Bbb     0.0999    13.403     4.783     4.471 -0.0000  0.8320  0.5547
              Bcc     0.1109    14.886     5.312     4.966  0.0000 -0.5547  0.8320
 
              Baa    -0.3649   -48.960   -17.470   -16.331  0.0000  1.0000  0.0000
     3 C(13)  Bbb    -0.3489   -46.815   -16.705   -15.616  0.0000  0.0000  1.0000
              Bcc     0.7137    95.775    34.175    31.947  1.0000  0.0000  0.0000
 
              Baa    -0.2108   -28.290   -10.094    -9.436  1.0000  0.0000  0.0000
     4 C(13)  Bbb     0.0999    13.403     4.783     4.471 -0.0000  0.8320 -0.5547
              Bcc     0.1109    14.886     5.312     4.966 -0.0000  0.5547  0.8320
 
              Baa    -0.2612   -35.054   -12.508   -11.693 -0.0000 -0.4407  0.8977
     5 C(13)  Bbb    -0.2399   -32.196   -11.488   -10.740  0.0000  0.8977  0.4407
              Bcc     0.5012    67.250    23.996    22.432  1.0000 -0.0000  0.0000
 
              Baa    -0.0086    -4.574    -1.632    -1.526  1.0000 -0.0000 -0.0000
     6 H(1)   Bbb     0.0001     0.074     0.026     0.025  0.0000  0.0000  1.0000
              Bcc     0.0084     4.500     1.606     1.501 -0.0000  1.0000 -0.0000
 
              Baa    -0.0330   -17.611    -6.284    -5.874 -0.0000  0.6704  0.7420
     7 H(1)   Bbb    -0.0068    -3.617    -1.291    -1.206  1.0000  0.0000  0.0000
              Bcc     0.0398    21.227     7.574     7.081 -0.0000  0.7420 -0.6704
 
              Baa    -0.0061    -3.272    -1.168    -1.091  1.0000  0.0000  0.0000
     8 H(1)   Bbb    -0.0054    -2.867    -1.023    -0.956 -0.0000  0.8956  0.4449
              Bcc     0.0115     6.139     2.191     2.048  0.0000 -0.4449  0.8956
 
              Baa    -0.0464   -24.746    -8.830    -8.254 -0.0000  1.0000 -0.0000
     9 H(1)   Bbb    -0.0086    -4.605    -1.643    -1.536  1.0000 -0.0000  0.0000
              Bcc     0.0550    29.352    10.473     9.791  0.0000  0.0000  1.0000
 
              Baa    -0.0061    -3.272    -1.168    -1.091  1.0000 -0.0000  0.0000
    10 H(1)   Bbb    -0.0054    -2.867    -1.023    -0.956  0.0000  0.8956 -0.4449
              Bcc     0.0115     6.139     2.191     2.048  0.0000  0.4449  0.8956
 
              Baa    -0.0330   -17.611    -6.284    -5.874  0.0000 -0.6704  0.7420
    11 H(1)   Bbb    -0.0068    -3.617    -1.291    -1.206  1.0000  0.0000  0.0000
              Bcc     0.0398    21.227     7.574     7.081 -0.0000  0.7420  0.6704
 

 ---------------------------------------------------------------------------------

 No NMR shielding tensors so no spin-rotation constants.
 Leave Link  601 at Thu Mar  5 12:53:59 2020, MaxMem=  6710886400 cpu:               3.1 elap:               0.2
 (Enter /opt/ohpc/pub/libs/gaussian/g16-A.03/sandybridge/g16/l9999.exe)

 Test job not archived.
 1\1\GINC-CNODE212\SP\ULC-wHPBE\6-31G\C5H6(1+,2)\SMGO234\05-Mar-2020\0\
 \#P uLC-wHPBE/6-31G iop(3/130=0195900000, 3/131=0195900000, 3/119=0804
 100000, 3/120=0804100000) scf=(conver=6,fermi,ndamp=35,noincfock,novar
 acc,vshift=500,xqc)\\H6 C5\\1,2\C,0,0.,0.878804,-0.931542\C,0,0.,1.128
 157,0.423457\C,0,0.,0.,1.240879\C,0,0.,-1.128157,0.423457\C,0,0.,-0.87
 8804,-0.931542\H,0,0.,0.,-1.732269\H,0,0.,1.6083,-1.734053\H,0,0.,2.15
 6626,0.76567\H,0,0.,0.,2.320778\H,0,0.,-2.156626,0.76567\H,0,0.,-1.608
 3,-1.734053\\Version=EM64L-G16RevA.03\State=2-B1\HF=-197.6297645\S2=0.
 823741\S2-1=0.\S2A=0.753066\RMSD=6.454e-07\Dipole=0.,0.,-0.8079902\Qua
 drupole=-7.9432902,2.368564,5.5747261,0.,0.,0.\PG=C02V [C2(H1C1H1),SGV
 (C4H4)]\\@


 HE THAT IS UNAWARE OF HIS IGNORANCE WILL BE MISLED BY HIS KNOWLEDGE.

                                        -- WHATLEY
 Job cpu time:       0 days  0 hours  1 minutes  4.2 seconds.
 Elapsed time:       0 days  0 hours  0 minutes  4.3 seconds.
 File lengths (MBytes):  RWF=    272 Int=      0 D2E=      0 Chk=     32 Scr=     32
 Normal termination of Gaussian 16 at Thu Mar  5 12:53:59 2020.
