 Entering Gaussian System, Link 0=g16
 Input=a1b_tune_n1.gjf
 Output=a1b_tune_n1.log
 Initial command:
 /opt/ohpc/pub/libs/gaussian/g16-A.03/sandybridge/g16/l1.exe "/scratch/smgo234/Ocelot/test/a1b/tuning_a1b_acycle2/Gau-84053.inp" -scrdir="/scratch/smgo234/Ocelot/test/a1b/tuning_a1b_acycle2/"
 Entering Link 1 = /opt/ohpc/pub/libs/gaussian/g16-A.03/sandybridge/g16/l1.exe PID=     84054.
  
 Copyright (c) 1988,1990,1992,1993,1995,1998,2003,2009,2016,
            Gaussian, Inc.  All Rights Reserved.
  
 This is part of the Gaussian(R) 16 program.  It is based on
 the Gaussian(R) 09 system (copyright 2009, Gaussian, Inc.),
 the Gaussian(R) 03 system (copyright 2003, Gaussian, Inc.),
 the Gaussian(R) 98 system (copyright 1998, Gaussian, Inc.),
 the Gaussian(R) 94 system (copyright 1995, Gaussian, Inc.),
 the Gaussian 92(TM) system (copyright 1992, Gaussian, Inc.),
 the Gaussian 90(TM) system (copyright 1990, Gaussian, Inc.),
 the Gaussian 88(TM) system (copyright 1988, Gaussian, Inc.),
 the Gaussian 86(TM) system (copyright 1986, Carnegie Mellon
 University), and the Gaussian 82(TM) system (copyright 1983,
 Carnegie Mellon University). Gaussian is a federally registered
 trademark of Gaussian, Inc.
  
 This software contains proprietary and confidential information,
 including trade secrets, belonging to Gaussian, Inc.
  
 This software is provided under written license and may be
 used, copied, transmitted, or stored only in accord with that
 written license.
  
 The following legend is applicable only to US Government
 contracts under FAR:
  
                    RESTRICTED RIGHTS LEGEND
  
 Use, reproduction and disclosure by the US Government is
 subject to restrictions as set forth in subparagraphs (a)
 and (c) of the Commercial Computer Software - Restricted
 Rights clause in FAR 52.227-19.
  
 Gaussian, Inc.
 340 Quinnipiac St., Bldg. 40, Wallingford CT 06492
  
  
 ---------------------------------------------------------------
 Warning -- This program may not be used in any manner that
 competes with the business of Gaussian, Inc. or will provide
 assistance to any competitor of Gaussian, Inc.  The licensee
 of this program is prohibited from giving any competitor of
 Gaussian, Inc. access to this program.  By using this program,
 the user acknowledges that Gaussian, Inc. is engaged in the
 business of creating and licensing software in the field of
 computational chemistry and represents and warrants to the
 licensee that it is not a competitor of Gaussian, Inc. and that
 it will not use this program in any manner prohibited above.
 ---------------------------------------------------------------
  

 Cite this work as:
 Gaussian 16, Revision A.03,
 M. J. Frisch, G. W. Trucks, H. B. Schlegel, G. E. Scuseria, 
 M. A. Robb, J. R. Cheeseman, G. Scalmani, V. Barone, 
 G. A. Petersson, H. Nakatsuji, X. Li, M. Caricato, A. V. Marenich, 
 J. Bloino, B. G. Janesko, R. Gomperts, B. Mennucci, H. P. Hratchian, 
 J. V. Ortiz, A. F. Izmaylov, J. L. Sonnenberg, D. Williams-Young, 
 F. Ding, F. Lipparini, F. Egidi, J. Goings, B. Peng, A. Petrone, 
 T. Henderson, D. Ranasinghe, V. G. Zakrzewski, J. Gao, N. Rega, 
 G. Zheng, W. Liang, M. Hada, M. Ehara, K. Toyota, R. Fukuda, 
 J. Hasegawa, M. Ishida, T. Nakajima, Y. Honda, O. Kitao, H. Nakai, 
 T. Vreven, K. Throssell, J. A. Montgomery, Jr., J. E. Peralta, 
 F. Ogliaro, M. J. Bearpark, J. J. Heyd, E. N. Brothers, K. N. Kudin, 
 V. N. Staroverov, T. A. Keith, R. Kobayashi, J. Normand, 
 K. Raghavachari, A. P. Rendell, J. C. Burant, S. S. Iyengar, 
 J. Tomasi, M. Cossi, J. M. Millam, M. Klene, C. Adamo, R. Cammi, 
 J. W. Ochterski, R. L. Martin, K. Morokuma, O. Farkas, 
 J. B. Foresman, and D. J. Fox, Gaussian, Inc., Wallingford CT, 2016.
 
 ******************************************
 Gaussian 16:  EM64L-G16RevA.03 25-Dec-2016
                 5-Mar-2020 
 ******************************************
 %mem=50GB
 %nproc=16
 Will use up to   16 processors via shared memory.
 ----------------------------------------------------------------------
 #P uLC-wHPBE/6-31G iop(3/130=0290300000, 3/131=0290300000, 3/119=07097
 00000, 3/120=0709700000) scf=(conver=6,fermi,ndamp=35,noincfock,novara
 cc,vshift=500,xqc)
 ----------------------------------------------------------------------
 1/38=1,172=1/1;
 2/12=2,17=6,18=5,40=1/2;
 3/5=1,6=6,11=2,25=1,30=1,74=-71,116=2,119=709700000,120=709700000,130=290300000,131=290300000/1,2,3;
 4//1;
 5/5=100002,6=6,8=3,10=500,13=1,18=-1,22=13,38=1,93=35/2,8;
 6/7=2,8=2,9=2,10=2,28=1/1;
 99/5=1,9=1/99;
 Leave Link    1 at Thu Mar  5 12:54:00 2020, MaxMem=  6710886400 cpu:              15.2 elap:               1.0
 (Enter /opt/ohpc/pub/libs/gaussian/g16-A.03/sandybridge/g16/l101.exe)
 -----
 H6 C5
 -----
 Symbolic Z-matrix:
 Charge =  0 Multiplicity = 1
 C                     0.        0.8788   -0.93154 
 C                     0.        1.12816   0.42346 
 C                     0.        0.        1.24088 
 C                     0.       -1.12816   0.42346 
 C                     0.       -0.8788   -0.93154 
 H                     0.        0.       -1.73227 
 H                     0.        1.6083   -1.73405 
 H                     0.        2.15663   0.76567 
 H                     0.        0.        2.32078 
 H                     0.       -2.15663   0.76567 
 H                     0.       -1.6083   -1.73405 
 
 ITRead=  0  0  0  0  0  0  0  0  0  0  0
 MicOpt= -1 -1 -1 -1 -1 -1 -1 -1 -1 -1 -1
 NAtoms=     11 NQM=       11 NQMF=       0 NMMI=      0 NMMIF=      0
                NMic=       0 NMicF=      0.
                    Isotopes and Nuclear Properties:
 (Nuclear quadrupole moments (NQMom) in fm**2, nuclear magnetic moments (NMagM)
  in nuclear magnetons)

  Atom         1           2           3           4           5           6           7           8           9          10
 IAtWgt=          12          12          12          12          12           1           1           1           1           1
 AtmWgt=  12.0000000  12.0000000  12.0000000  12.0000000  12.0000000   1.0078250   1.0078250   1.0078250   1.0078250   1.0078250
 NucSpn=           0           0           0           0           0           1           1           1           1           1
 AtZEff=  -0.0000000  -0.0000000  -0.0000000  -0.0000000  -0.0000000  -0.0000000  -0.0000000  -0.0000000  -0.0000000  -0.0000000
 NQMom=    0.0000000   0.0000000   0.0000000   0.0000000   0.0000000   0.0000000   0.0000000   0.0000000   0.0000000   0.0000000
 NMagM=    0.0000000   0.0000000   0.0000000   0.0000000   0.0000000   2.7928460   2.7928460   2.7928460   2.7928460   2.7928460
 AtZNuc=   6.0000000   6.0000000   6.0000000   6.0000000   6.0000000   1.0000000   1.0000000   1.0000000   1.0000000   1.0000000

  Atom        11
 IAtWgt=           1
 AtmWgt=   1.0078250
 NucSpn=           1
 AtZEff=  -0.0000000
 NQMom=    0.0000000
 NMagM=    2.7928460
 AtZNuc=   1.0000000
 Leave Link  101 at Thu Mar  5 12:54:00 2020, MaxMem=  6710886400 cpu:               2.6 elap:               0.2
 (Enter /opt/ohpc/pub/libs/gaussian/g16-A.03/sandybridge/g16/l202.exe)
                          Input orientation:                          
 ---------------------------------------------------------------------
 Center     Atomic      Atomic             Coordinates (Angstroms)
 Number     Number       Type             X           Y           Z
 ---------------------------------------------------------------------
      1          6           0        0.000000    0.878804   -0.931542
      2          6           0        0.000000    1.128157    0.423457
      3          6           0        0.000000    0.000000    1.240879
      4          6           0        0.000000   -1.128157    0.423457
      5          6           0        0.000000   -0.878804   -0.931542
      6          1           0        0.000000    0.000000   -1.732269
      7          1           0        0.000000    1.608300   -1.734053
      8          1           0        0.000000    2.156626    0.765670
      9          1           0        0.000000    0.000000    2.320778
     10          1           0        0.000000   -2.156626    0.765670
     11          1           0        0.000000   -1.608300   -1.734053
 ---------------------------------------------------------------------
                    Distance matrix (angstroms):
                    1          2          3          4          5
     1  C    0.000000
     2  C    1.377752   0.000000
     3  C    2.343440   1.393168   0.000000
     4  C    2.421552   2.256314   1.393168   0.000000
     5  C    1.757608   2.421552   2.343440   1.377752   0.000000
     6  H    1.188890   2.433083   2.973148   2.433083   1.188890
     7  H    1.084522   2.210291   3.381841   3.484687   2.613371
     8  H    2.124466   1.083909   2.208361   3.302561   3.477695
     9  H    3.368959   2.207389   1.079899   2.207389   3.368959
    10  H    3.477695   3.302561   2.208361   1.083909   2.124466
    11  H    2.613371   3.484687   3.381841   2.210291   1.084522
                    6          7          8          9         10
     6  H    0.000000
     7  H    1.608301   0.000000
     8  H    3.300111   2.559155   0.000000
     9  H    4.053047   4.362142   2.658834   0.000000
    10  H    3.300111   4.519213   4.313252   2.658834   0.000000
    11  H    1.608301   3.216600   4.519213   4.362142   2.559155
                   11
    11  H    0.000000
 Stoichiometry    C5H6
 Framework group  C2V[C2(HCH),SGV(C4H4)]
 Deg. of freedom    10
 Full point group                 C2V     NOp   4
 Largest Abelian subgroup         C2V     NOp   4
 Largest concise Abelian subgroup C2      NOp   2
                         Standard orientation:                         
 ---------------------------------------------------------------------
 Center     Atomic      Atomic             Coordinates (Angstroms)
 Number     Number       Type             X           Y           Z
 ---------------------------------------------------------------------
      1          6           0        0.000000    0.878804   -0.931542
      2          6           0        0.000000    1.128157    0.423457
      3          6           0        0.000000   -0.000000    1.240879
      4          6           0       -0.000000   -1.128157    0.423457
      5          6           0       -0.000000   -0.878804   -0.931542
      6          1           0       -0.000000    0.000000   -1.732269
      7          1           0        0.000000    1.608300   -1.734053
      8          1           0        0.000000    2.156626    0.765670
      9          1           0        0.000000   -0.000000    2.320778
     10          1           0       -0.000000   -2.156626    0.765670
     11          1           0       -0.000000   -1.608300   -1.734053
 ---------------------------------------------------------------------
 Rotational constants (GHZ):           8.5259551           7.9375455           4.1106177
 Leave Link  202 at Thu Mar  5 12:54:00 2020, MaxMem=  6710886400 cpu:               0.2 elap:               0.0
 (Enter /opt/ohpc/pub/libs/gaussian/g16-A.03/sandybridge/g16/l301.exe)
 Standard basis: 6-31G (6D, 7F)
 Ernie: Thresh=  0.10000D-02 Tol=  0.10000D-05 Strict=F.
 There are    27 symmetry adapted cartesian basis functions of A1  symmetry.
 There are     4 symmetry adapted cartesian basis functions of A2  symmetry.
 There are     6 symmetry adapted cartesian basis functions of B1  symmetry.
 There are    20 symmetry adapted cartesian basis functions of B2  symmetry.
 There are    27 symmetry adapted basis functions of A1  symmetry.
 There are     4 symmetry adapted basis functions of A2  symmetry.
 There are     6 symmetry adapted basis functions of B1  symmetry.
 There are    20 symmetry adapted basis functions of B2  symmetry.
    57 basis functions,   134 primitive gaussians,    57 cartesian basis functions
    18 alpha electrons       18 beta electrons
       nuclear repulsion energy       156.0127424860 Hartrees.
 IExCor=33909 DFT=T Ex+Corr=LC-wHPBE ExCW=0 ScaHFX=  1.000000
 ScaDFX=  1.000000  1.000000  1.000000  1.000000 ScalE2=  1.000000  1.000000
 IRadAn=      5 IRanWt=     -1 IRanGd=            0 ICorTp=0 IEmpDi=  4
 HFx  wShort=  0.000000 wLong=  0.400000 cFull=  0.000000 cShort=  0.000000 cLong=  0.709700
 DFx  wShort=  0.000000 wLong=  0.400000 cFull=  0.000000 cShort=  1.000000 cLong=  0.709700
 NAtoms=   11 NActive=   11 NUniq=    7 SFac= 2.47D+00 NAtFMM=   60 NAOKFM=F Big=F
 Integral buffers will be    131072 words long.
 Raffenetti 2 integral format.
 Two-electron integral symmetry is turned on.
 Leave Link  301 at Thu Mar  5 12:54:01 2020, MaxMem=  6710886400 cpu:               0.8 elap:               0.1
 (Enter /opt/ohpc/pub/libs/gaussian/g16-A.03/sandybridge/g16/l302.exe)
 NPDir=0 NMtPBC=     1 NCelOv=     1 NCel=       1 NClECP=     1 NCelD=      1
         NCelK=      1 NCelE2=     1 NClLst=     1 CellRange=     0.0.
 One-electron integrals computed using PRISM.
 One-electron integral symmetry used in STVInt
 NBasis=    57 RedAO= T EigKep=  1.84D-03  NBF=    27     4     6    20
 NBsUse=    57 1.00D-06 EigRej= -1.00D+00 NBFU=    27     4     6    20
 Precomputing XC quadrature grid using
 IXCGrd= 4 IRadAn=           5 IRanWt=          -1 IRanGd=           0 AccXCQ= 0.00D+00.
 Generated NRdTot=       0 NPtTot=           0 NUsed=           0 NTot=          32
 NSgBfM=    57    57    57    57    57 MxSgAt=    11 MxSgA2=    11.
 Leave Link  302 at Thu Mar  5 12:54:01 2020, MaxMem=  6710886400 cpu:               2.4 elap:               0.2
 (Enter /opt/ohpc/pub/libs/gaussian/g16-A.03/sandybridge/g16/l303.exe)
 DipDrv:  MaxL=1.
 Leave Link  303 at Thu Mar  5 12:54:01 2020, MaxMem=  6710886400 cpu:               0.4 elap:               0.0
 (Enter /opt/ohpc/pub/libs/gaussian/g16-A.03/sandybridge/g16/l401.exe)
 ExpMin= 1.61D-01 ExpMax= 3.05D+03 ExpMxC= 4.57D+02 IAcc=3 IRadAn=         5 AccDes= 0.00D+00
 Harris functional with IExCor=33909 and IRadAn=       5 diagonalized for initial guess.
 HarFok:  IExCor=33909 AccDes= 0.00D+00 IRadAn=         5 IDoV= 1 UseB2=F ITyADJ=14
 ICtDFT=  3500011 ScaDFX=  1.000000  1.000000  1.000000  1.000000
 FoFCou: FMM=F IPFlag=           0 FMFlag=      100000 FMFlg1=           0
         NFxFlg=           0 DoJE=T BraDBF=F KetDBF=T FulRan=T
         wScrn=  0.000000 ICntrl=       500 IOpCl=  0 I1Cent=   200000004 NGrid=           0
         NMat0=    1 NMatS0=      1 NMatT0=    0 NMatD0=    1 NMtDS0=    0 NMtDT0=    0
 Petite list used in FoFCou.
 Harris En= -191.740255276812    
 JPrj=0 DoOrth=F DoCkMO=F.
 Initial guess orbital symmetries:
 Alpha Orbitals:
       Occupied  (A1) (B2) (A1) (B2) (A1) (A1) (A1) (B2) (A1) (B2)
                 (A1) (B2) (A1) (B2) (A1) (B1) (A2) (B1)
       Virtual   (A2) (B2) (B1) (A1) (A1) (B2) (A1) (B2) (A1) (B2)
                 (A1) (B2) (A1) (B2) (B1) (A1) (A2) (B1) (B2) (A1)
                 (A1) (A2) (B1) (B2) (B2) (A1) (B2) (A1) (A1) (B2)
                 (A1) (A1) (A1) (B2) (A1) (B2) (A1) (A1) (B2)
 Beta  Orbitals:
       Occupied  (A1) (B2) (A1) (B2) (A1) (A1) (A1) (B2) (A1) (B2)
                 (A1) (B2) (A1) (B2) (A1) (B1) (A2) (B1)
       Virtual   (A2) (B2) (B1) (A1) (A1) (B2) (A1) (B2) (A1) (B2)
                 (A1) (B2) (A1) (B2) (B1) (A1) (A2) (B1) (B2) (A1)
                 (A1) (A2) (B1) (B2) (B2) (A1) (B2) (A1) (A1) (B2)
                 (A1) (A1) (A1) (B2) (A1) (B2) (A1) (A1) (B2)
 The electronic state of the initial guess is 1-A1.
 Initial guess <Sx>= 0.0000 <Sy>= 0.0000 <Sz>= 0.0000 <S**2>= 0.0000 S= 0.0000
 Leave Link  401 at Thu Mar  5 12:54:01 2020, MaxMem=  6710886400 cpu:               3.6 elap:               0.2
 (Enter /opt/ohpc/pub/libs/gaussian/g16-A.03/sandybridge/g16/l502.exe)
 Keep R1 and R2 ints in memory in symmetry-blocked form, NReq=16815681.
 FoFCou: FMM=F IPFlag=           0 FMFlag=           0 FMFlg1=           0
         NFxFlg=           0 DoJE=F BraDBF=F KetDBF=F FulRan=T
         wScrn=  0.000000 ICntrl=       600 IOpCl=  0 I1Cent=           0 NGrid=           0
         NMat0=    1 NMatS0=   1653 NMatT0=    0 NMatD0=    1 NMtDS0=    0 NMtDT0=    0
 Petite list used in FoFCou.
 UHF open shell SCF:
 Using DIIS extrapolation, IDIIS=    10.
 NGot=  6710886400 LenX=  6710059561 LenY=  6710055871
 Requested convergence on RMS density matrix=1.00D-06 within  32 cycles.
 Requested convergence on MAX density matrix=1.00D-04.
 Requested convergence on             energy=1.00D-04.
 Virtual orbitals will be shifted by   0.500 hartree.
 No special actions if energy rises.
 Dynamic level shift is on during FON iterations.

 Cycle   1  Pass 1  IDiag  1:
 E= -196.570031124623    
 DIIS: error= 4.34D-02 at cycle   1 NSaved=   1.
 NSaved= 1 IEnMin= 1 EnMin= -196.570031124623     IErMin= 1 ErrMin= 4.34D-02
 ErrMax= 4.34D-02  0.00D+00 EMaxC= 1.00D+00 BMatC= 3.45D-01 BMatP= 3.45D-01
 IDIUse=1 WtCom= 1.00D+00 WtEn= 0.00D+00
 Coeff-Com:  0.100D+01
 Coeff:      0.100D+01
 Gap=     0.300 Goal=   None    Shift=    0.500
 T= 1718. Gap= 0.756 NK=0 IS=   19 IE=   57 IFin=   18
          NO(<0.9)=   0  NV(>0.1)=   0     18.00e < EF      0.00e >EF  Err=0.0D+00
 Gap=     0.300 Goal=   None    Shift=    0.500
 T= 1718. Gap= 0.756 NK=0 IS=   19 IE=   57 IFin=   18
          NO(<0.9)=   0  NV(>0.1)=   0     18.00e < EF      0.00e >EF  Err=0.0D+00
 GapD=    0.300 DampG=1.000 DampE=0.500 DampFc=0.5000 IDamp=-1.
 Damping current iteration by 5.00D-01
 RMSDP=7.25D-03 MaxDP=6.37D-02              OVMax= 8.34D-02

 Cycle   2  Pass 1  IDiag  1:
 E= -196.634755260722     Delta-E=       -0.064724136099 Rises=F Damp=T
 DIIS: error= 1.87D-02 at cycle   2 NSaved=   2.
 NSaved= 2 IEnMin= 2 EnMin= -196.634755260722     IErMin= 2 ErrMin= 1.87D-02
 ErrMax= 1.87D-02  0.00D+00 EMaxC= 1.00D+00 BMatC= 6.31D-02 BMatP= 3.45D-01
 IDIUse=1 WtCom= 1.00D+00 WtEn= 0.00D+00
 Coeff-Com: -0.668D+00 0.167D+01
 Coeff:     -0.668D+00 0.167D+01
 Gap=     0.359 Goal=   None    Shift=    0.500
 T= 1591. Gap= 0.846 NK=0 IS=   19 IE=   57 IFin=   18
          NO(<0.9)=   0  NV(>0.1)=   0     18.00e < EF      0.00e >EF  Err=0.0D+00
 Gap=     0.359 Goal=   None    Shift=    0.500
 T= 1591. Gap= 0.846 NK=0 IS=   19 IE=   57 IFin=   18
          NO(<0.9)=   0  NV(>0.1)=   0     18.00e < EF      0.00e >EF  Err=0.0D+00
 GapD=    0.359 DampG=1.000 DampE=0.500 DampFc=0.5000 IDamp=-1.
 Damping current iteration by 5.00D-01
 RMSDP=3.78D-03 MaxDP=2.53D-02 DE=-6.47D-02 OVMax= 9.28D-03

 Cycle   3  Pass 1  IDiag  1:
 E= -196.657143931204     Delta-E=       -0.022388670482 Rises=F Damp=T
 DIIS: error= 8.32D-03 at cycle   3 NSaved=   3.
 NSaved= 3 IEnMin= 3 EnMin= -196.657143931204     IErMin= 3 ErrMin= 8.32D-03
 ErrMax= 8.32D-03  0.00D+00 EMaxC= 1.00D+00 BMatC= 1.25D-02 BMatP= 6.31D-02
 IDIUse=1 WtCom= 1.00D+00 WtEn= 0.00D+00
 Coeff-Com:  0.142D+00-0.123D+01 0.209D+01
 Coeff:      0.142D+00-0.123D+01 0.209D+01
 Gap=     0.344 Goal=   None    Shift=    0.500
 T= 1349. Gap= 0.844 NK=0 IS=   19 IE=   57 IFin=   18
          NO(<0.9)=   0  NV(>0.1)=   0     18.00e < EF      0.00e >EF  Err=0.0D+00
 Gap=     0.344 Goal=   None    Shift=    0.500
 T= 1349. Gap= 0.844 NK=0 IS=   19 IE=   57 IFin=   18
          NO(<0.9)=   0  NV(>0.1)=   0     18.00e < EF      0.00e >EF  Err=0.0D+00
 GapD=    0.344 DampG=1.000 DampE=1.000 DampFc=1.0000 IDamp=-1.
 RMSDP=1.90D-03 MaxDP=1.24D-02 DE=-2.24D-02 OVMax= 6.67D-03

 Cycle   4  Pass 1  IDiag  1:
 E= -196.675231337558     Delta-E=       -0.018087406353 Rises=F Damp=F
 DIIS: error= 1.75D-03 at cycle   4 NSaved=   4.
 NSaved= 4 IEnMin= 4 EnMin= -196.675231337558     IErMin= 4 ErrMin= 1.75D-03
 ErrMax= 1.75D-03  0.00D+00 EMaxC= 1.00D+00 BMatC= 4.36D-04 BMatP= 1.25D-02
 IDIUse=1 WtCom= 1.00D+00 WtEn= 0.00D+00
 Coeff-Com:  0.112D+00-0.124D+00-0.185D+00 0.120D+01
 Coeff:      0.112D+00-0.124D+00-0.185D+00 0.120D+01
 Gap=     0.345 Goal=   None    Shift=    0.500
 T=  812. Gap= 0.845 NK=0 IS=   19 IE=   57 IFin=   18
          NO(<0.9)=   0  NV(>0.1)=   0     18.00e < EF      0.00e >EF  Err=0.0D+00
 Gap=     0.345 Goal=   None    Shift=    0.500
 T=  812. Gap= 0.845 NK=0 IS=   19 IE=   57 IFin=   18
          NO(<0.9)=   0  NV(>0.1)=   0     18.00e < EF      0.00e >EF  Err=0.0D+00
 GapD=    0.345 DampG=1.000 DampE=1.000 DampFc=1.0000 IDamp=-1.
 RMSDP=3.55D-04 MaxDP=2.87D-03 DE=-1.81D-02 OVMax= 2.82D-03

 Cycle   5  Pass 1  IDiag  1:
 E= -196.675399219426     Delta-E=       -0.000167881869 Rises=F Damp=F
 DIIS: error= 6.97D-04 at cycle   5 NSaved=   5.
 NSaved= 5 IEnMin= 5 EnMin= -196.675399219426     IErMin= 5 ErrMin= 6.97D-04
 ErrMax= 6.97D-04  0.00D+00 EMaxC= 1.00D+00 BMatC= 6.25D-05 BMatP= 4.36D-04
 IDIUse=1 WtCom= 1.00D+00 WtEn= 0.00D+00
 Coeff-Com: -0.412D-01 0.198D+00-0.258D+00-0.680D+00 0.178D+01
 Coeff:     -0.412D-01 0.198D+00-0.258D+00-0.680D+00 0.178D+01
 Gap=     0.345 Goal=   None    Shift=    0.500
 Gap=     0.345 Goal=   None    Shift=    0.500
 RMSDP=2.00D-04 MaxDP=1.65D-03 DE=-1.68D-04 OVMax= 2.43D-03

 Cycle   6  Pass 1  IDiag  1:
 E= -196.675441350396     Delta-E=       -0.000042130969 Rises=F Damp=F
 DIIS: error= 5.06D-04 at cycle   6 NSaved=   6.
 NSaved= 6 IEnMin= 6 EnMin= -196.675441350396     IErMin= 6 ErrMin= 5.06D-04
 ErrMax= 5.06D-04  0.00D+00 EMaxC= 1.00D+00 BMatC= 1.21D-05 BMatP= 6.25D-05
 IDIUse=1 WtCom= 1.00D+00 WtEn= 0.00D+00
 Coeff-Com: -0.199D-02-0.386D-01 0.811D-01 0.187D+00-0.161D+01 0.238D+01
 Coeff:     -0.199D-02-0.386D-01 0.811D-01 0.187D+00-0.161D+01 0.238D+01
 Gap=     0.345 Goal=   None    Shift=    0.500
 Gap=     0.345 Goal=   None    Shift=    0.500
 RMSDP=9.97D-05 MaxDP=7.91D-04 DE=-4.21D-05 OVMax= 1.54D-03

 Cycle   7  Pass 1  IDiag  1:
 E= -196.675452897071     Delta-E=       -0.000011546676 Rises=F Damp=F
 DIIS: error= 3.35D-04 at cycle   7 NSaved=   7.
 NSaved= 7 IEnMin= 7 EnMin= -196.675452897071     IErMin= 7 ErrMin= 3.35D-04
 ErrMax= 3.35D-04  0.00D+00 EMaxC= 1.00D+00 BMatC= 3.23D-06 BMatP= 1.21D-05
 IDIUse=1 WtCom= 1.00D+00 WtEn= 0.00D+00
 Coeff-Com:  0.426D-03 0.382D-01-0.797D-01 0.953D-01 0.424D+00-0.232D+01
 Coeff-Com:  0.284D+01
 Coeff:      0.426D-03 0.382D-01-0.797D-01 0.953D-01 0.424D+00-0.232D+01
 Coeff:      0.284D+01
 Gap=     0.345 Goal=   None    Shift=    0.500
 Gap=     0.345 Goal=   None    Shift=    0.500
 RMSDP=4.59D-05 MaxDP=3.73D-04 DE=-1.15D-05 OVMax= 9.23D-04

 Cycle   8  Pass 1  IDiag  1:
 E= -196.675456207596     Delta-E=       -0.000003310525 Rises=F Damp=F
 DIIS: error= 2.20D-04 at cycle   8 NSaved=   8.
 NSaved= 8 IEnMin= 8 EnMin= -196.675456207596     IErMin= 8 ErrMin= 2.20D-04
 ErrMax= 2.20D-04  0.00D+00 EMaxC= 1.00D+00 BMatC= 1.14D-06 BMatP= 3.23D-06
 IDIUse=1 WtCom= 1.00D+00 WtEn= 0.00D+00
 Coeff-Com: -0.119D-02 0.398D-01-0.764D-01 0.453D-01 0.468D+00-0.160D+01
 Coeff-Com:  0.914D+00 0.121D+01
 Coeff:     -0.119D-02 0.398D-01-0.764D-01 0.453D-01 0.468D+00-0.160D+01
 Coeff:      0.914D+00 0.121D+01
 Gap=     0.345 Goal=   None    Shift=    0.500
 Gap=     0.345 Goal=   None    Shift=    0.500
 RMSDP=2.12D-05 MaxDP=1.66D-04 DE=-3.31D-06 OVMax= 5.42D-04

 Cycle   9  Pass 1  IDiag  1:
 E= -196.675457190204     Delta-E=       -0.000000982609 Rises=F Damp=F
 DIIS: error= 1.29D-04 at cycle   9 NSaved=   9.
 NSaved= 9 IEnMin= 9 EnMin= -196.675457190204     IErMin= 9 ErrMin= 1.29D-04
 ErrMax= 1.29D-04  0.00D+00 EMaxC= 1.00D+00 BMatC= 3.87D-07 BMatP= 1.14D-06
 IDIUse=1 WtCom= 1.00D+00 WtEn= 0.00D+00
 Coeff-Com: -0.132D-02 0.890D-02-0.132D-01-0.285D-02 0.303D-01 0.240D+00
 Coeff-Com: -0.772D+00-0.510D+00 0.202D+01
 Coeff:     -0.132D-02 0.890D-02-0.132D-01-0.285D-02 0.303D-01 0.240D+00
 Coeff:     -0.772D+00-0.510D+00 0.202D+01
 Gap=     0.345 Goal=   None    Shift=    0.500
 Gap=     0.345 Goal=   None    Shift=    0.500
 RMSDP=1.07D-05 MaxDP=8.77D-05 DE=-9.83D-07 OVMax= 3.06D-04

 Cycle  10  Pass 1  IDiag  1:
 E= -196.675457484779     Delta-E=       -0.000000294575 Rises=F Damp=F
 DIIS: error= 7.84D-05 at cycle  10 NSaved=  10.
 NSaved=10 IEnMin=10 EnMin= -196.675457484779     IErMin=10 ErrMin= 7.84D-05
 ErrMax= 7.84D-05  0.00D+00 EMaxC= 1.00D+00 BMatC= 1.46D-07 BMatP= 3.87D-07
 IDIUse=1 WtCom= 1.00D+00 WtEn= 0.00D+00
 Coeff-Com:  0.622D-03-0.459D-02 0.662D-02 0.158D-01-0.963D-01 0.102D+00
 Coeff-Com:  0.366D+00-0.642D+00-0.145D+01 0.270D+01
 Coeff:      0.622D-03-0.459D-02 0.662D-02 0.158D-01-0.963D-01 0.102D+00
 Coeff:      0.366D+00-0.642D+00-0.145D+01 0.270D+01
 Gap=     0.345 Goal=   None    Shift=    0.500
 Gap=     0.345 Goal=   None    Shift=    0.500
 RMSDP=5.43D-06 MaxDP=4.74D-05 DE=-2.95D-07 OVMax= 1.77D-04

 Cycle  11  Pass 1  IDiag  1:
 E= -196.675457577457     Delta-E=       -0.000000092678 Rises=F Damp=F
 DIIS: error= 4.68D-05 at cycle  11 NSaved=  11.
 NSaved=11 IEnMin=11 EnMin= -196.675457577457     IErMin=11 ErrMin= 4.68D-05
 ErrMax= 4.68D-05  0.00D+00 EMaxC= 1.00D+00 BMatC= 5.47D-08 BMatP= 1.46D-07
 IDIUse=1 WtCom= 1.00D+00 WtEn= 0.00D+00
 Coeff-Com: -0.153D-03 0.162D-02-0.275D-02 0.124D-02 0.107D-01-0.155D-01
 Coeff-Com:  0.387D-02-0.287D-01 0.482D+00-0.245D+01 0.300D+01
 Coeff:     -0.153D-03 0.162D-02-0.275D-02 0.124D-02 0.107D-01-0.155D-01
 Coeff:      0.387D-02-0.287D-01 0.482D+00-0.245D+01 0.300D+01
 Gap=     0.345 Goal=   None    Shift=    0.500
 Gap=     0.345 Goal=   None    Shift=    0.500
 RMSDP=2.77D-06 MaxDP=2.56D-05 DE=-9.27D-08 OVMax= 1.02D-04

 Cycle  12  Pass 1  IDiag  1:
 E= -196.675457607491     Delta-E=       -0.000000030034 Rises=F Damp=F
 DIIS: error= 2.73D-05 at cycle  12 NSaved=  12.
 NSaved=12 IEnMin=12 EnMin= -196.675457607491     IErMin=12 ErrMin= 2.73D-05
 ErrMax= 2.73D-05  0.00D+00 EMaxC= 1.00D+00 BMatC= 1.96D-08 BMatP= 5.47D-08
 IDIUse=1 WtCom= 1.00D+00 WtEn= 0.00D+00
 Coeff-Com: -0.563D-04 0.398D-03-0.595D-03 0.629D-03-0.314D-02 0.106D-01
 Coeff-Com: -0.132D-01-0.213D-01 0.903D-01 0.580D+00-0.308D+01 0.344D+01
 Coeff:     -0.563D-04 0.398D-03-0.595D-03 0.629D-03-0.314D-02 0.106D-01
 Coeff:     -0.132D-01-0.213D-01 0.903D-01 0.580D+00-0.308D+01 0.344D+01
 Gap=     0.345 Goal=   None    Shift=    0.500
 Gap=     0.345 Goal=   None    Shift=    0.500
 RMSDP=1.46D-06 MaxDP=1.37D-05 DE=-3.00D-08 OVMax= 5.74D-05

 Cycle  13  Pass 1  IDiag  1:
 E= -196.675457617107     Delta-E=       -0.000000009616 Rises=F Damp=F
 DIIS: error= 1.58D-05 at cycle  13 NSaved=  13.
 NSaved=13 IEnMin=13 EnMin= -196.675457617107     IErMin=13 ErrMin= 1.58D-05
 ErrMax= 1.58D-05  0.00D+00 EMaxC= 1.00D+00 BMatC= 6.91D-09 BMatP= 1.96D-08
 IDIUse=1 WtCom= 1.00D+00 WtEn= 0.00D+00
 Coeff-Com:  0.956D-04-0.695D-03 0.102D-02 0.167D-02-0.122D-01 0.171D-01
 Coeff-Com:  0.301D-01-0.535D-01-0.138D+00 0.261D+00 0.656D+00-0.327D+01
 Coeff-Com:  0.351D+01
 Coeff:      0.956D-04-0.695D-03 0.102D-02 0.167D-02-0.122D-01 0.171D-01
 Coeff:      0.301D-01-0.535D-01-0.138D+00 0.261D+00 0.656D+00-0.327D+01
 Coeff:      0.351D+01
 Gap=     0.345 Goal=   None    Shift=    0.500
 Gap=     0.345 Goal=   None    Shift=    0.500
 RMSDP=7.89D-07 MaxDP=7.73D-06 DE=-9.62D-09 OVMax= 3.25D-05

 SCF Done:  E(ULC-wHPBE) =  -196.675457617     A.U. after   13 cycles
            NFock= 13  Conv=0.79D-06     -V/T= 2.0191
 <Sx>= 0.0000 <Sy>= 0.0000 <Sz>= 0.0000 <S**2>= 0.0000 S= 0.0000
 <L.S>= 0.000000000000E+00
 KE= 1.929934488264D+02 PE=-7.616298794297D+02 EE= 2.159482305001D+02
 Annihilation of the first spin contaminant:
 S**2 before annihilation     0.0000,   after     0.0000
 Leave Link  502 at Thu Mar  5 12:54:02 2020, MaxMem=  6710886400 cpu:              21.6 elap:               1.4
 (Enter /opt/ohpc/pub/libs/gaussian/g16-A.03/sandybridge/g16/l508.exe)
 QCSCF skips out because SCF is already converged.
 Leave Link  508 at Thu Mar  5 12:54:02 2020, MaxMem=  6710886400 cpu:               0.2 elap:               0.0
 (Enter /opt/ohpc/pub/libs/gaussian/g16-A.03/sandybridge/g16/l601.exe)
 Copying SCF densities to generalized density rwf, IOpCl= 1 IROHF=0.

 **********************************************************************

            Population analysis using the SCF density.

 **********************************************************************

 Orbital symmetries:
 Alpha Orbitals:
       Occupied  (B2) (A1) (B2) (A1) (A1) (A1) (A1) (B2) (A1) (B2)
                 (A1) (B2) (A1) (A1) (B2) (B1) (A2) (B1)
       Virtual   (A2) (B2) (A1) (B1) (A1) (B2) (A1) (B2) (A1) (A1)
                 (B2) (A1) (B2) (B2) (B1) (A2) (A1) (B1) (A1) (B2)
                 (A1) (A2) (B1) (B2) (B2) (A1) (B2) (A1) (A1) (B2)
                 (A1) (A1) (A1) (B2) (A1) (B2) (A1) (A1) (B2)
 Beta  Orbitals:
       Occupied  (B2) (A1) (B2) (A1) (A1) (A1) (A1) (B2) (A1) (B2)
                 (A1) (B2) (A1) (A1) (B2) (B1) (A2) (B1)
       Virtual   (A2) (B2) (A1) (B1) (A1) (B2) (A1) (B2) (A1) (A1)
                 (B2) (A1) (B2) (B2) (B1) (A2) (A1) (B1) (A1) (B2)
                 (A1) (A2) (B1) (B2) (B2) (A1) (B2) (A1) (A1) (B2)
                 (A1) (A1) (A1) (B2) (A1) (B2) (A1) (A1) (B2)
 The electronic state is 1-A1.
 Alpha  occ. eigenvalues --  -10.16156 -10.16154 -10.12462 -10.12462 -10.08988
 Alpha  occ. eigenvalues --   -1.02758  -0.89949  -0.86952  -0.72557  -0.71225
 Alpha  occ. eigenvalues --   -0.67078  -0.56442  -0.55684  -0.52599  -0.51262
 Alpha  occ. eigenvalues --   -0.50296  -0.36576  -0.32396
 Alpha virt. eigenvalues --    0.02136   0.02850   0.07268   0.09505   0.11256
 Alpha virt. eigenvalues --    0.16039   0.17740   0.19560   0.20395   0.32788
 Alpha virt. eigenvalues --    0.34105   0.44111   0.44707   0.53602   0.55169
 Alpha virt. eigenvalues --    0.61701   0.62568   0.62601   0.64507   0.65922
 Alpha virt. eigenvalues --    0.67156   0.68199   0.70744   0.78001   0.83824
 Alpha virt. eigenvalues --    0.86645   0.88248   0.88428   0.90249   0.97195
 Alpha virt. eigenvalues --    0.97410   1.00578   1.05053   1.11530   1.19571
 Alpha virt. eigenvalues --    1.21230   1.28124   1.49176   1.50253
  Beta  occ. eigenvalues --  -10.16156 -10.16154 -10.12462 -10.12462 -10.08988
  Beta  occ. eigenvalues --   -1.02758  -0.89949  -0.86952  -0.72557  -0.71225
  Beta  occ. eigenvalues --   -0.67078  -0.56442  -0.55684  -0.52599  -0.51262
  Beta  occ. eigenvalues --   -0.50296  -0.36576  -0.32396
  Beta virt. eigenvalues --    0.02136   0.02850   0.07268   0.09505   0.11256
  Beta virt. eigenvalues --    0.16039   0.17740   0.19560   0.20395   0.32788
  Beta virt. eigenvalues --    0.34105   0.44111   0.44707   0.53602   0.55169
  Beta virt. eigenvalues --    0.61701   0.62568   0.62601   0.64507   0.65922
  Beta virt. eigenvalues --    0.67156   0.68199   0.70744   0.78001   0.83824
  Beta virt. eigenvalues --    0.86645   0.88248   0.88428   0.90249   0.97195
  Beta virt. eigenvalues --    0.97410   1.00578   1.05053   1.11530   1.19571
  Beta virt. eigenvalues --    1.21230   1.28124   1.49176   1.50253
          Condensed to atoms (all electrons):
               1          2          3          4          5          6
     1  C    5.445228   0.473401  -0.055739  -0.128630   0.255397   0.166740
     2  C    0.473401   4.907615   0.556288  -0.016582  -0.128630  -0.018749
     3  C   -0.055739   0.556288   4.838218   0.556288  -0.055739   0.004675
     4  C   -0.128630  -0.016582   0.556288   4.907615   0.473401  -0.018749
     5  C    0.255397  -0.128630  -0.055739   0.473401   5.445228   0.166740
     6  H    0.166740  -0.018749   0.004675  -0.018749   0.166740   0.388516
     7  H    0.345279  -0.000398  -0.000054   0.004044  -0.024181  -0.012202
     8  H   -0.037453   0.364107  -0.016600   0.004475   0.001792   0.000863
     9  H    0.006479  -0.039060   0.374033  -0.039060   0.006479  -0.000102
    10  H    0.001792   0.004475  -0.016600   0.364107  -0.037453   0.000863
    11  H   -0.024181   0.004044  -0.000054  -0.000398   0.345279  -0.012202
               7          8          9         10         11
     1  C    0.345279  -0.037453   0.006479   0.001792  -0.024181
     2  C   -0.000398   0.364107  -0.039060   0.004475   0.004044
     3  C   -0.000054  -0.016600   0.374033  -0.016600  -0.000054
     4  C    0.004044   0.004475  -0.039060   0.364107  -0.000398
     5  C   -0.024181   0.001792   0.006479  -0.037453   0.345279
     6  H   -0.012202   0.000863  -0.000102   0.000863  -0.012202
     7  H    0.459854  -0.000239  -0.000103  -0.000037   0.000810
     8  H   -0.000239   0.507463  -0.002037  -0.000163  -0.000037
     9  H   -0.000103  -0.002037   0.544854  -0.002037  -0.000103
    10  H   -0.000037  -0.000163  -0.002037   0.507463  -0.000239
    11  H    0.000810  -0.000037  -0.000103  -0.000239   0.459854
          Atomic-Atomic Spin Densities.
               1          2          3          4          5          6
     1  C    0.000000  -0.000000   0.000000  -0.000000   0.000000   0.000000
     2  C   -0.000000  -0.000000  -0.000000  -0.000000  -0.000000  -0.000000
     3  C    0.000000  -0.000000   0.000000  -0.000000   0.000000   0.000000
     4  C   -0.000000  -0.000000  -0.000000  -0.000000  -0.000000  -0.000000
     5  C    0.000000  -0.000000   0.000000  -0.000000   0.000000   0.000000
     6  H    0.000000  -0.000000   0.000000  -0.000000   0.000000   0.000000
     7  H    0.000000  -0.000000   0.000000  -0.000000  -0.000000   0.000000
     8  H    0.000000  -0.000000  -0.000000   0.000000  -0.000000   0.000000
     9  H   -0.000000  -0.000000   0.000000  -0.000000  -0.000000  -0.000000
    10  H   -0.000000   0.000000  -0.000000  -0.000000   0.000000   0.000000
    11  H   -0.000000  -0.000000   0.000000  -0.000000   0.000000   0.000000
               7          8          9         10         11
     1  C    0.000000   0.000000  -0.000000  -0.000000  -0.000000
     2  C   -0.000000  -0.000000  -0.000000   0.000000  -0.000000
     3  C    0.000000  -0.000000   0.000000  -0.000000   0.000000
     4  C   -0.000000   0.000000  -0.000000  -0.000000  -0.000000
     5  C   -0.000000  -0.000000  -0.000000   0.000000   0.000000
     6  H    0.000000   0.000000  -0.000000   0.000000   0.000000
     7  H    0.000000   0.000000   0.000000  -0.000000  -0.000000
     8  H    0.000000   0.000000  -0.000000  -0.000000  -0.000000
     9  H    0.000000  -0.000000   0.000000  -0.000000   0.000000
    10  H   -0.000000  -0.000000  -0.000000   0.000000   0.000000
    11  H   -0.000000  -0.000000   0.000000   0.000000   0.000000
 Mulliken charges and spin densities:
               1          2
     1  C   -0.448313   0.000000
     2  C   -0.106513  -0.000000
     3  C   -0.184719   0.000000
     4  C   -0.106513  -0.000000
     5  C   -0.448313   0.000000
     6  H    0.333608   0.000000
     7  H    0.227227   0.000000
     8  H    0.177826   0.000000
     9  H    0.150655   0.000000
    10  H    0.177826   0.000000
    11  H    0.227227   0.000000
 Sum of Mulliken charges =   0.00000  -0.00000
 Mulliken charges and spin densities with hydrogens summed into heavy atoms:
               1          2
     1  C    0.112522   0.000000
     2  C    0.071314  -0.000000
     3  C   -0.034064   0.000000
     4  C    0.071314  -0.000000
     5  C   -0.221085   0.000000
 Electronic spatial extent (au):  <R**2>=            335.3306
 Charge=              0.0000 electrons
 Dipole moment (field-independent basis, Debye):
    X=             -0.0000    Y=             -0.0000    Z=             -1.9827  Tot=              1.9827
 Quadrupole moment (field-independent basis, Debye-Ang):
   XX=            -35.0484   YY=            -25.5606   ZZ=            -23.4929
   XY=              0.0000   XZ=              0.0000   YZ=              0.0000
 Traceless Quadrupole moment (field-independent basis, Debye-Ang):
   XX=             -7.0144   YY=              2.4734   ZZ=              4.5411
   XY=              0.0000   XZ=              0.0000   YZ=              0.0000
 Octapole moment (field-independent basis, Debye-Ang**2):
  XXX=              0.0000  YYY=              0.0000  ZZZ=             -8.8528  XYY=              0.0000
  XXY=              0.0000  XXZ=              0.8294  XZZ=              0.0000  YZZ=             -0.0000
  YYZ=             -1.0226  XYZ=             -0.0000
 Hexadecapole moment (field-independent basis, Debye-Ang**3):
 XXXX=            -37.2435 YYYY=           -182.5293 ZZZZ=           -169.4739 XXXY=             -0.0000
 XXXZ=             -0.0000 YYYX=             -0.0000 YYYZ=             -0.0000 ZZZX=             -0.0000
 ZZZY=              0.0000 XXYY=            -46.6235 XXZZ=            -45.5678 YYZZ=            -57.8896
 XXYZ=              0.0000 YYXZ=             -0.0000 ZZXY=             -0.0000
 N-N= 1.560127424860D+02 E-N=-7.616298591275D+02  KE= 1.929934488264D+02
 Symmetry A1   KE= 1.110021236572D+02
 Symmetry A2   KE= 2.438492879230D+00
 Symmetry B1   KE= 4.281119882237D+00
 Symmetry B2   KE= 7.527171240773D+01
 Symmetry A1   SP= 5.906993514091D-15
 Symmetry A2   SP= 6.833827138583D-16
 Symmetry B1   SP=-6.911406918640D-16
 Symmetry B2   SP=-1.492461504392D-14
                          Isotropic Fermi Contact Couplings
        Atom                 a.u.       MegaHertz       Gauss      10(-4) cm-1
     1  C(13)              0.00000       0.00000       0.00000       0.00000
     2  C(13)             -0.00000      -0.00000      -0.00000      -0.00000
     3  C(13)              0.00000       0.00000       0.00000       0.00000
     4  C(13)             -0.00000      -0.00000      -0.00000      -0.00000
     5  C(13)              0.00000       0.00000       0.00000       0.00000
     6  H(1)              -0.00000      -0.00000      -0.00000      -0.00000
     7  H(1)               0.00000       0.00000       0.00000       0.00000
     8  H(1)              -0.00000      -0.00000      -0.00000      -0.00000
     9  H(1)              -0.00000      -0.00000      -0.00000      -0.00000
    10  H(1)              -0.00000      -0.00000      -0.00000      -0.00000
    11  H(1)               0.00000       0.00000       0.00000       0.00000
 --------------------------------------------------------
       Center         ----  Spin Dipole Couplings  ----
                      3XX-RR        3YY-RR        3ZZ-RR
 --------------------------------------------------------
     1   Atom        0.000000      0.000000      0.000000
     2   Atom        0.000000      0.000000      0.000000
     3   Atom        0.000000      0.000000      0.000000
     4   Atom        0.000000      0.000000      0.000000
     5   Atom        0.000000      0.000000      0.000000
     6   Atom        0.000000      0.000000      0.000000
     7   Atom        0.000000      0.000000      0.000000
     8   Atom        0.000000      0.000000      0.000000
     9   Atom        0.000000      0.000000      0.000000
    10   Atom        0.000000      0.000000      0.000000
    11   Atom        0.000000      0.000000      0.000000
 --------------------------------------------------------
                        XY            XZ            YZ
 --------------------------------------------------------
     1   Atom        0.000000      0.000000      0.000000
     2   Atom        0.000000      0.000000      0.000000
     3   Atom        0.000000      0.000000      0.000000
     4   Atom        0.000000      0.000000      0.000000
     5   Atom        0.000000      0.000000      0.000000
     6   Atom        0.000000      0.000000      0.000000
     7   Atom        0.000000      0.000000      0.000000
     8   Atom        0.000000      0.000000      0.000000
     9   Atom        0.000000      0.000000      0.000000
    10   Atom        0.000000      0.000000      0.000000
    11   Atom        0.000000      0.000000      0.000000
 --------------------------------------------------------


 ---------------------------------------------------------------------------------
              Anisotropic Spin Dipole Couplings in Principal Axis System
 ---------------------------------------------------------------------------------

       Atom             a.u.   MegaHertz   Gauss  10(-4) cm-1        Axes

              Baa     0.0000     0.000     0.000     0.000  1.0000  0.0000  0.0000
     1 C(13)  Bbb     0.0000     0.000     0.000     0.000 -0.0000  1.0000  0.0000
              Bcc     0.0000     0.000     0.000     0.000  0.0000  0.0000  1.0000
 
              Baa     0.0000     0.000     0.000     0.000  1.0000  0.0000  0.0000
     2 C(13)  Bbb     0.0000     0.000     0.000     0.000 -0.0000  1.0000  0.0000
              Bcc     0.0000     0.000     0.000     0.000  0.0000  0.0000  1.0000
 
              Baa     0.0000     0.000     0.000     0.000  1.0000  0.0000  0.0000
     3 C(13)  Bbb     0.0000     0.000     0.000     0.000 -0.0000  1.0000  0.0000
              Bcc     0.0000     0.000     0.000     0.000  0.0000  0.0000  1.0000
 
              Baa     0.0000     0.000     0.000     0.000  1.0000  0.0000  0.0000
     4 C(13)  Bbb     0.0000     0.000     0.000     0.000 -0.0000  1.0000  0.0000
              Bcc     0.0000     0.000     0.000     0.000  0.0000  0.0000  1.0000
 
              Baa     0.0000     0.000     0.000     0.000  1.0000  0.0000  0.0000
     5 C(13)  Bbb     0.0000     0.000     0.000     0.000 -0.0000  1.0000  0.0000
              Bcc     0.0000     0.000     0.000     0.000  0.0000  0.0000  1.0000
 
              Baa     0.0000     0.000     0.000     0.000  1.0000  0.0000  0.0000
     6 H(1)   Bbb     0.0000     0.000     0.000     0.000 -0.0000  1.0000  0.0000
              Bcc     0.0000     0.000     0.000     0.000  0.0000  0.0000  1.0000
 
              Baa     0.0000     0.000     0.000     0.000  1.0000  0.0000  0.0000
     7 H(1)   Bbb     0.0000     0.000     0.000     0.000 -0.0000  1.0000  0.0000
              Bcc     0.0000     0.000     0.000     0.000  0.0000  0.0000  1.0000
 
              Baa     0.0000     0.000     0.000     0.000  1.0000  0.0000  0.0000
     8 H(1)   Bbb     0.0000     0.000     0.000     0.000 -0.0000  1.0000  0.0000
              Bcc     0.0000     0.000     0.000     0.000  0.0000  0.0000  1.0000
 
              Baa     0.0000     0.000     0.000     0.000  1.0000  0.0000  0.0000
     9 H(1)   Bbb     0.0000     0.000     0.000     0.000 -0.0000  1.0000  0.0000
              Bcc     0.0000     0.000     0.000     0.000  0.0000  0.0000  1.0000
 
              Baa     0.0000     0.000     0.000     0.000  1.0000  0.0000  0.0000
    10 H(1)   Bbb     0.0000     0.000     0.000     0.000 -0.0000  1.0000  0.0000
              Bcc     0.0000     0.000     0.000     0.000  0.0000  0.0000  1.0000
 
              Baa     0.0000     0.000     0.000     0.000  1.0000  0.0000  0.0000
    11 H(1)   Bbb     0.0000     0.000     0.000     0.000 -0.0000  1.0000  0.0000
              Bcc     0.0000     0.000     0.000     0.000  0.0000  0.0000  1.0000
 

 ---------------------------------------------------------------------------------

 No NMR shielding tensors so no spin-rotation constants.
 Leave Link  601 at Thu Mar  5 12:54:03 2020, MaxMem=  6710886400 cpu:               1.9 elap:               0.1
 (Enter /opt/ohpc/pub/libs/gaussian/g16-A.03/sandybridge/g16/l9999.exe)

 Test job not archived.
 1\1\GINC-CNODE212\SP\ULC-wHPBE\6-31G\C5H6\SMGO234\05-Mar-2020\0\\#P uL
 C-wHPBE/6-31G iop(3/130=0290300000, 3/131=0290300000, 3/119=0709700000
 , 3/120=0709700000) scf=(conver=6,fermi,ndamp=35,noincfock,novaracc,vs
 hift=500,xqc)\\H6 C5\\0,1\C,0,0.,0.878804,-0.931542\C,0,0.,1.128157,0.
 423457\C,0,0.,0.,1.240879\C,0,0.,-1.128157,0.423457\C,0,0.,-0.878804,-
 0.931542\H,0,0.,0.,-1.732269\H,0,0.,1.6083,-1.734053\H,0,0.,2.156626,0
 .76567\H,0,0.,0.,2.320778\H,0,0.,-2.156626,0.76567\H,0,0.,-1.6083,-1.7
 34053\\Version=EM64L-G16RevA.03\State=1-A1\HF=-196.6754576\S2=0.\S2-1=
 0.\S2A=0.\RMSD=7.888e-07\Dipole=0.,0.,-0.7800403\Quadrupole=-5.2150641
 ,1.8388909,3.3761733,0.,0.,0.\PG=C02V [C2(H1C1H1),SGV(C4H4)]\\@


 The arm of the moral universe is long, but it bends toward justice.
 -- Martin Luther King, Jr.
 Job cpu time:       0 days  0 hours  0 minutes 49.3 seconds.
 Elapsed time:       0 days  0 hours  0 minutes  3.3 seconds.
 File lengths (MBytes):  RWF=    272 Int=      0 D2E=      0 Chk=     32 Scr=     32
 Normal termination of Gaussian 16 at Thu Mar  5 12:54:03 2020.
