 Entering Gaussian System, Link 0=g16
 Input=a1b_tune_n0.gjf
 Output=a1b_tune_n0.log
 Initial command:
 /opt/ohpc/pub/libs/gaussian/g16-A.03/sandybridge/g16/l1.exe "/scratch/smgo234/Ocelot/test/a1b/tuning_a1b_acycle2/Gau-83713.inp" -scrdir="/scratch/smgo234/Ocelot/test/a1b/tuning_a1b_acycle2/"
 Entering Link 1 = /opt/ohpc/pub/libs/gaussian/g16-A.03/sandybridge/g16/l1.exe PID=     83714.
  
 Copyright (c) 1988,1990,1992,1993,1995,1998,2003,2009,2016,
            Gaussian, Inc.  All Rights Reserved.
  
 This is part of the Gaussian(R) 16 program.  It is based on
 the Gaussian(R) 09 system (copyright 2009, Gaussian, Inc.),
 the Gaussian(R) 03 system (copyright 2003, Gaussian, Inc.),
 the Gaussian(R) 98 system (copyright 1998, Gaussian, Inc.),
 the Gaussian(R) 94 system (copyright 1995, Gaussian, Inc.),
 the Gaussian 92(TM) system (copyright 1992, Gaussian, Inc.),
 the Gaussian 90(TM) system (copyright 1990, Gaussian, Inc.),
 the Gaussian 88(TM) system (copyright 1988, Gaussian, Inc.),
 the Gaussian 86(TM) system (copyright 1986, Carnegie Mellon
 University), and the Gaussian 82(TM) system (copyright 1983,
 Carnegie Mellon University). Gaussian is a federally registered
 trademark of Gaussian, Inc.
  
 This software contains proprietary and confidential information,
 including trade secrets, belonging to Gaussian, Inc.
  
 This software is provided under written license and may be
 used, copied, transmitted, or stored only in accord with that
 written license.
  
 The following legend is applicable only to US Government
 contracts under FAR:
  
                    RESTRICTED RIGHTS LEGEND
  
 Use, reproduction and disclosure by the US Government is
 subject to restrictions as set forth in subparagraphs (a)
 and (c) of the Commercial Computer Software - Restricted
 Rights clause in FAR 52.227-19.
  
 Gaussian, Inc.
 340 Quinnipiac St., Bldg. 40, Wallingford CT 06492
  
  
 ---------------------------------------------------------------
 Warning -- This program may not be used in any manner that
 competes with the business of Gaussian, Inc. or will provide
 assistance to any competitor of Gaussian, Inc.  The licensee
 of this program is prohibited from giving any competitor of
 Gaussian, Inc. access to this program.  By using this program,
 the user acknowledges that Gaussian, Inc. is engaged in the
 business of creating and licensing software in the field of
 computational chemistry and represents and warrants to the
 licensee that it is not a competitor of Gaussian, Inc. and that
 it will not use this program in any manner prohibited above.
 ---------------------------------------------------------------
  

 Cite this work as:
 Gaussian 16, Revision A.03,
 M. J. Frisch, G. W. Trucks, H. B. Schlegel, G. E. Scuseria, 
 M. A. Robb, J. R. Cheeseman, G. Scalmani, V. Barone, 
 G. A. Petersson, H. Nakatsuji, X. Li, M. Caricato, A. V. Marenich, 
 J. Bloino, B. G. Janesko, R. Gomperts, B. Mennucci, H. P. Hratchian, 
 J. V. Ortiz, A. F. Izmaylov, J. L. Sonnenberg, D. Williams-Young, 
 F. Ding, F. Lipparini, F. Egidi, J. Goings, B. Peng, A. Petrone, 
 T. Henderson, D. Ranasinghe, V. G. Zakrzewski, J. Gao, N. Rega, 
 G. Zheng, W. Liang, M. Hada, M. Ehara, K. Toyota, R. Fukuda, 
 J. Hasegawa, M. Ishida, T. Nakajima, Y. Honda, O. Kitao, H. Nakai, 
 T. Vreven, K. Throssell, J. A. Montgomery, Jr., J. E. Peralta, 
 F. Ogliaro, M. J. Bearpark, J. J. Heyd, E. N. Brothers, K. N. Kudin, 
 V. N. Staroverov, T. A. Keith, R. Kobayashi, J. Normand, 
 K. Raghavachari, A. P. Rendell, J. C. Burant, S. S. Iyengar, 
 J. Tomasi, M. Cossi, J. M. Millam, M. Klene, C. Adamo, R. Cammi, 
 J. W. Ochterski, R. L. Martin, K. Morokuma, O. Farkas, 
 J. B. Foresman, and D. J. Fox, Gaussian, Inc., Wallingford CT, 2016.
 
 ******************************************
 Gaussian 16:  EM64L-G16RevA.03 25-Dec-2016
                 5-Mar-2020 
 ******************************************
 %mem=50GB
 %nproc=16
 Will use up to   16 processors via shared memory.
 ----------------------------------------------------------------------
 #P uLC-wHPBE/6-31G iop(3/130=0195900000, 3/131=0195900000, 3/119=08041
 00000, 3/120=0804100000) scf=(conver=6,fermi,ndamp=35,noincfock,novara
 cc,vshift=500,xqc)
 ----------------------------------------------------------------------
 1/38=1,172=1/1;
 2/12=2,17=6,18=5,40=1/2;
 3/5=1,6=6,11=2,25=1,30=1,74=-71,116=2,119=804100000,120=804100000,130=195900000,131=195900000/1,2,3;
 4//1;
 5/5=100002,6=6,8=3,10=500,13=1,18=-1,22=13,38=1,93=35/2,8;
 6/7=2,8=2,9=2,10=2,28=1/1;
 99/5=1,9=1/99;
 Leave Link    1 at Thu Mar  5 12:53:52 2020, MaxMem=  6710886400 cpu:              14.3 elap:               1.0
 (Enter /opt/ohpc/pub/libs/gaussian/g16-A.03/sandybridge/g16/l101.exe)
 -----
 H6 C5
 -----
 Symbolic Z-matrix:
 Charge =  0 Multiplicity = 1
 C                     0.        0.8788   -0.93154 
 C                     0.        1.12816   0.42346 
 C                     0.        0.        1.24088 
 C                     0.       -1.12816   0.42346 
 C                     0.       -0.8788   -0.93154 
 H                     0.        0.       -1.73227 
 H                     0.        1.6083   -1.73405 
 H                     0.        2.15663   0.76567 
 H                     0.        0.        2.32078 
 H                     0.       -2.15663   0.76567 
 H                     0.       -1.6083   -1.73405 
 
 ITRead=  0  0  0  0  0  0  0  0  0  0  0
 MicOpt= -1 -1 -1 -1 -1 -1 -1 -1 -1 -1 -1
 NAtoms=     11 NQM=       11 NQMF=       0 NMMI=      0 NMMIF=      0
                NMic=       0 NMicF=      0.
                    Isotopes and Nuclear Properties:
 (Nuclear quadrupole moments (NQMom) in fm**2, nuclear magnetic moments (NMagM)
  in nuclear magnetons)

  Atom         1           2           3           4           5           6           7           8           9          10
 IAtWgt=          12          12          12          12          12           1           1           1           1           1
 AtmWgt=  12.0000000  12.0000000  12.0000000  12.0000000  12.0000000   1.0078250   1.0078250   1.0078250   1.0078250   1.0078250
 NucSpn=           0           0           0           0           0           1           1           1           1           1
 AtZEff=  -0.0000000  -0.0000000  -0.0000000  -0.0000000  -0.0000000  -0.0000000  -0.0000000  -0.0000000  -0.0000000  -0.0000000
 NQMom=    0.0000000   0.0000000   0.0000000   0.0000000   0.0000000   0.0000000   0.0000000   0.0000000   0.0000000   0.0000000
 NMagM=    0.0000000   0.0000000   0.0000000   0.0000000   0.0000000   2.7928460   2.7928460   2.7928460   2.7928460   2.7928460
 AtZNuc=   6.0000000   6.0000000   6.0000000   6.0000000   6.0000000   1.0000000   1.0000000   1.0000000   1.0000000   1.0000000

  Atom        11
 IAtWgt=           1
 AtmWgt=   1.0078250
 NucSpn=           1
 AtZEff=  -0.0000000
 NQMom=    0.0000000
 NMagM=    2.7928460
 AtZNuc=   1.0000000
 Leave Link  101 at Thu Mar  5 12:53:52 2020, MaxMem=  6710886400 cpu:               1.5 elap:               0.1
 (Enter /opt/ohpc/pub/libs/gaussian/g16-A.03/sandybridge/g16/l202.exe)
                          Input orientation:                          
 ---------------------------------------------------------------------
 Center     Atomic      Atomic             Coordinates (Angstroms)
 Number     Number       Type             X           Y           Z
 ---------------------------------------------------------------------
      1          6           0        0.000000    0.878804   -0.931542
      2          6           0        0.000000    1.128157    0.423457
      3          6           0        0.000000    0.000000    1.240879
      4          6           0        0.000000   -1.128157    0.423457
      5          6           0        0.000000   -0.878804   -0.931542
      6          1           0        0.000000    0.000000   -1.732269
      7          1           0        0.000000    1.608300   -1.734053
      8          1           0        0.000000    2.156626    0.765670
      9          1           0        0.000000    0.000000    2.320778
     10          1           0        0.000000   -2.156626    0.765670
     11          1           0        0.000000   -1.608300   -1.734053
 ---------------------------------------------------------------------
                    Distance matrix (angstroms):
                    1          2          3          4          5
     1  C    0.000000
     2  C    1.377752   0.000000
     3  C    2.343440   1.393168   0.000000
     4  C    2.421552   2.256314   1.393168   0.000000
     5  C    1.757608   2.421552   2.343440   1.377752   0.000000
     6  H    1.188890   2.433083   2.973148   2.433083   1.188890
     7  H    1.084522   2.210291   3.381841   3.484687   2.613371
     8  H    2.124466   1.083909   2.208361   3.302561   3.477695
     9  H    3.368959   2.207389   1.079899   2.207389   3.368959
    10  H    3.477695   3.302561   2.208361   1.083909   2.124466
    11  H    2.613371   3.484687   3.381841   2.210291   1.084522
                    6          7          8          9         10
     6  H    0.000000
     7  H    1.608301   0.000000
     8  H    3.300111   2.559155   0.000000
     9  H    4.053047   4.362142   2.658834   0.000000
    10  H    3.300111   4.519213   4.313252   2.658834   0.000000
    11  H    1.608301   3.216600   4.519213   4.362142   2.559155
                   11
    11  H    0.000000
 Stoichiometry    C5H6
 Framework group  C2V[C2(HCH),SGV(C4H4)]
 Deg. of freedom    10
 Full point group                 C2V     NOp   4
 Largest Abelian subgroup         C2V     NOp   4
 Largest concise Abelian subgroup C2      NOp   2
                         Standard orientation:                         
 ---------------------------------------------------------------------
 Center     Atomic      Atomic             Coordinates (Angstroms)
 Number     Number       Type             X           Y           Z
 ---------------------------------------------------------------------
      1          6           0        0.000000    0.878804   -0.931542
      2          6           0        0.000000    1.128157    0.423457
      3          6           0        0.000000   -0.000000    1.240879
      4          6           0       -0.000000   -1.128157    0.423457
      5          6           0       -0.000000   -0.878804   -0.931542
      6          1           0       -0.000000    0.000000   -1.732269
      7          1           0        0.000000    1.608300   -1.734053
      8          1           0        0.000000    2.156626    0.765670
      9          1           0        0.000000   -0.000000    2.320778
     10          1           0       -0.000000   -2.156626    0.765670
     11          1           0       -0.000000   -1.608300   -1.734053
 ---------------------------------------------------------------------
 Rotational constants (GHZ):           8.5259551           7.9375455           4.1106177
 Leave Link  202 at Thu Mar  5 12:53:53 2020, MaxMem=  6710886400 cpu:               0.2 elap:               0.0
 (Enter /opt/ohpc/pub/libs/gaussian/g16-A.03/sandybridge/g16/l301.exe)
 Standard basis: 6-31G (6D, 7F)
 Ernie: Thresh=  0.10000D-02 Tol=  0.10000D-05 Strict=F.
 There are    27 symmetry adapted cartesian basis functions of A1  symmetry.
 There are     4 symmetry adapted cartesian basis functions of A2  symmetry.
 There are     6 symmetry adapted cartesian basis functions of B1  symmetry.
 There are    20 symmetry adapted cartesian basis functions of B2  symmetry.
 There are    27 symmetry adapted basis functions of A1  symmetry.
 There are     4 symmetry adapted basis functions of A2  symmetry.
 There are     6 symmetry adapted basis functions of B1  symmetry.
 There are    20 symmetry adapted basis functions of B2  symmetry.
    57 basis functions,   134 primitive gaussians,    57 cartesian basis functions
    18 alpha electrons       18 beta electrons
       nuclear repulsion energy       156.0127424860 Hartrees.
 IExCor=33909 DFT=T Ex+Corr=LC-wHPBE ExCW=0 ScaHFX=  1.000000
 ScaDFX=  1.000000  1.000000  1.000000  1.000000 ScalE2=  1.000000  1.000000
 IRadAn=      5 IRanWt=     -1 IRanGd=            0 ICorTp=0 IEmpDi=  4
 HFx  wShort=  0.000000 wLong=  0.400000 cFull=  0.000000 cShort=  0.000000 cLong=  0.804100
 DFx  wShort=  0.000000 wLong=  0.400000 cFull=  0.000000 cShort=  1.000000 cLong=  0.804100
 NAtoms=   11 NActive=   11 NUniq=    7 SFac= 2.47D+00 NAtFMM=   60 NAOKFM=F Big=F
 Integral buffers will be    131072 words long.
 Raffenetti 2 integral format.
 Two-electron integral symmetry is turned on.
 Leave Link  301 at Thu Mar  5 12:53:53 2020, MaxMem=  6710886400 cpu:               0.9 elap:               0.1
 (Enter /opt/ohpc/pub/libs/gaussian/g16-A.03/sandybridge/g16/l302.exe)
 NPDir=0 NMtPBC=     1 NCelOv=     1 NCel=       1 NClECP=     1 NCelD=      1
         NCelK=      1 NCelE2=     1 NClLst=     1 CellRange=     0.0.
 One-electron integrals computed using PRISM.
 One-electron integral symmetry used in STVInt
 NBasis=    57 RedAO= T EigKep=  1.84D-03  NBF=    27     4     6    20
 NBsUse=    57 1.00D-06 EigRej= -1.00D+00 NBFU=    27     4     6    20
 Precomputing XC quadrature grid using
 IXCGrd= 4 IRadAn=           5 IRanWt=          -1 IRanGd=           0 AccXCQ= 0.00D+00.
 Generated NRdTot=       0 NPtTot=           0 NUsed=           0 NTot=          32
 NSgBfM=    57    57    57    57    57 MxSgAt=    11 MxSgA2=    11.
 Leave Link  302 at Thu Mar  5 12:53:53 2020, MaxMem=  6710886400 cpu:               2.0 elap:               0.2
 (Enter /opt/ohpc/pub/libs/gaussian/g16-A.03/sandybridge/g16/l303.exe)
 DipDrv:  MaxL=1.
 Leave Link  303 at Thu Mar  5 12:53:53 2020, MaxMem=  6710886400 cpu:               0.9 elap:               0.1
 (Enter /opt/ohpc/pub/libs/gaussian/g16-A.03/sandybridge/g16/l401.exe)
 ExpMin= 1.61D-01 ExpMax= 3.05D+03 ExpMxC= 4.57D+02 IAcc=3 IRadAn=         5 AccDes= 0.00D+00
 Harris functional with IExCor=33909 and IRadAn=       5 diagonalized for initial guess.
 HarFok:  IExCor=33909 AccDes= 0.00D+00 IRadAn=         5 IDoV= 1 UseB2=F ITyADJ=14
 ICtDFT=  3500011 ScaDFX=  1.000000  1.000000  1.000000  1.000000
 FoFCou: FMM=F IPFlag=           0 FMFlag=      100000 FMFlg1=           0
         NFxFlg=           0 DoJE=T BraDBF=F KetDBF=T FulRan=T
         wScrn=  0.000000 ICntrl=       500 IOpCl=  0 I1Cent=   200000004 NGrid=           0
         NMat0=    1 NMatS0=      1 NMatT0=    0 NMatD0=    1 NMtDS0=    0 NMtDT0=    0
 Petite list used in FoFCou.
 Harris En= -192.404178803461    
 JPrj=0 DoOrth=F DoCkMO=F.
 Initial guess orbital symmetries:
 Alpha Orbitals:
       Occupied  (A1) (B2) (A1) (B2) (A1) (A1) (A1) (B2) (A1) (B2)
                 (A1) (B2) (A1) (B2) (A1) (B1) (A2) (B1)
       Virtual   (A2) (B2) (B1) (A1) (A1) (B2) (A1) (B2) (A1) (B2)
                 (A1) (B2) (A1) (B2) (B1) (A1) (A2) (B1) (B2) (A1)
                 (A1) (A2) (B1) (B2) (B2) (A1) (B2) (A1) (A1) (B2)
                 (A1) (A1) (A1) (B2) (A1) (B2) (A1) (A1) (B2)
 Beta  Orbitals:
       Occupied  (A1) (B2) (A1) (B2) (A1) (A1) (A1) (B2) (A1) (B2)
                 (A1) (B2) (A1) (B2) (A1) (B1) (A2) (B1)
       Virtual   (A2) (B2) (B1) (A1) (A1) (B2) (A1) (B2) (A1) (B2)
                 (A1) (B2) (A1) (B2) (B1) (A1) (A2) (B1) (B2) (A1)
                 (A1) (A2) (B1) (B2) (B2) (A1) (B2) (A1) (A1) (B2)
                 (A1) (A1) (A1) (B2) (A1) (B2) (A1) (A1) (B2)
 The electronic state of the initial guess is 1-A1.
 Initial guess <Sx>= 0.0000 <Sy>= 0.0000 <Sz>= 0.0000 <S**2>=-0.0000 S=-0.0000
 Leave Link  401 at Thu Mar  5 12:53:53 2020, MaxMem=  6710886400 cpu:               3.1 elap:               0.2
 (Enter /opt/ohpc/pub/libs/gaussian/g16-A.03/sandybridge/g16/l502.exe)
 Keep R1 and R2 ints in memory in symmetry-blocked form, NReq=16815681.
 FoFCou: FMM=F IPFlag=           0 FMFlag=           0 FMFlg1=           0
         NFxFlg=           0 DoJE=F BraDBF=F KetDBF=F FulRan=T
         wScrn=  0.000000 ICntrl=       600 IOpCl=  0 I1Cent=           0 NGrid=           0
         NMat0=    1 NMatS0=   1653 NMatT0=    0 NMatD0=    1 NMtDS0=    0 NMtDT0=    0
 Petite list used in FoFCou.
 UHF open shell SCF:
 Using DIIS extrapolation, IDIIS=    10.
 NGot=  6710886400 LenX=  6710059561 LenY=  6710055871
 Requested convergence on RMS density matrix=1.00D-06 within  32 cycles.
 Requested convergence on MAX density matrix=1.00D-04.
 Requested convergence on             energy=1.00D-04.
 Virtual orbitals will be shifted by   0.500 hartree.
 No special actions if energy rises.
 Dynamic level shift is on during FON iterations.

 Cycle   1  Pass 1  IDiag  1:
 E= -197.903915735175    
 DIIS: error= 4.36D-02 at cycle   1 NSaved=   1.
 NSaved= 1 IEnMin= 1 EnMin= -197.903915735175     IErMin= 1 ErrMin= 4.36D-02
 ErrMax= 4.36D-02  0.00D+00 EMaxC= 1.00D+00 BMatC= 3.46D-01 BMatP= 3.46D-01
 IDIUse=1 WtCom= 1.00D+00 WtEn= 0.00D+00
 Coeff-Com:  0.100D+01
 Coeff:      0.100D+01
 Gap=     0.326 Goal=   None    Shift=    0.500
 T= 1721. Gap= 0.782 NK=0 IS=   19 IE=   57 IFin=   18
          NO(<0.9)=   0  NV(>0.1)=   0     18.00e < EF      0.00e >EF  Err=0.0D+00
 Gap=     0.326 Goal=   None    Shift=    0.500
 T= 1721. Gap= 0.782 NK=0 IS=   19 IE=   57 IFin=   18
          NO(<0.9)=   0  NV(>0.1)=   0     18.00e < EF      0.00e >EF  Err=0.0D+00
 GapD=    0.326 DampG=1.000 DampE=0.500 DampFc=0.5000 IDamp=-1.
 Damping current iteration by 5.00D-01
 RMSDP=7.13D-03 MaxDP=6.21D-02              OVMax= 8.18D-02

 Cycle   2  Pass 1  IDiag  1:
 E= -197.967499894174     Delta-E=       -0.063584158999 Rises=F Damp=T
 DIIS: error= 1.95D-02 at cycle   2 NSaved=   2.
 NSaved= 2 IEnMin= 2 EnMin= -197.967499894174     IErMin= 2 ErrMin= 1.95D-02
 ErrMax= 1.95D-02  0.00D+00 EMaxC= 1.00D+00 BMatC= 6.69D-02 BMatP= 3.46D-01
 IDIUse=1 WtCom= 1.00D+00 WtEn= 0.00D+00
 Coeff-Com: -0.707D+00 0.171D+01
 Coeff:     -0.707D+00 0.171D+01
 Gap=     0.382 Goal=   None    Shift=    0.500
 T= 1598. Gap= 0.869 NK=0 IS=   19 IE=   57 IFin=   18
          NO(<0.9)=   0  NV(>0.1)=   0     18.00e < EF      0.00e >EF  Err=0.0D+00
 Gap=     0.382 Goal=   None    Shift=    0.500
 T= 1598. Gap= 0.869 NK=0 IS=   19 IE=   57 IFin=   18
          NO(<0.9)=   0  NV(>0.1)=   0     18.00e < EF      0.00e >EF  Err=0.0D+00
 GapD=    0.382 DampG=1.000 DampE=0.500 DampFc=0.5000 IDamp=-1.
 Damping current iteration by 5.00D-01
 RMSDP=3.83D-03 MaxDP=2.50D-02 DE=-6.36D-02 OVMax= 9.14D-03

 Cycle   3  Pass 1  IDiag  1:
 E= -197.990261372692     Delta-E=       -0.022761478519 Rises=F Damp=T
 DIIS: error= 8.98D-03 at cycle   3 NSaved=   3.
 NSaved= 3 IEnMin= 3 EnMin= -197.990261372692     IErMin= 3 ErrMin= 8.98D-03
 ErrMax= 8.98D-03  0.00D+00 EMaxC= 1.00D+00 BMatC= 1.41D-02 BMatP= 6.69D-02
 IDIUse=1 WtCom= 1.00D+00 WtEn= 0.00D+00
 Coeff-Com:  0.141D+00-0.127D+01 0.213D+01
 Coeff:      0.141D+00-0.127D+01 0.213D+01
 Gap=     0.367 Goal=   None    Shift=    0.500
 T= 1363. Gap= 0.867 NK=0 IS=   19 IE=   57 IFin=   18
          NO(<0.9)=   0  NV(>0.1)=   0     18.00e < EF      0.00e >EF  Err=0.0D+00
 Gap=     0.367 Goal=   None    Shift=    0.500
 T= 1363. Gap= 0.867 NK=0 IS=   19 IE=   57 IFin=   18
          NO(<0.9)=   0  NV(>0.1)=   0     18.00e < EF      0.00e >EF  Err=0.0D+00
 GapD=    0.367 DampG=1.000 DampE=1.000 DampFc=1.0000 IDamp=-1.
 RMSDP=1.99D-03 MaxDP=1.34D-02 DE=-2.28D-02 OVMax= 7.44D-03

 Cycle   4  Pass 1  IDiag  1:
 E= -198.008991829846     Delta-E=       -0.018730457154 Rises=F Damp=F
 DIIS: error= 1.66D-03 at cycle   4 NSaved=   4.
 NSaved= 4 IEnMin= 4 EnMin= -198.008991829846     IErMin= 4 ErrMin= 1.66D-03
 ErrMax= 1.66D-03  0.00D+00 EMaxC= 1.00D+00 BMatC= 4.03D-04 BMatP= 1.41D-02
 IDIUse=1 WtCom= 1.00D+00 WtEn= 0.00D+00
 Coeff-Com:  0.113D+00-0.735D-01-0.306D+00 0.127D+01
 Coeff:      0.113D+00-0.735D-01-0.306D+00 0.127D+01
 Gap=     0.369 Goal=   None    Shift=    0.500
 T=  839. Gap= 0.869 NK=0 IS=   19 IE=   57 IFin=   18
          NO(<0.9)=   0  NV(>0.1)=   0     18.00e < EF      0.00e >EF  Err=0.0D+00
 Gap=     0.369 Goal=   None    Shift=    0.500
 T=  839. Gap= 0.869 NK=0 IS=   19 IE=   57 IFin=   18
          NO(<0.9)=   0  NV(>0.1)=   0     18.00e < EF      0.00e >EF  Err=0.0D+00
 GapD=    0.369 DampG=1.000 DampE=1.000 DampFc=1.0000 IDamp=-1.
 RMSDP=3.62D-04 MaxDP=2.84D-03 DE=-1.87D-02 OVMax= 3.46D-03

 Cycle   5  Pass 1  IDiag  1:
 E= -198.009174422922     Delta-E=       -0.000182593076 Rises=F Damp=F
 DIIS: error= 9.74D-04 at cycle   5 NSaved=   5.
 NSaved= 5 IEnMin= 5 EnMin= -198.009174422922     IErMin= 5 ErrMin= 9.74D-04
 ErrMax= 9.74D-04  0.00D+00 EMaxC= 1.00D+00 BMatC= 6.65D-05 BMatP= 4.03D-04
 IDIUse=1 WtCom= 1.00D+00 WtEn= 0.00D+00
 Coeff-Com: -0.473D-01 0.231D+00-0.298D+00-0.690D+00 0.180D+01
 Coeff:     -0.473D-01 0.231D+00-0.298D+00-0.690D+00 0.180D+01
 Gap=     0.368 Goal=   None    Shift=    0.500
 Gap=     0.368 Goal=   None    Shift=    0.500
 RMSDP=2.12D-04 MaxDP=1.68D-03 DE=-1.83D-04 OVMax= 3.05D-03

 Cycle   6  Pass 1  IDiag  1:
 E= -198.009226967929     Delta-E=       -0.000052545006 Rises=F Damp=F
 DIIS: error= 6.63D-04 at cycle   6 NSaved=   6.
 NSaved= 6 IEnMin= 6 EnMin= -198.009226967929     IErMin= 6 ErrMin= 6.63D-04
 ErrMax= 6.63D-04  0.00D+00 EMaxC= 1.00D+00 BMatC= 1.51D-05 BMatP= 6.65D-05
 IDIUse=1 WtCom= 1.00D+00 WtEn= 0.00D+00
 Coeff-Com:  0.220D-02-0.608D-01 0.110D+00 0.254D+00-0.183D+01 0.253D+01
 Coeff:      0.220D-02-0.608D-01 0.110D+00 0.254D+00-0.183D+01 0.253D+01
 Gap=     0.368 Goal=   None    Shift=    0.500
 Gap=     0.368 Goal=   None    Shift=    0.500
 RMSDP=1.09D-04 MaxDP=8.22D-04 DE=-5.25D-05 OVMax= 1.96D-03

 Cycle   7  Pass 1  IDiag  1:
 E= -198.009242379561     Delta-E=       -0.000015411632 Rises=F Damp=F
 DIIS: error= 4.24D-04 at cycle   7 NSaved=   7.
 NSaved= 7 IEnMin= 7 EnMin= -198.009242379561     IErMin= 7 ErrMin= 4.24D-04
 ErrMax= 4.24D-04  0.00D+00 EMaxC= 1.00D+00 BMatC= 4.34D-06 BMatP= 1.51D-05
 IDIUse=1 WtCom= 1.00D+00 WtEn= 0.00D+00
 Coeff-Com: -0.280D-02 0.693D-01-0.130D+00 0.633D-01 0.735D+00-0.280D+01
 Coeff-Com:  0.306D+01
 Coeff:     -0.280D-02 0.693D-01-0.130D+00 0.633D-01 0.735D+00-0.280D+01
 Coeff:      0.306D+01
 Gap=     0.368 Goal=   None    Shift=    0.500
 Gap=     0.368 Goal=   None    Shift=    0.500
 RMSDP=5.03D-05 MaxDP=3.87D-04 DE=-1.54D-05 OVMax= 1.17D-03

 Cycle   8  Pass 1  IDiag  1:
 E= -198.009246819844     Delta-E=       -0.000004440283 Rises=F Damp=F
 DIIS: error= 2.65D-04 at cycle   8 NSaved=   8.
 NSaved= 8 IEnMin= 8 EnMin= -198.009246819844     IErMin= 8 ErrMin= 2.65D-04
 ErrMax= 2.65D-04  0.00D+00 EMaxC= 1.00D+00 BMatC= 1.56D-06 BMatP= 4.34D-06
 IDIUse=1 WtCom= 1.00D+00 WtEn= 0.00D+00
 Coeff-Com: -0.369D-02 0.544D-01-0.962D-01 0.243D-01 0.527D+00-0.142D+01
 Coeff-Com:  0.420D+00 0.149D+01
 Coeff:     -0.369D-02 0.544D-01-0.962D-01 0.243D-01 0.527D+00-0.142D+01
 Coeff:      0.420D+00 0.149D+01
 Gap=     0.368 Goal=   None    Shift=    0.500
 Gap=     0.368 Goal=   None    Shift=    0.500
 RMSDP=2.31D-05 MaxDP=1.77D-04 DE=-4.44D-06 OVMax= 6.70D-04

 Cycle   9  Pass 1  IDiag  1:
 E= -198.009248115065     Delta-E=       -0.000001295221 Rises=F Damp=F
 DIIS: error= 1.51D-04 at cycle   9 NSaved=   9.
 NSaved= 9 IEnMin= 9 EnMin= -198.009248115065     IErMin= 9 ErrMin= 1.51D-04
 ErrMax= 1.51D-04  0.00D+00 EMaxC= 1.00D+00 BMatC= 5.23D-07 BMatP= 1.56D-06
 IDIUse=1 WtCom= 1.00D+00 WtEn= 0.00D+00
 Coeff-Com: -0.131D-02 0.772D-02-0.110D-01 0.689D-02-0.291D-01 0.355D+00
 Coeff-Com: -0.944D+00-0.218D+00 0.183D+01
 Coeff:     -0.131D-02 0.772D-02-0.110D-01 0.689D-02-0.291D-01 0.355D+00
 Coeff:     -0.944D+00-0.218D+00 0.183D+01
 Gap=     0.368 Goal=   None    Shift=    0.500
 Gap=     0.368 Goal=   None    Shift=    0.500
 RMSDP=1.15D-05 MaxDP=9.99D-05 DE=-1.30D-06 OVMax= 3.70D-04

 Cycle  10  Pass 1  IDiag  1:
 E= -198.009248495705     Delta-E=       -0.000000380640 Rises=F Damp=F
 DIIS: error= 8.97D-05 at cycle  10 NSaved=  10.
 NSaved=10 IEnMin=10 EnMin= -198.009248495705     IErMin=10 ErrMin= 8.97D-05
 ErrMax= 8.97D-05  0.00D+00 EMaxC= 1.00D+00 BMatC= 1.89D-07 BMatP= 5.23D-07
 IDIUse=1 WtCom= 1.00D+00 WtEn= 0.00D+00
 Coeff-Com:  0.903D-03-0.567D-02 0.777D-02 0.134D-01-0.799D-01 0.602D-01
 Coeff-Com:  0.461D+00-0.102D+01-0.722D+00 0.229D+01
 Coeff:      0.903D-03-0.567D-02 0.777D-02 0.134D-01-0.799D-01 0.602D-01
 Coeff:      0.461D+00-0.102D+01-0.722D+00 0.229D+01
 Gap=     0.368 Goal=   None    Shift=    0.500
 Gap=     0.368 Goal=   None    Shift=    0.500
 RMSDP=5.81D-06 MaxDP=5.22D-05 DE=-3.81D-07 OVMax= 2.08D-04

 Cycle  11  Pass 1  IDiag  1:
 E= -198.009248612232     Delta-E=       -0.000000116527 Rises=F Damp=F
 DIIS: error= 5.19D-05 at cycle  11 NSaved=  11.
 NSaved=11 IEnMin=11 EnMin= -198.009248612232     IErMin=11 ErrMin= 5.19D-05
 ErrMax= 5.19D-05  0.00D+00 EMaxC= 1.00D+00 BMatC= 6.69D-08 BMatP= 1.89D-07
 IDIUse=1 WtCom= 1.00D+00 WtEn= 0.00D+00
 Coeff-Com: -0.154D-03 0.178D-02-0.305D-02 0.144D-02 0.117D-01-0.192D-01
 Coeff-Com:  0.588D-02-0.117D-01 0.315D+00-0.204D+01 0.273D+01
 Coeff:     -0.154D-03 0.178D-02-0.305D-02 0.144D-02 0.117D-01-0.192D-01
 Coeff:      0.588D-02-0.117D-01 0.315D+00-0.204D+01 0.273D+01
 Gap=     0.368 Goal=   None    Shift=    0.500
 Gap=     0.368 Goal=   None    Shift=    0.500
 RMSDP=2.97D-06 MaxDP=2.76D-05 DE=-1.17D-07 OVMax= 1.17D-04

 Cycle  12  Pass 1  IDiag  1:
 E= -198.009248648732     Delta-E=       -0.000000036501 Rises=F Damp=F
 DIIS: error= 2.95D-05 at cycle  12 NSaved=  12.
 NSaved=12 IEnMin=12 EnMin= -198.009248648732     IErMin=12 ErrMin= 2.95D-05
 ErrMax= 2.95D-05  0.00D+00 EMaxC= 1.00D+00 BMatC= 2.25D-08 BMatP= 6.69D-08
 IDIUse=1 WtCom= 1.00D+00 WtEn= 0.00D+00
 Coeff-Com: -0.161D-04-0.208D-05 0.540D-04 0.136D-02-0.926D-02 0.214D-01
 Coeff-Com: -0.170D-01-0.268D-01 0.384D-01 0.727D+00-0.313D+01 0.340D+01
 Coeff:     -0.161D-04-0.208D-05 0.540D-04 0.136D-02-0.926D-02 0.214D-01
 Coeff:     -0.170D-01-0.268D-01 0.384D-01 0.727D+00-0.313D+01 0.340D+01
 Gap=     0.368 Goal=   None    Shift=    0.500
 Gap=     0.368 Goal=   None    Shift=    0.500
 RMSDP=1.56D-06 MaxDP=1.52D-05 DE=-3.65D-08 OVMax= 6.46D-05

 Cycle  13  Pass 1  IDiag  1:
 E= -198.009248659936     Delta-E=       -0.000000011203 Rises=F Damp=F
 DIIS: error= 1.66D-05 at cycle  13 NSaved=  13.
 NSaved=13 IEnMin=13 EnMin= -198.009248659936     IErMin=13 ErrMin= 1.66D-05
 ErrMax= 1.66D-05  0.00D+00 EMaxC= 1.00D+00 BMatC= 7.54D-09 BMatP= 2.25D-08
 IDIUse=1 WtCom= 1.00D+00 WtEn= 0.00D+00
 Coeff-Com:  0.883D-04-0.574D-03 0.797D-03 0.132D-02-0.859D-02 0.123D-01
 Coeff-Com:  0.273D-01-0.759D-01-0.222D-01-0.307D-01 0.112D+01-0.351D+01
 Coeff-Com:  0.349D+01
 Coeff:      0.883D-04-0.574D-03 0.797D-03 0.132D-02-0.859D-02 0.123D-01
 Coeff:      0.273D-01-0.759D-01-0.222D-01-0.307D-01 0.112D+01-0.351D+01
 Coeff:      0.349D+01
 Gap=     0.368 Goal=   None    Shift=    0.500
 Gap=     0.368 Goal=   None    Shift=    0.500
 RMSDP=8.30D-07 MaxDP=8.37D-06 DE=-1.12D-08 OVMax= 3.56D-05

 SCF Done:  E(ULC-wHPBE) =  -198.009248660     A.U. after   13 cycles
            NFock= 13  Conv=0.83D-06     -V/T= 2.0254
 <Sx>= 0.0000 <Sy>= 0.0000 <Sz>= 0.0000 <S**2>=-0.0000 S=-0.0000
 <L.S>= 0.000000000000E+00
 KE= 1.931112836297D+02 PE=-7.619320933520D+02 EE= 2.147988185763D+02
 Annihilation of the first spin contaminant:
 S**2 before annihilation     0.0000,   after     0.0000
 Leave Link  502 at Thu Mar  5 12:53:55 2020, MaxMem=  6710886400 cpu:              21.2 elap:               1.4
 (Enter /opt/ohpc/pub/libs/gaussian/g16-A.03/sandybridge/g16/l508.exe)
 QCSCF skips out because SCF is already converged.
 Leave Link  508 at Thu Mar  5 12:53:55 2020, MaxMem=  6710886400 cpu:               0.2 elap:               0.0
 (Enter /opt/ohpc/pub/libs/gaussian/g16-A.03/sandybridge/g16/l601.exe)
 Copying SCF densities to generalized density rwf, IOpCl= 1 IROHF=0.

 **********************************************************************

            Population analysis using the SCF density.

 **********************************************************************

 Orbital symmetries:
 Alpha Orbitals:
       Occupied  (B2) (A1) (B2) (A1) (A1) (A1) (A1) (B2) (A1) (B2)
                 (A1) (B2) (A1) (A1) (B2) (B1) (A2) (B1)
       Virtual   (A2) (B2) (A1) (B1) (A1) (B2) (A1) (B2) (A1) (A1)
                 (B2) (A1) (B2) (B2) (B1) (A2) (A1) (B1) (A1) (B2)
                 (A1) (A2) (B1) (B2) (B2) (A1) (B2) (A1) (A1) (B2)
                 (A1) (A1) (A1) (B2) (A1) (B2) (A1) (A1) (B2)
 Beta  Orbitals:
       Occupied  (B2) (A1) (B2) (A1) (A1) (A1) (A1) (B2) (A1) (B2)
                 (A1) (B2) (A1) (A1) (B2) (B1) (A2) (B1)
       Virtual   (A2) (B2) (A1) (B1) (A1) (B2) (A1) (B2) (A1) (A1)
                 (B2) (A1) (B2) (B2) (B1) (A2) (A1) (B1) (A1) (B2)
                 (A1) (A2) (B1) (B2) (B2) (A1) (B2) (A1) (A1) (B2)
                 (A1) (A1) (A1) (B2) (A1) (B2) (A1) (A1) (B2)
 The electronic state is 1-A1.
 Alpha  occ. eigenvalues --  -10.21611 -10.21609 -10.18048 -10.18048 -10.14424
 Alpha  occ. eigenvalues --   -1.08100  -0.95191  -0.92231  -0.77613  -0.76296
 Alpha  occ. eigenvalues --   -0.72041  -0.61310  -0.60504  -0.57453  -0.56123
 Alpha  occ. eigenvalues --   -0.55101  -0.41113  -0.36783
 Alpha virt. eigenvalues --    0.00064   0.01109   0.05601   0.07625   0.09862
 Alpha virt. eigenvalues --    0.14607   0.16319   0.18159   0.19000   0.31345
 Alpha virt. eigenvalues --    0.32632   0.42663   0.43202   0.52202   0.53817
 Alpha virt. eigenvalues --    0.60337   0.61098   0.61249   0.63027   0.64446
 Alpha virt. eigenvalues --    0.65696   0.66860   0.69414   0.76548   0.82503
 Alpha virt. eigenvalues --    0.85348   0.86883   0.87044   0.88907   0.95813
 Alpha virt. eigenvalues --    0.96007   0.99154   1.03657   1.10140   1.18166
 Alpha virt. eigenvalues --    1.19811   1.26748   1.47801   1.48870
  Beta  occ. eigenvalues --  -10.21611 -10.21609 -10.18048 -10.18048 -10.14424
  Beta  occ. eigenvalues --   -1.08100  -0.95191  -0.92231  -0.77613  -0.76296
  Beta  occ. eigenvalues --   -0.72041  -0.61310  -0.60504  -0.57453  -0.56123
  Beta  occ. eigenvalues --   -0.55101  -0.41113  -0.36783
  Beta virt. eigenvalues --    0.00064   0.01109   0.05601   0.07625   0.09862
  Beta virt. eigenvalues --    0.14607   0.16319   0.18159   0.19000   0.31345
  Beta virt. eigenvalues --    0.32632   0.42663   0.43202   0.52202   0.53817
  Beta virt. eigenvalues --    0.60337   0.61098   0.61249   0.63027   0.64446
  Beta virt. eigenvalues --    0.65696   0.66860   0.69414   0.76548   0.82503
  Beta virt. eigenvalues --    0.85348   0.86883   0.87044   0.88907   0.95813
  Beta virt. eigenvalues --    0.96007   0.99154   1.03657   1.10140   1.18166
  Beta virt. eigenvalues --    1.19811   1.26748   1.47801   1.48870
          Condensed to atoms (all electrons):
               1          2          3          4          5          6
     1  C    5.451925   0.472359  -0.055974  -0.127366   0.254059   0.167226
     2  C    0.472359   4.913155   0.550792  -0.017569  -0.127366  -0.019337
     3  C   -0.055974   0.550792   4.859992   0.550792  -0.055974   0.005205
     4  C   -0.127366  -0.017569   0.550792   4.913155   0.472359  -0.019337
     5  C    0.254059  -0.127366  -0.055974   0.472359   5.451925   0.167226
     6  H    0.167226  -0.019337   0.005205  -0.019337   0.167226   0.384666
     7  H    0.347001   0.000371  -0.000303   0.003914  -0.022712  -0.013056
     8  H   -0.036138   0.365381  -0.015769   0.004237   0.001564   0.000761
     9  H    0.006037  -0.037292   0.374898  -0.037292   0.006037  -0.000082
    10  H    0.001564   0.004237  -0.015769   0.365381  -0.036138   0.000761
    11  H   -0.022712   0.003914  -0.000303   0.000371   0.347001  -0.013056
               7          8          9         10         11
     1  C    0.347001  -0.036138   0.006037   0.001564  -0.022712
     2  C    0.000371   0.365381  -0.037292   0.004237   0.003914
     3  C   -0.000303  -0.015769   0.374898  -0.015769  -0.000303
     4  C    0.003914   0.004237  -0.037292   0.365381   0.000371
     5  C   -0.022712   0.001564   0.006037  -0.036138   0.347001
     6  H   -0.013056   0.000761  -0.000082   0.000761  -0.013056
     7  H    0.451308  -0.000016  -0.000096  -0.000032   0.000774
     8  H   -0.000016   0.497852  -0.001747  -0.000148  -0.000032
     9  H   -0.000096  -0.001747   0.533366  -0.001747  -0.000096
    10  H   -0.000032  -0.000148  -0.001747   0.497852  -0.000016
    11  H    0.000774  -0.000032  -0.000096  -0.000016   0.451308
          Atomic-Atomic Spin Densities.
               1          2          3          4          5          6
     1  C    0.000000   0.000000  -0.000000  -0.000000  -0.000000   0.000000
     2  C    0.000000  -0.000000   0.000000   0.000000  -0.000000  -0.000000
     3  C   -0.000000   0.000000   0.000000   0.000000  -0.000000   0.000000
     4  C   -0.000000   0.000000   0.000000  -0.000000   0.000000  -0.000000
     5  C   -0.000000  -0.000000  -0.000000   0.000000   0.000000   0.000000
     6  H    0.000000  -0.000000   0.000000  -0.000000   0.000000   0.000000
     7  H    0.000000   0.000000   0.000000  -0.000000  -0.000000  -0.000000
     8  H    0.000000  -0.000000   0.000000  -0.000000   0.000000   0.000000
     9  H   -0.000000   0.000000  -0.000000   0.000000  -0.000000  -0.000000
    10  H    0.000000  -0.000000   0.000000  -0.000000   0.000000   0.000000
    11  H   -0.000000  -0.000000   0.000000   0.000000   0.000000  -0.000000
               7          8          9         10         11
     1  C    0.000000   0.000000  -0.000000   0.000000  -0.000000
     2  C    0.000000  -0.000000   0.000000  -0.000000  -0.000000
     3  C    0.000000   0.000000  -0.000000   0.000000   0.000000
     4  C   -0.000000  -0.000000   0.000000  -0.000000   0.000000
     5  C   -0.000000   0.000000  -0.000000   0.000000   0.000000
     6  H   -0.000000   0.000000  -0.000000   0.000000  -0.000000
     7  H    0.000000  -0.000000   0.000000  -0.000000   0.000000
     8  H   -0.000000   0.000000   0.000000  -0.000000  -0.000000
     9  H    0.000000   0.000000  -0.000000   0.000000   0.000000
    10  H   -0.000000  -0.000000   0.000000   0.000000  -0.000000
    11  H    0.000000  -0.000000   0.000000  -0.000000   0.000000
 Mulliken charges and spin densities:
               1          2
     1  C   -0.457983   0.000000
     2  C   -0.108645  -0.000000
     3  C   -0.197586   0.000000
     4  C   -0.108645  -0.000000
     5  C   -0.457983   0.000000
     6  H    0.339021   0.000000
     7  H    0.232848   0.000000
     8  H    0.184054  -0.000000
     9  H    0.158016  -0.000000
    10  H    0.184054  -0.000000
    11  H    0.232848   0.000000
 Sum of Mulliken charges =  -0.00000   0.00000
 Mulliken charges and spin densities with hydrogens summed into heavy atoms:
               1          2
     1  C    0.113887   0.000000
     2  C    0.075409  -0.000000
     3  C   -0.039570   0.000000
     4  C    0.075409  -0.000000
     5  C   -0.225134   0.000000
 Electronic spatial extent (au):  <R**2>=            334.7692
 Charge=              0.0000 electrons
 Dipole moment (field-independent basis, Debye):
    X=             -0.0000    Y=             -0.0000    Z=             -1.9751  Tot=              1.9751
 Quadrupole moment (field-independent basis, Debye-Ang):
   XX=            -34.8348   YY=            -25.2685   ZZ=            -23.2434
   XY=              0.0000   XZ=              0.0000   YZ=             -0.0000
 Traceless Quadrupole moment (field-independent basis, Debye-Ang):
   XX=             -7.0526   YY=              2.5137   ZZ=              4.5388
   XY=              0.0000   XZ=              0.0000   YZ=             -0.0000
 Octapole moment (field-independent basis, Debye-Ang**2):
  XXX=              0.0000  YYY=              0.0000  ZZZ=             -8.8616  XYY=              0.0000
  XXY=             -0.0000  XXZ=              0.8284  XZZ=              0.0000  YZZ=             -0.0000
  YYZ=             -0.9507  XYZ=             -0.0000
 Hexadecapole moment (field-independent basis, Debye-Ang**3):
 XXXX=            -36.8009 YYYY=           -179.8064 ZZZZ=           -166.9748 XXXY=             -0.0000
 XXXZ=             -0.0000 YYYX=             -0.0000 YYYZ=              0.0000 ZZZX=             -0.0000
 ZZZY=              0.0000 XXYY=            -46.1859 XXZZ=            -45.1833 YYZZ=            -57.0660
 XXYZ=             -0.0000 YYXZ=             -0.0000 ZZXY=             -0.0000
 N-N= 1.560127424860D+02 E-N=-7.619320712928D+02  KE= 1.931112836297D+02
 Symmetry A1   KE= 1.110428702494D+02
 Symmetry A2   KE= 2.454516068322D+00
 Symmetry B1   KE= 4.315095667455D+00
 Symmetry B2   KE= 7.529880164452D+01
 Symmetry A1   SP= 6.793796692266D-15
 Symmetry A2   SP=-6.122132390038D-15
 Symmetry B1   SP= 1.886618984132D-16
 Symmetry B2   SP= 1.018966869098D-14
                          Isotropic Fermi Contact Couplings
        Atom                 a.u.       MegaHertz       Gauss      10(-4) cm-1
     1  C(13)              0.00000       0.00000       0.00000       0.00000
     2  C(13)              0.00000       0.00000       0.00000       0.00000
     3  C(13)             -0.00000      -0.00000      -0.00000      -0.00000
     4  C(13)              0.00000       0.00000       0.00000       0.00000
     5  C(13)              0.00000       0.00000       0.00000       0.00000
     6  H(1)               0.00000       0.00000       0.00000       0.00000
     7  H(1)              -0.00000      -0.00000      -0.00000      -0.00000
     8  H(1)               0.00000       0.00000       0.00000       0.00000
     9  H(1)               0.00000       0.00000       0.00000       0.00000
    10  H(1)               0.00000       0.00000       0.00000       0.00000
    11  H(1)              -0.00000      -0.00000      -0.00000      -0.00000
 --------------------------------------------------------
       Center         ----  Spin Dipole Couplings  ----
                      3XX-RR        3YY-RR        3ZZ-RR
 --------------------------------------------------------
     1   Atom        0.000000      0.000000      0.000000
     2   Atom        0.000000      0.000000      0.000000
     3   Atom        0.000000      0.000000      0.000000
     4   Atom        0.000000      0.000000      0.000000
     5   Atom        0.000000      0.000000      0.000000
     6   Atom        0.000000      0.000000      0.000000
     7   Atom        0.000000      0.000000      0.000000
     8   Atom        0.000000      0.000000      0.000000
     9   Atom        0.000000      0.000000      0.000000
    10   Atom        0.000000      0.000000      0.000000
    11   Atom        0.000000      0.000000      0.000000
 --------------------------------------------------------
                        XY            XZ            YZ
 --------------------------------------------------------
     1   Atom        0.000000      0.000000      0.000000
     2   Atom        0.000000      0.000000      0.000000
     3   Atom        0.000000      0.000000      0.000000
     4   Atom        0.000000      0.000000      0.000000
     5   Atom        0.000000      0.000000      0.000000
     6   Atom        0.000000      0.000000      0.000000
     7   Atom        0.000000      0.000000      0.000000
     8   Atom        0.000000      0.000000      0.000000
     9   Atom        0.000000      0.000000      0.000000
    10   Atom        0.000000      0.000000      0.000000
    11   Atom        0.000000      0.000000      0.000000
 --------------------------------------------------------


 ---------------------------------------------------------------------------------
              Anisotropic Spin Dipole Couplings in Principal Axis System
 ---------------------------------------------------------------------------------

       Atom             a.u.   MegaHertz   Gauss  10(-4) cm-1        Axes

              Baa     0.0000     0.000     0.000     0.000  1.0000  0.0000  0.0000
     1 C(13)  Bbb     0.0000     0.000     0.000     0.000 -0.0000  1.0000  0.0000
              Bcc     0.0000     0.000     0.000     0.000  0.0000  0.0000  1.0000
 
              Baa     0.0000     0.000     0.000     0.000  1.0000  0.0000  0.0000
     2 C(13)  Bbb     0.0000     0.000     0.000     0.000 -0.0000  1.0000  0.0000
              Bcc     0.0000     0.000     0.000     0.000  0.0000  0.0000  1.0000
 
              Baa     0.0000     0.000     0.000     0.000  1.0000  0.0000  0.0000
     3 C(13)  Bbb     0.0000     0.000     0.000     0.000 -0.0000  1.0000  0.0000
              Bcc     0.0000     0.000     0.000     0.000  0.0000  0.0000  1.0000
 
              Baa     0.0000     0.000     0.000     0.000  1.0000  0.0000  0.0000
     4 C(13)  Bbb     0.0000     0.000     0.000     0.000 -0.0000  1.0000  0.0000
              Bcc     0.0000     0.000     0.000     0.000  0.0000  0.0000  1.0000
 
              Baa     0.0000     0.000     0.000     0.000  1.0000  0.0000  0.0000
     5 C(13)  Bbb     0.0000     0.000     0.000     0.000 -0.0000  1.0000  0.0000
              Bcc     0.0000     0.000     0.000     0.000  0.0000  0.0000  1.0000
 
              Baa     0.0000     0.000     0.000     0.000  1.0000  0.0000  0.0000
     6 H(1)   Bbb     0.0000     0.000     0.000     0.000 -0.0000  1.0000  0.0000
              Bcc     0.0000     0.000     0.000     0.000  0.0000  0.0000  1.0000
 
              Baa     0.0000     0.000     0.000     0.000  1.0000  0.0000  0.0000
     7 H(1)   Bbb     0.0000     0.000     0.000     0.000 -0.0000  1.0000  0.0000
              Bcc     0.0000     0.000     0.000     0.000  0.0000  0.0000  1.0000
 
              Baa     0.0000     0.000     0.000     0.000  1.0000  0.0000  0.0000
     8 H(1)   Bbb     0.0000     0.000     0.000     0.000 -0.0000  1.0000  0.0000
              Bcc     0.0000     0.000     0.000     0.000  0.0000  0.0000  1.0000
 
              Baa     0.0000     0.000     0.000     0.000  1.0000  0.0000  0.0000
     9 H(1)   Bbb     0.0000     0.000     0.000     0.000 -0.0000  1.0000  0.0000
              Bcc     0.0000     0.000     0.000     0.000  0.0000  0.0000  1.0000
 
              Baa     0.0000     0.000     0.000     0.000  1.0000  0.0000  0.0000
    10 H(1)   Bbb     0.0000     0.000     0.000     0.000 -0.0000  1.0000  0.0000
              Bcc     0.0000     0.000     0.000     0.000  0.0000  0.0000  1.0000
 
              Baa     0.0000     0.000     0.000     0.000  1.0000  0.0000  0.0000
    11 H(1)   Bbb     0.0000     0.000     0.000     0.000 -0.0000  1.0000  0.0000
              Bcc     0.0000     0.000     0.000     0.000  0.0000  0.0000  1.0000
 

 ---------------------------------------------------------------------------------

 No NMR shielding tensors so no spin-rotation constants.
 Leave Link  601 at Thu Mar  5 12:53:55 2020, MaxMem=  6710886400 cpu:               2.1 elap:               0.2
 (Enter /opt/ohpc/pub/libs/gaussian/g16-A.03/sandybridge/g16/l9999.exe)

 Test job not archived.
 1\1\GINC-CNODE212\SP\ULC-wHPBE\6-31G\C5H6\SMGO234\05-Mar-2020\0\\#P uL
 C-wHPBE/6-31G iop(3/130=0195900000, 3/131=0195900000, 3/119=0804100000
 , 3/120=0804100000) scf=(conver=6,fermi,ndamp=35,noincfock,novaracc,vs
 hift=500,xqc)\\H6 C5\\0,1\C,0,0.,0.878804,-0.931542\C,0,0.,1.128157,0.
 423457\C,0,0.,0.,1.240879\C,0,0.,-1.128157,0.423457\C,0,0.,-0.878804,-
 0.931542\H,0,0.,0.,-1.732269\H,0,0.,1.6083,-1.734053\H,0,0.,2.156626,0
 .76567\H,0,0.,0.,2.320778\H,0,0.,-2.156626,0.76567\H,0,0.,-1.6083,-1.7
 34053\\Version=EM64L-G16RevA.03\State=1-A1\HF=-198.0092487\S2=0.\S2-1=
 0.\S2A=0.\RMSD=8.298e-07\Dipole=0.,0.,-0.7770554\Quadrupole=-5.2434183
 ,1.8689009,3.3745174,0.,0.,0.\PG=C02V [C2(H1C1H1),SGV(C4H4)]\\@


 This summer one third of the nation will be ill-housed
 ill-nourished and ill-clad. Only they call it a vacation.
 -- Jonas Salk
 Job cpu time:       0 days  0 hours  0 minutes 47.2 seconds.
 Elapsed time:       0 days  0 hours  0 minutes  3.6 seconds.
 File lengths (MBytes):  RWF=    272 Int=      0 D2E=      0 Chk=     32 Scr=     32
 Normal termination of Gaussian 16 at Thu Mar  5 12:53:55 2020.
