 Entering Gaussian System, Link 0=g16
 Input=a1b_tune_c1.gjf
 Output=a1b_tune_c1.log
 Initial command:
 /opt/ohpc/pub/libs/gaussian/g16-A.03/sandybridge/g16/l1.exe "/scratch/smgo234/Ocelot/test/a1b/tuning_a1b_acycle2/Gau-84223.inp" -scrdir="/scratch/smgo234/Ocelot/test/a1b/tuning_a1b_acycle2/"
 Entering Link 1 = /opt/ohpc/pub/libs/gaussian/g16-A.03/sandybridge/g16/l1.exe PID=     84224.
  
 Copyright (c) 1988,1990,1992,1993,1995,1998,2003,2009,2016,
            Gaussian, Inc.  All Rights Reserved.
  
 This is part of the Gaussian(R) 16 program.  It is based on
 the Gaussian(R) 09 system (copyright 2009, Gaussian, Inc.),
 the Gaussian(R) 03 system (copyright 2003, Gaussian, Inc.),
 the Gaussian(R) 98 system (copyright 1998, Gaussian, Inc.),
 the Gaussian(R) 94 system (copyright 1995, Gaussian, Inc.),
 the Gaussian 92(TM) system (copyright 1992, Gaussian, Inc.),
 the Gaussian 90(TM) system (copyright 1990, Gaussian, Inc.),
 the Gaussian 88(TM) system (copyright 1988, Gaussian, Inc.),
 the Gaussian 86(TM) system (copyright 1986, Carnegie Mellon
 University), and the Gaussian 82(TM) system (copyright 1983,
 Carnegie Mellon University). Gaussian is a federally registered
 trademark of Gaussian, Inc.
  
 This software contains proprietary and confidential information,
 including trade secrets, belonging to Gaussian, Inc.
  
 This software is provided under written license and may be
 used, copied, transmitted, or stored only in accord with that
 written license.
  
 The following legend is applicable only to US Government
 contracts under FAR:
  
                    RESTRICTED RIGHTS LEGEND
  
 Use, reproduction and disclosure by the US Government is
 subject to restrictions as set forth in subparagraphs (a)
 and (c) of the Commercial Computer Software - Restricted
 Rights clause in FAR 52.227-19.
  
 Gaussian, Inc.
 340 Quinnipiac St., Bldg. 40, Wallingford CT 06492
  
  
 ---------------------------------------------------------------
 Warning -- This program may not be used in any manner that
 competes with the business of Gaussian, Inc. or will provide
 assistance to any competitor of Gaussian, Inc.  The licensee
 of this program is prohibited from giving any competitor of
 Gaussian, Inc. access to this program.  By using this program,
 the user acknowledges that Gaussian, Inc. is engaged in the
 business of creating and licensing software in the field of
 computational chemistry and represents and warrants to the
 licensee that it is not a competitor of Gaussian, Inc. and that
 it will not use this program in any manner prohibited above.
 ---------------------------------------------------------------
  

 Cite this work as:
 Gaussian 16, Revision A.03,
 M. J. Frisch, G. W. Trucks, H. B. Schlegel, G. E. Scuseria, 
 M. A. Robb, J. R. Cheeseman, G. Scalmani, V. Barone, 
 G. A. Petersson, H. Nakatsuji, X. Li, M. Caricato, A. V. Marenich, 
 J. Bloino, B. G. Janesko, R. Gomperts, B. Mennucci, H. P. Hratchian, 
 J. V. Ortiz, A. F. Izmaylov, J. L. Sonnenberg, D. Williams-Young, 
 F. Ding, F. Lipparini, F. Egidi, J. Goings, B. Peng, A. Petrone, 
 T. Henderson, D. Ranasinghe, V. G. Zakrzewski, J. Gao, N. Rega, 
 G. Zheng, W. Liang, M. Hada, M. Ehara, K. Toyota, R. Fukuda, 
 J. Hasegawa, M. Ishida, T. Nakajima, Y. Honda, O. Kitao, H. Nakai, 
 T. Vreven, K. Throssell, J. A. Montgomery, Jr., J. E. Peralta, 
 F. Ogliaro, M. J. Bearpark, J. J. Heyd, E. N. Brothers, K. N. Kudin, 
 V. N. Staroverov, T. A. Keith, R. Kobayashi, J. Normand, 
 K. Raghavachari, A. P. Rendell, J. C. Burant, S. S. Iyengar, 
 J. Tomasi, M. Cossi, J. M. Millam, M. Klene, C. Adamo, R. Cammi, 
 J. W. Ochterski, R. L. Martin, K. Morokuma, O. Farkas, 
 J. B. Foresman, and D. J. Fox, Gaussian, Inc., Wallingford CT, 2016.
 
 ******************************************
 Gaussian 16:  EM64L-G16RevA.03 25-Dec-2016
                 5-Mar-2020 
 ******************************************
 %mem=50GB
 %nproc=16
 Will use up to   16 processors via shared memory.
 ----------------------------------------------------------------------
 #P uLC-wHPBE/6-31G iop(3/130=0290300000, 3/131=0290300000, 3/119=07097
 00000, 3/120=0709700000) scf=(conver=6,fermi,ndamp=35,noincfock,novara
 cc,vshift=500,xqc)
 ----------------------------------------------------------------------
 1/38=1,172=1/1;
 2/12=2,17=6,18=5,40=1/2;
 3/5=1,6=6,11=2,25=1,30=1,74=-71,116=2,119=709700000,120=709700000,130=290300000,131=290300000/1,2,3;
 4//1;
 5/5=100002,6=6,8=3,10=500,13=1,18=-1,22=13,38=1,93=35/2,8;
 6/7=2,8=2,9=2,10=2,28=1/1;
 99/5=1,9=1/99;
 Leave Link    1 at Thu Mar  5 12:54:04 2020, MaxMem=  6710886400 cpu:              19.8 elap:               1.3
 (Enter /opt/ohpc/pub/libs/gaussian/g16-A.03/sandybridge/g16/l101.exe)
 -----
 H6 C5
 -----
 Symbolic Z-matrix:
 Charge =  1 Multiplicity = 2
 C                     0.        0.8788   -0.93154 
 C                     0.        1.12816   0.42346 
 C                     0.        0.        1.24088 
 C                     0.       -1.12816   0.42346 
 C                     0.       -0.8788   -0.93154 
 H                     0.        0.       -1.73227 
 H                     0.        1.6083   -1.73405 
 H                     0.        2.15663   0.76567 
 H                     0.        0.        2.32078 
 H                     0.       -2.15663   0.76567 
 H                     0.       -1.6083   -1.73405 
 
 ITRead=  0  0  0  0  0  0  0  0  0  0  0
 MicOpt= -1 -1 -1 -1 -1 -1 -1 -1 -1 -1 -1
 NAtoms=     11 NQM=       11 NQMF=       0 NMMI=      0 NMMIF=      0
                NMic=       0 NMicF=      0.
                    Isotopes and Nuclear Properties:
 (Nuclear quadrupole moments (NQMom) in fm**2, nuclear magnetic moments (NMagM)
  in nuclear magnetons)

  Atom         1           2           3           4           5           6           7           8           9          10
 IAtWgt=          12          12          12          12          12           1           1           1           1           1
 AtmWgt=  12.0000000  12.0000000  12.0000000  12.0000000  12.0000000   1.0078250   1.0078250   1.0078250   1.0078250   1.0078250
 NucSpn=           0           0           0           0           0           1           1           1           1           1
 AtZEff=  -0.0000000  -0.0000000  -0.0000000  -0.0000000  -0.0000000  -0.0000000  -0.0000000  -0.0000000  -0.0000000  -0.0000000
 NQMom=    0.0000000   0.0000000   0.0000000   0.0000000   0.0000000   0.0000000   0.0000000   0.0000000   0.0000000   0.0000000
 NMagM=    0.0000000   0.0000000   0.0000000   0.0000000   0.0000000   2.7928460   2.7928460   2.7928460   2.7928460   2.7928460
 AtZNuc=   6.0000000   6.0000000   6.0000000   6.0000000   6.0000000   1.0000000   1.0000000   1.0000000   1.0000000   1.0000000

  Atom        11
 IAtWgt=           1
 AtmWgt=   1.0078250
 NucSpn=           1
 AtZEff=  -0.0000000
 NQMom=    0.0000000
 NMagM=    2.7928460
 AtZNuc=   1.0000000
 Leave Link  101 at Thu Mar  5 12:54:04 2020, MaxMem=  6710886400 cpu:               3.1 elap:               0.2
 (Enter /opt/ohpc/pub/libs/gaussian/g16-A.03/sandybridge/g16/l202.exe)
                          Input orientation:                          
 ---------------------------------------------------------------------
 Center     Atomic      Atomic             Coordinates (Angstroms)
 Number     Number       Type             X           Y           Z
 ---------------------------------------------------------------------
      1          6           0        0.000000    0.878804   -0.931542
      2          6           0        0.000000    1.128157    0.423457
      3          6           0        0.000000    0.000000    1.240879
      4          6           0        0.000000   -1.128157    0.423457
      5          6           0        0.000000   -0.878804   -0.931542
      6          1           0        0.000000    0.000000   -1.732269
      7          1           0        0.000000    1.608300   -1.734053
      8          1           0        0.000000    2.156626    0.765670
      9          1           0        0.000000    0.000000    2.320778
     10          1           0        0.000000   -2.156626    0.765670
     11          1           0        0.000000   -1.608300   -1.734053
 ---------------------------------------------------------------------
                    Distance matrix (angstroms):
                    1          2          3          4          5
     1  C    0.000000
     2  C    1.377752   0.000000
     3  C    2.343440   1.393168   0.000000
     4  C    2.421552   2.256314   1.393168   0.000000
     5  C    1.757608   2.421552   2.343440   1.377752   0.000000
     6  H    1.188890   2.433083   2.973148   2.433083   1.188890
     7  H    1.084522   2.210291   3.381841   3.484687   2.613371
     8  H    2.124466   1.083909   2.208361   3.302561   3.477695
     9  H    3.368959   2.207389   1.079899   2.207389   3.368959
    10  H    3.477695   3.302561   2.208361   1.083909   2.124466
    11  H    2.613371   3.484687   3.381841   2.210291   1.084522
                    6          7          8          9         10
     6  H    0.000000
     7  H    1.608301   0.000000
     8  H    3.300111   2.559155   0.000000
     9  H    4.053047   4.362142   2.658834   0.000000
    10  H    3.300111   4.519213   4.313252   2.658834   0.000000
    11  H    1.608301   3.216600   4.519213   4.362142   2.559155
                   11
    11  H    0.000000
 Stoichiometry    C5H6(1+,2)
 Framework group  C2V[C2(HCH),SGV(C4H4)]
 Deg. of freedom    10
 Full point group                 C2V     NOp   4
 Largest Abelian subgroup         C2V     NOp   4
 Largest concise Abelian subgroup C2      NOp   2
                         Standard orientation:                         
 ---------------------------------------------------------------------
 Center     Atomic      Atomic             Coordinates (Angstroms)
 Number     Number       Type             X           Y           Z
 ---------------------------------------------------------------------
      1          6           0        0.000000    0.878804   -0.931542
      2          6           0        0.000000    1.128157    0.423457
      3          6           0        0.000000   -0.000000    1.240879
      4          6           0       -0.000000   -1.128157    0.423457
      5          6           0       -0.000000   -0.878804   -0.931542
      6          1           0       -0.000000    0.000000   -1.732269
      7          1           0        0.000000    1.608300   -1.734053
      8          1           0        0.000000    2.156626    0.765670
      9          1           0        0.000000   -0.000000    2.320778
     10          1           0       -0.000000   -2.156626    0.765670
     11          1           0       -0.000000   -1.608300   -1.734053
 ---------------------------------------------------------------------
 Rotational constants (GHZ):           8.5259551           7.9375455           4.1106177
 Leave Link  202 at Thu Mar  5 12:54:04 2020, MaxMem=  6710886400 cpu:               0.7 elap:               0.1
 (Enter /opt/ohpc/pub/libs/gaussian/g16-A.03/sandybridge/g16/l301.exe)
 Standard basis: 6-31G (6D, 7F)
 Ernie: Thresh=  0.10000D-02 Tol=  0.10000D-05 Strict=F.
 There are    27 symmetry adapted cartesian basis functions of A1  symmetry.
 There are     4 symmetry adapted cartesian basis functions of A2  symmetry.
 There are     6 symmetry adapted cartesian basis functions of B1  symmetry.
 There are    20 symmetry adapted cartesian basis functions of B2  symmetry.
 There are    27 symmetry adapted basis functions of A1  symmetry.
 There are     4 symmetry adapted basis functions of A2  symmetry.
 There are     6 symmetry adapted basis functions of B1  symmetry.
 There are    20 symmetry adapted basis functions of B2  symmetry.
    57 basis functions,   134 primitive gaussians,    57 cartesian basis functions
    18 alpha electrons       17 beta electrons
       nuclear repulsion energy       156.0127424860 Hartrees.
 IExCor=33909 DFT=T Ex+Corr=LC-wHPBE ExCW=0 ScaHFX=  1.000000
 ScaDFX=  1.000000  1.000000  1.000000  1.000000 ScalE2=  1.000000  1.000000
 IRadAn=      5 IRanWt=     -1 IRanGd=            0 ICorTp=0 IEmpDi=  4
 HFx  wShort=  0.000000 wLong=  0.400000 cFull=  0.000000 cShort=  0.000000 cLong=  0.709700
 DFx  wShort=  0.000000 wLong=  0.400000 cFull=  0.000000 cShort=  1.000000 cLong=  0.709700
 NAtoms=   11 NActive=   11 NUniq=    7 SFac= 2.47D+00 NAtFMM=   60 NAOKFM=F Big=F
 Integral buffers will be    131072 words long.
 Raffenetti 2 integral format.
 Two-electron integral symmetry is turned on.
 Leave Link  301 at Thu Mar  5 12:54:04 2020, MaxMem=  6710886400 cpu:               0.9 elap:               0.1
 (Enter /opt/ohpc/pub/libs/gaussian/g16-A.03/sandybridge/g16/l302.exe)
 NPDir=0 NMtPBC=     1 NCelOv=     1 NCel=       1 NClECP=     1 NCelD=      1
         NCelK=      1 NCelE2=     1 NClLst=     1 CellRange=     0.0.
 One-electron integrals computed using PRISM.
 One-electron integral symmetry used in STVInt
 NBasis=    57 RedAO= T EigKep=  1.84D-03  NBF=    27     4     6    20
 NBsUse=    57 1.00D-06 EigRej= -1.00D+00 NBFU=    27     4     6    20
 Precomputing XC quadrature grid using
 IXCGrd= 4 IRadAn=           5 IRanWt=          -1 IRanGd=           0 AccXCQ= 0.00D+00.
 Generated NRdTot=       0 NPtTot=           0 NUsed=           0 NTot=          32
 NSgBfM=    57    57    57    57    57 MxSgAt=    11 MxSgA2=    11.
 Leave Link  302 at Thu Mar  5 12:54:05 2020, MaxMem=  6710886400 cpu:               2.6 elap:               0.2
 (Enter /opt/ohpc/pub/libs/gaussian/g16-A.03/sandybridge/g16/l303.exe)
 DipDrv:  MaxL=1.
 Leave Link  303 at Thu Mar  5 12:54:05 2020, MaxMem=  6710886400 cpu:               0.6 elap:               0.1
 (Enter /opt/ohpc/pub/libs/gaussian/g16-A.03/sandybridge/g16/l401.exe)
 ExpMin= 1.61D-01 ExpMax= 3.05D+03 ExpMxC= 4.57D+02 IAcc=3 IRadAn=         5 AccDes= 0.00D+00
 Harris functional with IExCor=33909 and IRadAn=       5 diagonalized for initial guess.
 HarFok:  IExCor=33909 AccDes= 0.00D+00 IRadAn=         5 IDoV= 1 UseB2=F ITyADJ=14
 ICtDFT=  3500011 ScaDFX=  1.000000  1.000000  1.000000  1.000000
 FoFCou: FMM=F IPFlag=           0 FMFlag=      100000 FMFlg1=           0
         NFxFlg=           0 DoJE=T BraDBF=F KetDBF=T FulRan=T
         wScrn=  0.000000 ICntrl=       500 IOpCl=  0 I1Cent=   200000004 NGrid=           0
         NMat0=    1 NMatS0=      1 NMatT0=    0 NMatD0=    1 NMtDS0=    0 NMtDT0=    0
 Petite list used in FoFCou.
 Harris En= -191.504663971412    
 JPrj=0 DoOrth=F DoCkMO=F.
 Initial guess orbital symmetries:
 Alpha Orbitals:
       Occupied  (A1) (B2) (A1) (B2) (A1) (A1) (A1) (B2) (A1) (B2)
                 (A1) (B2) (A1) (B2) (A1) (B1) (A2) (B1)
       Virtual   (A2) (B2) (B1) (A1) (A1) (B2) (A1) (B2) (A1) (B2)
                 (A1) (B2) (A1) (B2) (B1) (A1) (A2) (B1) (B2) (A1)
                 (A1) (A2) (B1) (B2) (B2) (A1) (B2) (A1) (A1) (B2)
                 (A1) (A1) (A1) (B2) (A1) (B2) (A1) (A1) (B2)
 Beta  Orbitals:
       Occupied  (A1) (B2) (A1) (B2) (A1) (A1) (A1) (B2) (A1) (B2)
                 (A1) (B2) (A1) (B2) (A1) (B1) (A2)
       Virtual   (B1) (A2) (B2) (B1) (A1) (A1) (B2) (A1) (B2) (A1)
                 (B2) (A1) (B2) (A1) (B2) (B1) (A1) (A2) (B1) (B2)
                 (A1) (A1) (A2) (B1) (B2) (B2) (A1) (B2) (A1) (A1)
                 (B2) (A1) (A1) (A1) (B2) (A1) (B2) (A1) (A1) (B2)
 The electronic state of the initial guess is 2-B1.
 Initial guess <Sx>= 0.0000 <Sy>= 0.0000 <Sz>= 0.5000 <S**2>= 0.7500 S= 0.5000
 Leave Link  401 at Thu Mar  5 12:54:05 2020, MaxMem=  6710886400 cpu:               3.0 elap:               0.2
 (Enter /opt/ohpc/pub/libs/gaussian/g16-A.03/sandybridge/g16/l502.exe)
 Keep R1 and R2 ints in memory in symmetry-blocked form, NReq=16815681.
 FoFCou: FMM=F IPFlag=           0 FMFlag=           0 FMFlg1=           0
         NFxFlg=           0 DoJE=F BraDBF=F KetDBF=F FulRan=T
         wScrn=  0.000000 ICntrl=       600 IOpCl=  0 I1Cent=           0 NGrid=           0
         NMat0=    1 NMatS0=   1653 NMatT0=    0 NMatD0=    1 NMtDS0=    0 NMtDT0=    0
 Petite list used in FoFCou.
 UHF open shell SCF:
 Using DIIS extrapolation, IDIIS=    10.
 NGot=  6710886400 LenX=  6710059561 LenY=  6710055871
 Requested convergence on RMS density matrix=1.00D-06 within  32 cycles.
 Requested convergence on MAX density matrix=1.00D-04.
 Requested convergence on             energy=1.00D-04.
 Virtual orbitals will be shifted by   0.500 hartree.
 No special actions if energy rises.
 Dynamic level shift is on during FON iterations.

 Cycle   1  Pass 1  IDiag  1:
 E= -196.261608544404    
 DIIS: error= 4.82D-02 at cycle   1 NSaved=   1.
 NSaved= 1 IEnMin= 1 EnMin= -196.261608544404     IErMin= 1 ErrMin= 4.82D-02
 ErrMax= 4.82D-02  0.00D+00 EMaxC= 1.00D+00 BMatC= 1.95D-01 BMatP= 1.95D-01
 IDIUse=1 WtCom= 1.00D+00 WtEn= 0.00D+00
 Coeff-Com:  0.100D+01
 Coeff:      0.100D+01
 Gap=     0.313 Goal=   None    Shift=    0.500
 T= 1780. Gap= 0.787 NK=0 IS=   19 IE=   57 IFin=   18
          NO(<0.9)=   0  NV(>0.1)=   0     18.00e < EF      0.00e >EF  Err=0.0D+00
 Gap=     0.190 Goal=   None    Shift=    0.500
 T= 1780. Gap= 0.694 NK=0 IS=   18 IE=   57 IFin=   17
          NO(<0.9)=   0  NV(>0.1)=   0     17.00e < EF      0.00e >EF  Err=0.0D+00
 GapD=    0.190 DampG=1.000 DampE=0.500 DampFc=0.5000 IDamp=-1.
 Damping current iteration by 5.00D-01
 RMSDP=6.98D-03 MaxDP=5.25D-02              OVMax= 1.07D-01

 Cycle   2  Pass 1  IDiag  1:
 E= -196.299591584944     Delta-E=       -0.037983040540 Rises=F Damp=T
 DIIS: error= 2.21D-02 at cycle   2 NSaved=   2.
 NSaved= 2 IEnMin= 2 EnMin= -196.299591584944     IErMin= 2 ErrMin= 2.21D-02
 ErrMax= 2.21D-02  0.00D+00 EMaxC= 1.00D+00 BMatC= 3.17D-02 BMatP= 1.95D-01
 IDIUse=1 WtCom= 1.00D+00 WtEn= 0.00D+00
 Coeff-Com: -0.504D+00 0.150D+01
 Coeff:     -0.504D+00 0.150D+01
 Gap=     0.385 Goal=   None    Shift=    0.500
 T= 1661. Gap= 0.871 NK=4 IS=   19 IE=   23 IFin=   18
          NO(<0.9)=   0  NV(>0.1)=   0     18.00e < EF      0.00e >EF  Err=0.0D+00
 Gap=     0.219 Goal=   None    Shift=    0.500
 T= 1661. Gap= 0.717 NK=4 IS=   18 IE=   23 IFin=   17
          NO(<0.9)=   0  NV(>0.1)=   0     17.00e < EF      0.00e >EF  Err=0.0D+00
 GapD=    0.219 DampG=1.000 DampE=0.500 DampFc=0.5000 IDamp=-1.
 Damping current iteration by 5.00D-01
 RMSDP=4.11D-03 MaxDP=3.17D-02 DE=-3.80D-02 OVMax= 1.67D-02

 Cycle   3  Pass 1  IDiag  1:
 E= -196.312534329601     Delta-E=       -0.012942744658 Rises=F Damp=T
 DIIS: error= 1.21D-02 at cycle   3 NSaved=   3.
 NSaved= 3 IEnMin= 3 EnMin= -196.312534329601     IErMin= 3 ErrMin= 1.21D-02
 ErrMax= 1.21D-02  0.00D+00 EMaxC= 1.00D+00 BMatC= 6.99D-03 BMatP= 3.17D-02
 IDIUse=1 WtCom= 1.00D+00 WtEn= 0.00D+00
 Coeff-Com:  0.315D+00-0.173D+01 0.242D+01
 Coeff:      0.315D+00-0.173D+01 0.242D+01
 Gap=     0.374 Goal=   None    Shift=    0.500
 T= 1443. Gap= 0.874 NK=0 IS=   19 IE=   57 IFin=   18
          NO(<0.9)=   0  NV(>0.1)=   0     18.00e < EF      0.00e >EF  Err=0.0D+00
 Gap=     0.223 Goal=   None    Shift=    0.500
 T= 1443. Gap= 0.723 NK=0 IS=   18 IE=   57 IFin=   17
          NO(<0.9)=   0  NV(>0.1)=   0     17.00e < EF      0.00e >EF  Err=0.0D+00
 GapD=    0.223 DampG=1.000 DampE=0.500 DampFc=0.5000 IDamp=-1.
 Damping current iteration by 5.00D-01
 RMSDP=2.21D-03 MaxDP=1.81D-02 DE=-1.29D-02 OVMax= 1.48D-02

 Cycle   4  Pass 1  IDiag  1:
 E= -196.318573496908     Delta-E=       -0.006039167307 Rises=F Damp=T
 DIIS: error= 7.55D-03 at cycle   4 NSaved=   4.
 NSaved= 4 IEnMin= 4 EnMin= -196.318573496908     IErMin= 4 ErrMin= 7.55D-03
 ErrMax= 7.55D-03  0.00D+00 EMaxC= 1.00D+00 BMatC= 2.42D-03 BMatP= 6.99D-03
 IDIUse=1 WtCom= 1.00D+00 WtEn= 0.00D+00
 Coeff-Com:  0.356D-01 0.611D+00-0.328D+01 0.364D+01
 Coeff:      0.356D-01 0.611D+00-0.328D+01 0.364D+01
 Gap=     0.378 Goal=   None    Shift=    0.500
 T= 1036. Gap= 0.878 NK=0 IS=   19 IE=   57 IFin=   18
          NO(<0.9)=   0  NV(>0.1)=   0     18.00e < EF      0.00e >EF  Err=0.0D+00
 Gap=     0.227 Goal=   None    Shift=    0.500
 T= 1036. Gap= 0.727 NK=0 IS=   18 IE=   57 IFin=   17
          NO(<0.9)=   0  NV(>0.1)=   0     17.00e < EF      0.00e >EF  Err=0.0D+00
 GapD=    0.227 DampG=1.000 DampE=1.000 DampFc=1.0000 IDamp=-1.
 RMSDP=1.37D-03 MaxDP=1.46D-02 DE=-6.04D-03 OVMax= 1.37D-02

 Cycle   5  Pass 1  IDiag  1:
 E= -196.325516487883     Delta-E=       -0.006942990975 Rises=F Damp=F
 DIIS: error= 3.52D-03 at cycle   5 NSaved=   5.
 NSaved= 5 IEnMin= 5 EnMin= -196.325516487883     IErMin= 5 ErrMin= 3.52D-03
 ErrMax= 3.52D-03  0.00D+00 EMaxC= 1.00D+00 BMatC= 3.97D-04 BMatP= 2.42D-03
 IDIUse=1 WtCom= 1.00D+00 WtEn= 0.00D+00
 Coeff-Com: -0.167D+00 0.871D+00-0.810D+00-0.753D+00 0.186D+01
 Coeff:     -0.167D+00 0.871D+00-0.810D+00-0.753D+00 0.186D+01
 Gap=     0.380 Goal=   None    Shift=    0.500
 T=  683. Gap= 0.880 NK=0 IS=   19 IE=   57 IFin=   18
          NO(<0.9)=   0  NV(>0.1)=   0     18.00e < EF      0.00e >EF  Err=0.0D+00
 Gap=     0.231 Goal=   None    Shift=    0.500
 T=  683. Gap= 0.731 NK=0 IS=   18 IE=   57 IFin=   17
          NO(<0.9)=   0  NV(>0.1)=   0     17.00e < EF      0.00e >EF  Err=0.0D+00
 GapD=    0.231 DampG=1.000 DampE=1.000 DampFc=1.0000 IDamp=-1.
 RMSDP=4.04D-04 MaxDP=6.45D-03 DE=-6.94D-03 OVMax= 1.32D-02

 Cycle   6  Pass 1  IDiag  1:
 E= -196.326066802154     Delta-E=       -0.000550314271 Rises=F Damp=F
 DIIS: error= 2.85D-03 at cycle   6 NSaved=   6.
 NSaved= 6 IEnMin= 6 EnMin= -196.326066802154     IErMin= 6 ErrMin= 2.85D-03
 ErrMax= 2.85D-03  0.00D+00 EMaxC= 1.00D+00 BMatC= 1.81D-04 BMatP= 3.97D-04
 IDIUse=1 WtCom= 1.00D+00 WtEn= 0.00D+00
 Coeff-Com: -0.111D-01-0.196D+00 0.720D+00-0.568D+00-0.158D+01 0.264D+01
 Coeff:     -0.111D-01-0.196D+00 0.720D+00-0.568D+00-0.158D+01 0.264D+01
 Gap=     0.382 Goal=   None    Shift=    0.500
 T=  376. Gap= 0.883 NK=0 IS=   19 IE=   57 IFin=   18
          NO(<0.9)=   0  NV(>0.1)=   0     18.00e < EF      0.00e >EF  Err=0.0D+00
 Gap=     0.233 Goal=   None    Shift=    0.500
 T=  376. Gap= 0.733 NK=0 IS=   18 IE=   57 IFin=   17
          NO(<0.9)=   0  NV(>0.1)=   0     17.00e < EF      0.00e >EF  Err=0.0D+00
 GapD=    0.233 DampG=1.000 DampE=1.000 DampFc=1.0000 IDamp=-1.
 RMSDP=3.20D-04 MaxDP=5.27D-03 DE=-5.50D-04 OVMax= 1.21D-02

 Cycle   7  Pass 1  IDiag  1:
 E= -196.326382557908     Delta-E=       -0.000315755753 Rises=F Damp=F
 DIIS: error= 2.12D-03 at cycle   7 NSaved=   7.
 NSaved= 7 IEnMin= 7 EnMin= -196.326382557908     IErMin= 7 ErrMin= 2.12D-03
 ErrMax= 2.12D-03  0.00D+00 EMaxC= 1.00D+00 BMatC= 8.24D-05 BMatP= 1.81D-04
 IDIUse=1 WtCom= 1.00D+00 WtEn= 0.00D+00
 Coeff-Com:  0.188D-01-0.115D+00 0.403D-01 0.250D+00-0.549D+00-0.707D+00
 Coeff-Com:  0.206D+01
 Coeff:      0.188D-01-0.115D+00 0.403D-01 0.250D+00-0.549D+00-0.707D+00
 Coeff:      0.206D+01
 Gap=     0.383 Goal=   None    Shift=    0.500
 T=   79. Gap= 0.883 NK=0 IS=   19 IE=   57 IFin=   18
          NO(<0.9)=   0  NV(>0.1)=   0     18.00e < EF      0.00e >EF  Err=0.0D+00
 Gap=     0.234 Goal=   None    Shift=    0.500
 T=   79. Gap= 0.734 NK=0 IS=   18 IE=   57 IFin=   17
          NO(<0.9)=   0  NV(>0.1)=   0     17.00e < EF      0.00e >EF  Err=0.0D+00
 GapD=    0.234 DampG=1.000 DampE=1.000 DampFc=1.0000 IDamp=-1.
 RMSDP=2.17D-04 MaxDP=3.15D-03 DE=-3.16D-04 OVMax= 8.99D-03

 Cycle   8  Pass 1  IDiag  1:
 E= -196.326526481823     Delta-E=       -0.000143923916 Rises=F Damp=F
 DIIS: error= 1.55D-03 at cycle   8 NSaved=   8.
 NSaved= 8 IEnMin= 8 EnMin= -196.326526481823     IErMin= 8 ErrMin= 1.55D-03
 ErrMax= 1.55D-03  0.00D+00 EMaxC= 1.00D+00 BMatC= 4.09D-05 BMatP= 8.24D-05
 IDIUse=1 WtCom= 1.00D+00 WtEn= 0.00D+00
 Coeff-Com:  0.471D-04 0.198D+00-0.669D+00 0.531D+00 0.119D+01-0.254D+01
 Coeff-Com: -0.186D+00 0.248D+01
 Coeff:      0.471D-04 0.198D+00-0.669D+00 0.531D+00 0.119D+01-0.254D+01
 Coeff:     -0.186D+00 0.248D+01
 Gap=     0.384 Goal=   None    Shift=    0.500
 Gap=     0.234 Goal=   None    Shift=    0.500
 GapD=    0.234 DampG=1.000 DampE=1.000 DampFc=1.0000 IDamp=-1.
 RMSDP=1.79D-04 MaxDP=2.57D-03 DE=-1.44D-04 OVMax= 7.89D-03

 Cycle   9  Pass 1  IDiag  1:
 E= -196.326604711115     Delta-E=       -0.000078229291 Rises=F Damp=F
 DIIS: error= 1.06D-03 at cycle   9 NSaved=   9.
 NSaved= 9 IEnMin= 9 EnMin= -196.326604711115     IErMin= 9 ErrMin= 1.06D-03
 ErrMax= 1.06D-03  0.00D+00 EMaxC= 1.00D+00 BMatC= 1.82D-05 BMatP= 4.09D-05
 IDIUse=1 WtCom= 1.00D+00 WtEn= 0.00D+00
 Coeff-Com: -0.111D-01-0.658D-01 0.420D+00-0.494D+00-0.344D+00 0.175D+01
 Coeff-Com: -0.879D+00-0.351D+01 0.414D+01
 Coeff:     -0.111D-01-0.658D-01 0.420D+00-0.494D+00-0.344D+00 0.175D+01
 Coeff:     -0.879D+00-0.351D+01 0.414D+01
 Gap=     0.384 Goal=   None    Shift=    0.500
 Gap=     0.235 Goal=   None    Shift=    0.500
 GapD=    0.235 DampG=1.000 DampE=1.000 DampFc=1.0000 IDamp=-1.
 RMSDP=1.37D-04 MaxDP=2.03D-03 DE=-7.82D-05 OVMax= 6.55D-03

 Cycle  10  Pass 1  IDiag  1:
 E= -196.326643106606     Delta-E=       -0.000038395492 Rises=F Damp=F
 DIIS: error= 6.57D-04 at cycle  10 NSaved=  10.
 NSaved=10 IEnMin=10 EnMin= -196.326643106606     IErMin=10 ErrMin= 6.57D-04
 ErrMax= 6.57D-04  0.00D+00 EMaxC= 1.00D+00 BMatC= 7.15D-06 BMatP= 1.82D-05
 IDIUse=1 WtCom= 1.00D+00 WtEn= 0.00D+00
 Coeff-Com:  0.257D-02-0.127D-02-0.216D-01 0.309D-01 0.106D-01-0.992D-01
 Coeff-Com:  0.197D+00 0.118D+00-0.185D+01 0.261D+01
 Coeff:      0.257D-02-0.127D-02-0.216D-01 0.309D-01 0.106D-01-0.992D-01
 Coeff:      0.197D+00 0.118D+00-0.185D+01 0.261D+01
 Gap=     0.384 Goal=   None    Shift=    0.500
 Gap=     0.235 Goal=   None    Shift=    0.500
 RMSDP=8.13D-05 MaxDP=1.23D-03 DE=-3.84D-05 OVMax= 4.06D-03

 Cycle  11  Pass 1  IDiag  1:
 E= -196.326657231661     Delta-E=       -0.000014125054 Rises=F Damp=F
 DIIS: error= 4.09D-04 at cycle  11 NSaved=  11.
 NSaved=11 IEnMin=11 EnMin= -196.326657231661     IErMin=11 ErrMin= 4.09D-04
 ErrMax= 4.09D-04  0.00D+00 EMaxC= 1.00D+00 BMatC= 2.97D-06 BMatP= 7.15D-06
 IDIUse=1 WtCom= 1.00D+00 WtEn= 0.00D+00
 Coeff-Com: -0.210D-02 0.535D-02 0.203D-01-0.460D-01 0.574D-01 0.746D-01
 Coeff-Com: -0.235D+00-0.328D+00 0.227D+01-0.540D+01 0.458D+01
 Coeff:     -0.210D-02 0.535D-02 0.203D-01-0.460D-01 0.574D-01 0.746D-01
 Coeff:     -0.235D+00-0.328D+00 0.227D+01-0.540D+01 0.458D+01
 Gap=     0.384 Goal=   None    Shift=    0.500
 Gap=     0.235 Goal=   None    Shift=    0.500
 RMSDP=5.35D-05 MaxDP=7.75D-04 DE=-1.41D-05 OVMax= 2.72D-03

 Cycle  12  Pass 1  IDiag  1:
 E= -196.326663014291     Delta-E=       -0.000005782631 Rises=F Damp=F
 DIIS: error= 2.44D-04 at cycle  12 NSaved=  12.
 NSaved=12 IEnMin=12 EnMin= -196.326663014291     IErMin=12 ErrMin= 2.44D-04
 ErrMax= 2.44D-04  0.00D+00 EMaxC= 1.00D+00 BMatC= 1.10D-06 BMatP= 2.97D-06
 IDIUse=1 WtCom= 1.00D+00 WtEn= 0.00D+00
 Coeff-Com: -0.163D-02-0.118D-01 0.714D-01-0.834D-01-0.516D-01 0.270D+00
 Coeff-Com: -0.725D-01-0.647D+00 0.699D+00 0.380D+00-0.241D+01 0.286D+01
 Coeff:     -0.163D-02-0.118D-01 0.714D-01-0.834D-01-0.516D-01 0.270D+00
 Coeff:     -0.725D-01-0.647D+00 0.699D+00 0.380D+00-0.241D+01 0.286D+01
 Gap=     0.384 Goal=   None    Shift=    0.500
 Gap=     0.235 Goal=   None    Shift=    0.500
 RMSDP=3.22D-05 MaxDP=4.57D-04 DE=-5.78D-06 OVMax= 1.65D-03

 Cycle  13  Pass 1  IDiag  1:
 E= -196.326665107183     Delta-E=       -0.000002092891 Rises=F Damp=F
 DIIS: error= 1.44D-04 at cycle  13 NSaved=  13.
 NSaved=13 IEnMin=13 EnMin= -196.326665107183     IErMin=13 ErrMin= 1.44D-04
 ErrMax= 1.44D-04  0.00D+00 EMaxC= 1.00D+00 BMatC= 3.91D-07 BMatP= 1.10D-06
 IDIUse=1 WtCom= 1.00D+00 WtEn= 0.00D+00
 Coeff-Com:  0.104D-02 0.461D-02-0.289D-01 0.325D-01 0.350D-01-0.114D+00
 Coeff-Com:  0.103D-02 0.273D+00-0.122D+00-0.815D+00 0.235D+01-0.463D+01
 Coeff-Com:  0.402D+01
 Coeff:      0.104D-02 0.461D-02-0.289D-01 0.325D-01 0.350D-01-0.114D+00
 Coeff:      0.103D-02 0.273D+00-0.122D+00-0.815D+00 0.235D+01-0.463D+01
 Coeff:      0.402D+01
 Gap=     0.384 Goal=   None    Shift=    0.500
 Gap=     0.235 Goal=   None    Shift=    0.500
 RMSDP=1.97D-05 MaxDP=2.85D-04 DE=-2.09D-06 OVMax= 1.03D-03

 Cycle  14  Pass 1  IDiag  1:
 E= -196.326665864837     Delta-E=       -0.000000757654 Rises=F Damp=F
 DIIS: error= 8.27D-05 at cycle  14 NSaved=  14.
 NSaved=14 IEnMin=14 EnMin= -196.326665864837     IErMin=14 ErrMin= 8.27D-05
 ErrMax= 8.27D-05  0.00D+00 EMaxC= 1.00D+00 BMatC= 1.41D-07 BMatP= 3.91D-07
 IDIUse=1 WtCom= 1.00D+00 WtEn= 0.00D+00
 Coeff-Com: -0.346D-03-0.930D-03 0.116D-01-0.166D-01 0.842D-03 0.317D-01
 Coeff-Com: -0.453D-02-0.121D+00 0.300D+00-0.474D+00 0.341D-01 0.134D+01
 Coeff-Com: -0.339D+01 0.329D+01
 Coeff:     -0.346D-03-0.930D-03 0.116D-01-0.166D-01 0.842D-03 0.317D-01
 Coeff:     -0.453D-02-0.121D+00 0.300D+00-0.474D+00 0.341D-01 0.134D+01
 Coeff:     -0.339D+01 0.329D+01
 Gap=     0.384 Goal=   None    Shift=    0.500
 Gap=     0.235 Goal=   None    Shift=    0.500
 RMSDP=1.17D-05 MaxDP=1.70D-04 DE=-7.58D-07 OVMax= 6.17D-04

 Cycle  15  Pass 1  IDiag  1:
 E= -196.326666130510     Delta-E=       -0.000000265674 Rises=F Damp=F
 DIIS: error= 4.70D-05 at cycle  15 NSaved=  15.
 NSaved=15 IEnMin=15 EnMin= -196.326666130510     IErMin=15 ErrMin= 4.70D-05
 ErrMax= 4.70D-05  0.00D+00 EMaxC= 1.00D+00 BMatC= 4.91D-08 BMatP= 1.41D-07
 IDIUse=1 WtCom= 1.00D+00 WtEn= 0.00D+00
 Coeff-Com:  0.199D-03-0.106D-03-0.361D-02 0.621D-02-0.252D-02-0.787D-02
 Coeff-Com:  0.707D-02 0.404D-01-0.137D+00 0.275D+00-0.203D+00-0.522D+00
 Coeff-Com:  0.208D+01-0.435D+01 0.382D+01
 Coeff:      0.199D-03-0.106D-03-0.361D-02 0.621D-02-0.252D-02-0.787D-02
 Coeff:      0.707D-02 0.404D-01-0.137D+00 0.275D+00-0.203D+00-0.522D+00
 Coeff:      0.208D+01-0.435D+01 0.382D+01
 Gap=     0.384 Goal=   None    Shift=    0.500
 Gap=     0.235 Goal=   None    Shift=    0.500
 RMSDP=6.86D-06 MaxDP=9.82D-05 DE=-2.66D-07 OVMax= 3.63D-04

 Cycle  16  Pass 1  IDiag  1:
 E= -196.326666220068     Delta-E=       -0.000000089558 Rises=F Damp=F
 DIIS: error= 2.61D-05 at cycle  16 NSaved=  16.
 NSaved=16 IEnMin=16 EnMin= -196.326666220068     IErMin=16 ErrMin= 2.61D-05
 ErrMax= 2.61D-05  0.00D+00 EMaxC= 1.00D+00 BMatC= 1.73D-08 BMatP= 4.91D-08
 IDIUse=1 WtCom= 1.00D+00 WtEn= 0.00D+00
 Coeff-Com:  0.551D-04 0.557D-03-0.169D-02 0.865D-03 0.637D-02-0.153D-01
 Coeff-Com:  0.661D-02 0.185D-01 0.193D-01-0.154D+00 0.280D+00-0.328D+00
 Coeff-Com: -0.814D-01 0.132D+01-0.343D+01 0.336D+01
 Coeff:      0.551D-04 0.557D-03-0.169D-02 0.865D-03 0.637D-02-0.153D-01
 Coeff:      0.661D-02 0.185D-01 0.193D-01-0.154D+00 0.280D+00-0.328D+00
 Coeff:     -0.814D-01 0.132D+01-0.343D+01 0.336D+01
 Gap=     0.384 Goal=   None    Shift=    0.500
 Gap=     0.235 Goal=   None    Shift=    0.500
 RMSDP=3.92D-06 MaxDP=5.48D-05 DE=-8.96D-08 OVMax= 2.08D-04

 Cycle  17  Pass 1  IDiag  1:
 E= -196.326666249462     Delta-E=       -0.000000029394 Rises=F Damp=F
 DIIS: error= 1.43D-05 at cycle  17 NSaved=  17.
 NSaved=17 IEnMin=17 EnMin= -196.326666249462     IErMin=17 ErrMin= 1.43D-05
 ErrMax= 1.43D-05  0.00D+00 EMaxC= 1.00D+00 BMatC= 6.00D-09 BMatP= 1.73D-08
 IDIUse=1 WtCom= 1.00D+00 WtEn= 0.00D+00
 Coeff-Com:  0.134D-04-0.294D-03 0.747D-03-0.357D-03-0.246D-02 0.464D-02
 Coeff-Com:  0.132D-02-0.761D-02-0.716D-02 0.533D-01-0.105D+00 0.118D+00
 Coeff-Com:  0.638D-01-0.759D+00 0.229D+01-0.457D+01 0.392D+01
 Coeff:      0.134D-04-0.294D-03 0.747D-03-0.357D-03-0.246D-02 0.464D-02
 Coeff:      0.132D-02-0.761D-02-0.716D-02 0.533D-01-0.105D+00 0.118D+00
 Coeff:      0.638D-01-0.759D+00 0.229D+01-0.457D+01 0.392D+01
 Gap=     0.384 Goal=   None    Shift=    0.500
 Gap=     0.235 Goal=   None    Shift=    0.500
 RMSDP=2.18D-06 MaxDP=2.98D-05 DE=-2.94D-08 OVMax= 1.16D-04

 Cycle  18  Pass 1  IDiag  1:
 E= -196.326666258868     Delta-E=       -0.000000009406 Rises=F Damp=F
 DIIS: error= 7.88D-06 at cycle  18 NSaved=  18.
 NSaved=18 IEnMin=18 EnMin= -196.326666258868     IErMin=18 ErrMin= 7.88D-06
 ErrMax= 7.88D-06  0.00D+00 EMaxC= 1.00D+00 BMatC= 2.04D-09 BMatP= 6.00D-09
 IDIUse=1 WtCom= 1.00D+00 WtEn= 0.00D+00
 Coeff-Com:  0.451D-04 0.126D-03-0.120D-02 0.158D-02 0.975D-03-0.585D-02
 Coeff-Com:  0.365D-02 0.116D-01-0.227D-01 0.206D-01 0.170D-01-0.117D+00
 Coeff-Com:  0.251D+00-0.300D+00-0.121D+00 0.146D+01-0.380D+01 0.360D+01
 Coeff:      0.451D-04 0.126D-03-0.120D-02 0.158D-02 0.975D-03-0.585D-02
 Coeff:      0.365D-02 0.116D-01-0.227D-01 0.206D-01 0.170D-01-0.117D+00
 Coeff:      0.251D+00-0.300D+00-0.121D+00 0.146D+01-0.380D+01 0.360D+01
 Gap=     0.384 Goal=   None    Shift=    0.500
 Gap=     0.235 Goal=   None    Shift=    0.500
 RMSDP=1.19D-06 MaxDP=1.61D-05 DE=-9.41D-09 OVMax= 6.38D-05

 Cycle  19  Pass 1  IDiag  1:
 E= -196.326666261839     Delta-E=       -0.000000002971 Rises=F Damp=F
 DIIS: error= 4.35D-06 at cycle  19 NSaved=  19.
 NSaved=19 IEnMin=19 EnMin= -196.326666261839     IErMin=19 ErrMin= 4.35D-06
 ErrMax= 4.35D-06  0.00D+00 EMaxC= 1.00D+00 BMatC= 6.81D-10 BMatP= 2.04D-09
 IDIUse=1 WtCom= 1.00D+00 WtEn= 0.00D+00
 Coeff-Com:  0.182D-05 0.777D-04-0.185D-03 0.688D-04 0.729D-03-0.209D-02
 Coeff-Com:  0.168D-02 0.161D-02-0.586D-03-0.773D-02 0.156D-01-0.132D-01
 Coeff-Com: -0.182D-01 0.942D-01-0.131D+00-0.230D+00 0.126D+01-0.318D+01
 Coeff-Com:  0.321D+01
 Coeff:      0.182D-05 0.777D-04-0.185D-03 0.688D-04 0.729D-03-0.209D-02
 Coeff:      0.168D-02 0.161D-02-0.586D-03-0.773D-02 0.156D-01-0.132D-01
 Coeff:     -0.182D-01 0.942D-01-0.131D+00-0.230D+00 0.126D+01-0.318D+01
 Coeff:      0.321D+01
 Gap=     0.384 Goal=   None    Shift=    0.500
 Gap=     0.235 Goal=   None    Shift=    0.500
 RMSDP=6.48D-07 MaxDP=8.88D-06 DE=-2.97D-09 OVMax= 3.48D-05

 SCF Done:  E(ULC-wHPBE) =  -196.326666262     A.U. after   19 cycles
            NFock= 19  Conv=0.65D-06     -V/T= 2.0179
 <Sx>= 0.0000 <Sy>= 0.0000 <Sz>= 0.5000 <S**2>= 0.8081 S= 0.5286
 <L.S>= 0.000000000000E+00
 KE= 1.928719676097D+02 PE=-7.524898446838D+02 EE= 2.072784683263D+02
 Annihilation of the first spin contaminant:
 S**2 before annihilation     0.8081,   after     0.7519
 Leave Link  502 at Thu Mar  5 12:54:07 2020, MaxMem=  6710886400 cpu:              29.2 elap:               1.9
 (Enter /opt/ohpc/pub/libs/gaussian/g16-A.03/sandybridge/g16/l508.exe)
 QCSCF skips out because SCF is already converged.
 Leave Link  508 at Thu Mar  5 12:54:07 2020, MaxMem=  6710886400 cpu:               0.2 elap:               0.0
 (Enter /opt/ohpc/pub/libs/gaussian/g16-A.03/sandybridge/g16/l601.exe)
 Copying SCF densities to generalized density rwf, IOpCl= 1 IROHF=0.

 **********************************************************************

            Population analysis using the SCF density.

 **********************************************************************

 Orbital symmetries:
 Alpha Orbitals:
       Occupied  (B2) (A1) (A1) (B2) (A1) (A1) (A1) (B2) (A1) (B2)
                 (A1) (B2) (A1) (A1) (B1) (B2) (A2) (B1)
       Virtual   (A2) (B2) (B1) (A1) (A1) (B2) (A1) (B2) (A1) (A1)
                 (B2) (A1) (B2) (B1) (B2) (B1) (A2) (A1) (A1) (B2)
                 (A1) (A2) (B1) (B2) (B2) (A1) (A1) (A1) (B2) (A1)
                 (B2) (A1) (A1) (B2) (A1) (B2) (A1) (A1) (B2)
 Beta  Orbitals:
       Occupied  (B2) (A1) (A1) (B2) (A1) (A1) (A1) (B2) (A1) (B2)
                 (A1) (B2) (A1) (A1) (B2) (B1) (A2)
       Virtual   (B1) (B2) (A2) (A1) (B1) (A1) (B2) (A1) (B2) (A1)
                 (A1) (B2) (A1) (B2) (B2) (B1) (A2) (A1) (B1) (A1)
                 (B2) (A1) (A2) (B1) (B2) (B2) (A1) (A1) (B2) (A1)
                 (B2) (A1) (A1) (A1) (B2) (A1) (B2) (A1) (A1) (B2)
 The electronic state is 2-B1.
 Alpha  occ. eigenvalues --  -10.42783 -10.42779 -10.37815 -10.36923 -10.36922
 Alpha  occ. eigenvalues --   -1.29522  -1.16645  -1.11714  -0.98028  -0.95725
 Alpha  occ. eigenvalues --   -0.91083  -0.81275  -0.79101  -0.77935  -0.76813
 Alpha  occ. eigenvalues --   -0.75595  -0.62104  -0.61070
 Alpha virt. eigenvalues --   -0.22689  -0.22221  -0.15864  -0.15236  -0.08800
 Alpha virt. eigenvalues --   -0.04029  -0.02083   0.00339   0.00347   0.11102
 Alpha virt. eigenvalues --    0.11451   0.21660   0.22079   0.30196   0.31115
 Alpha virt. eigenvalues --    0.37848   0.38416   0.39241   0.41207   0.42017
 Alpha virt. eigenvalues --    0.42373   0.45726   0.47210   0.55079   0.61736
 Alpha virt. eigenvalues --    0.64037   0.65165   0.67695   0.67748   0.73867
 Alpha virt. eigenvalues --    0.73977   0.78293   0.82545   0.89143   0.97216
 Alpha virt. eigenvalues --    0.98198   1.04076   1.25503   1.27034
  Beta  occ. eigenvalues --  -10.42183 -10.42178 -10.37230 -10.37230 -10.36859
  Beta  occ. eigenvalues --   -1.28245  -1.14758  -1.11465  -0.96948  -0.94991
  Beta  occ. eigenvalues --   -0.90827  -0.80993  -0.78834  -0.77374  -0.75443
  Beta  occ. eigenvalues --   -0.72391  -0.60739
  Beta virt. eigenvalues --   -0.37251  -0.20738  -0.19721  -0.15006  -0.12407
  Beta virt. eigenvalues --   -0.08396  -0.03768  -0.01875   0.00287   0.00990
  Beta virt. eigenvalues --    0.11589   0.11790   0.22081   0.22445   0.31518
  Beta virt. eigenvalues --    0.32559   0.39501   0.39795   0.40747   0.41593
  Beta virt. eigenvalues --    0.42414   0.43502   0.46314   0.48867   0.55630
  Beta virt. eigenvalues --    0.62168   0.64928   0.65638   0.67644   0.68154
  Beta virt. eigenvalues --    0.74279   0.74534   0.79111   0.83324   0.89158
  Beta virt. eigenvalues --    0.97713   0.98711   1.05253   1.26444   1.27904
          Condensed to atoms (all electrons):
               1          2          3          4          5          6
     1  C    5.369472   0.497604  -0.044063  -0.124682   0.179739   0.162008
     2  C    0.497604   4.958254   0.462290  -0.028270  -0.124682  -0.020824
     3  C   -0.044063   0.462290   4.876222   0.462290  -0.044063   0.007029
     4  C   -0.124682  -0.028270   0.462290   4.958254   0.497604  -0.020824
     5  C    0.179739  -0.124682  -0.044063   0.497604   5.369472   0.162008
     6  H    0.162008  -0.020824   0.007029  -0.020824   0.162008   0.348855
     7  H    0.335222   0.004371  -0.000274   0.003205  -0.016035  -0.009435
     8  H   -0.023726   0.360472  -0.011993   0.003868   0.000917   0.000394
     9  H    0.005047  -0.026777   0.363447  -0.026777   0.005047  -0.000043
    10  H    0.000917   0.003868  -0.011993   0.360472  -0.023726   0.000394
    11  H   -0.016035   0.003205  -0.000274   0.004371   0.335222  -0.009435
               7          8          9         10         11
     1  C    0.335222  -0.023726   0.005047   0.000917  -0.016035
     2  C    0.004371   0.360472  -0.026777   0.003868   0.003205
     3  C   -0.000274  -0.011993   0.363447  -0.011993  -0.000274
     4  C    0.003205   0.003868  -0.026777   0.360472   0.004371
     5  C   -0.016035   0.000917   0.005047  -0.023726   0.335222
     6  H   -0.009435   0.000394  -0.000043   0.000394  -0.009435
     7  H    0.342528   0.000049  -0.000052  -0.000017   0.000403
     8  H    0.000049   0.381727  -0.001238  -0.000085  -0.000017
     9  H   -0.000052  -0.001238   0.401199  -0.001238  -0.000052
    10  H   -0.000017  -0.000085  -0.001238   0.381727   0.000049
    11  H    0.000403  -0.000017  -0.000052   0.000049   0.342528
          Atomic-Atomic Spin Densities.
               1          2          3          4          5          6
     1  C    0.507680  -0.040689  -0.022962  -0.009514   0.024679  -0.004003
     2  C   -0.040689  -0.254006   0.027960  -0.000228  -0.009514   0.000337
     3  C   -0.022962   0.027960   0.718433   0.027960  -0.022962   0.000216
     4  C   -0.009514  -0.000228   0.027960  -0.254006  -0.040689   0.000337
     5  C    0.024679  -0.009514  -0.022962  -0.040689   0.507680  -0.004003
     6  H   -0.004003   0.000337   0.000216   0.000337  -0.004003  -0.015530
     7  H   -0.002813  -0.000528   0.000113  -0.000104   0.000203  -0.000153
     8  H   -0.000390   0.002051  -0.001130  -0.000128   0.000065   0.000022
     9  H   -0.000017  -0.000041  -0.001093  -0.000041  -0.000017  -0.000001
    10  H    0.000065  -0.000128  -0.001130   0.002051  -0.000390   0.000022
    11  H    0.000203  -0.000104   0.000113  -0.000528  -0.002813  -0.000153
               7          8          9         10         11
     1  C   -0.002813  -0.000390  -0.000017   0.000065   0.000203
     2  C   -0.000528   0.002051  -0.000041  -0.000128  -0.000104
     3  C    0.000113  -0.001130  -0.001093  -0.001130   0.000113
     4  C   -0.000104  -0.000128  -0.000041   0.002051  -0.000528
     5  C    0.000203   0.000065  -0.000017  -0.000390  -0.002813
     6  H   -0.000153   0.000022  -0.000001   0.000022  -0.000153
     7  H   -0.018422   0.000057   0.000004  -0.000000  -0.000074
     8  H    0.000057   0.007270   0.000010   0.000000  -0.000000
     9  H    0.000004   0.000010  -0.028338   0.000010   0.000004
    10  H   -0.000000   0.000000   0.000010   0.007270   0.000057
    11  H   -0.000074  -0.000000   0.000004   0.000057  -0.018422
 Mulliken charges and spin densities:
               1          2
     1  C   -0.341503   0.452238
     2  C   -0.089510  -0.274892
     3  C   -0.058617   0.725518
     4  C   -0.089510  -0.274892
     5  C   -0.341503   0.452238
     6  H    0.379871  -0.022910
     7  H    0.340035  -0.021717
     8  H    0.289633   0.007827
     9  H    0.281435  -0.029520
    10  H    0.289633   0.007827
    11  H    0.340035  -0.021717
 Sum of Mulliken charges =   1.00000   1.00000
 Mulliken charges and spin densities with hydrogens summed into heavy atoms:
               1          2
     1  C    0.378404   0.407611
     2  C    0.200122  -0.267065
     3  C    0.222819   0.695997
     4  C    0.200122  -0.267065
     5  C   -0.001467   0.430521
 Electronic spatial extent (au):  <R**2>=            318.0499
 Charge=              1.0000 electrons
 Dipole moment (field-independent basis, Debye):
    X=             -0.0000    Y=             -0.0000    Z=             -2.0365  Tot=              2.0365
 Quadrupole moment (field-independent basis, Debye-Ang):
   XX=            -30.9610   YY=            -17.1118   ZZ=            -12.7858
   XY=              0.0000   XZ=              0.0000   YZ=              0.0000
 Traceless Quadrupole moment (field-independent basis, Debye-Ang):
   XX=            -10.6748   YY=              3.1744   ZZ=              7.5004
   XY=              0.0000   XZ=              0.0000   YZ=              0.0000
 Octapole moment (field-independent basis, Debye-Ang**2):
  XXX=              0.0000  YYY=              0.0000  ZZZ=             -7.5599  XYY=             -0.0000
  XXY=              0.0000  XXZ=              0.6637  XZZ=              0.0000  YZZ=             -0.0000
  YYZ=             -2.7306  XYZ=             -0.0000
 Hexadecapole moment (field-independent basis, Debye-Ang**3):
 XXXX=            -30.5689 YYYY=           -141.1990 ZZZZ=           -122.0565 XXXY=             -0.0000
 XXXZ=             -0.0000 YYYX=             -0.0000 YYYZ=             -0.0000 ZZZX=              0.0000
 ZZZY=              0.0000 XXYY=            -41.6194 XXZZ=            -38.2049 YYZZ=            -41.6004
 XXYZ=              0.0000 YYXZ=             -0.0000 ZZXY=             -0.0000
 N-N= 1.560127424860D+02 E-N=-7.524898483706D+02  KE= 1.928719676097D+02
 Symmetry A1   KE= 1.114540474395D+02
 Symmetry A2   KE= 2.547034253749D+00
 Symmetry B1   KE= 3.280917111207D+00
 Symmetry B2   KE= 7.558996880524D+01
 Symmetry A1   SP= 3.410872760178D-14
 Symmetry A2   SP= 2.027783323200D-15
 Symmetry B1   SP= 1.000000000000D+00
 Symmetry B2   SP=-1.253758517361D-14
                          Isotropic Fermi Contact Couplings
        Atom                 a.u.       MegaHertz       Gauss      10(-4) cm-1
     1  C(13)              0.07151      80.39209      28.68590      26.81591
     2  C(13)             -0.04925     -55.36763     -19.75655     -18.46865
     3  C(13)              0.10714     120.44191      42.97667      40.17510
     4  C(13)             -0.04925     -55.36763     -19.75655     -18.46865
     5  C(13)              0.07151      80.39209      28.68590      26.81591
     6  H(1)              -0.00864     -38.62179     -13.78121     -12.88284
     7  H(1)              -0.00934     -41.73819     -14.89323     -13.92236
     8  H(1)               0.00312      13.93107       4.97095       4.64690
     9  H(1)              -0.01335     -59.66809     -21.29106     -19.90313
    10  H(1)               0.00312      13.93107       4.97095       4.64690
    11  H(1)              -0.00934     -41.73819     -14.89323     -13.92236
 --------------------------------------------------------
       Center         ----  Spin Dipole Couplings  ----
                      3XX-RR        3YY-RR        3ZZ-RR
 --------------------------------------------------------
     1   Atom        0.471483     -0.229634     -0.241849
     2   Atom       -0.180489      0.088456      0.092032
     3   Atom        0.693877     -0.354498     -0.339379
     4   Atom       -0.180489      0.088456      0.092032
     5   Atom        0.471483     -0.229634     -0.241849
     6   Atom       -0.007578      0.007241      0.000337
     7   Atom       -0.006451      0.006595     -0.000144
     8   Atom       -0.006298     -0.000214      0.006512
     9   Atom       -0.008457     -0.045239      0.053696
    10   Atom       -0.006298     -0.000214      0.006512
    11   Atom       -0.006451      0.006595     -0.000144
 --------------------------------------------------------
                        XY            XZ            YZ
 --------------------------------------------------------
     1   Atom       -0.000000      0.000000     -0.008030
     2   Atom       -0.000000      0.000000     -0.005554
     3   Atom       -0.000000     -0.000000      0.000000
     4   Atom       -0.000000     -0.000000      0.005554
     5   Atom        0.000000      0.000000      0.008030
     6   Atom       -0.000000      0.000000      0.000000
     7   Atom        0.000000      0.000000     -0.034444
     8   Atom       -0.000000      0.000000     -0.005738
     9   Atom       -0.000000     -0.000000      0.000000
    10   Atom        0.000000     -0.000000      0.005738
    11   Atom       -0.000000     -0.000000      0.034444
 --------------------------------------------------------


 ---------------------------------------------------------------------------------
              Anisotropic Spin Dipole Couplings in Principal Axis System
 ---------------------------------------------------------------------------------

       Atom             a.u.   MegaHertz   Gauss  10(-4) cm-1        Axes

              Baa    -0.2458   -32.988   -11.771   -11.004 -0.0000  0.4442  0.8959
     1 C(13)  Bbb    -0.2257   -30.280   -10.805   -10.100 -0.0000  0.8959 -0.4442
              Bcc     0.4715    63.268    22.576    21.104  1.0000  0.0000  0.0000
 
              Baa    -0.1805   -24.220    -8.642    -8.079  1.0000  0.0000  0.0000
     2 C(13)  Bbb     0.0844    11.327     4.042     3.778 -0.0000  0.8082  0.5889
              Bcc     0.0961    12.893     4.601     4.301  0.0000 -0.5889  0.8082
 
              Baa    -0.3545   -47.570   -16.974   -15.868  0.0000  1.0000  0.0000
     3 C(13)  Bbb    -0.3394   -45.541   -16.250   -15.191  0.0000  0.0000  1.0000
              Bcc     0.6939    93.112    33.225    31.059  1.0000  0.0000  0.0000
 
              Baa    -0.1805   -24.220    -8.642    -8.079  1.0000  0.0000  0.0000
     4 C(13)  Bbb     0.0844    11.327     4.042     3.778 -0.0000  0.8082 -0.5889
              Bcc     0.0961    12.893     4.601     4.301 -0.0000  0.5889  0.8082
 
              Baa    -0.2458   -32.988   -11.771   -11.004 -0.0000 -0.4442  0.8959
     5 C(13)  Bbb    -0.2257   -30.280   -10.805   -10.100  0.0000  0.8959  0.4442
              Bcc     0.4715    63.268    22.576    21.104  1.0000 -0.0000  0.0000
 
              Baa    -0.0076    -4.043    -1.443    -1.349  1.0000  0.0000 -0.0000
     6 H(1)   Bbb     0.0003     0.180     0.064     0.060  0.0000 -0.0000  1.0000
              Bcc     0.0072     3.863     1.379     1.289 -0.0000  1.0000  0.0000
 
              Baa    -0.0314   -16.744    -5.975    -5.585 -0.0000  0.6718  0.7407
     7 H(1)   Bbb    -0.0065    -3.442    -1.228    -1.148  1.0000  0.0000  0.0000
              Bcc     0.0378    20.186     7.203     6.733 -0.0000  0.7407 -0.6718
 
              Baa    -0.0063    -3.360    -1.199    -1.121  1.0000  0.0000  0.0000
     8 H(1)   Bbb    -0.0035    -1.869    -0.667    -0.623 -0.0000  0.8676  0.4972
              Bcc     0.0098     5.229     1.866     1.744  0.0000 -0.4972  0.8676
 
              Baa    -0.0452   -24.138    -8.613    -8.051  0.0000  1.0000 -0.0000
     9 H(1)   Bbb    -0.0085    -4.512    -1.610    -1.505  1.0000 -0.0000  0.0000
              Bcc     0.0537    28.650    10.223     9.556  0.0000  0.0000  1.0000
 
              Baa    -0.0063    -3.360    -1.199    -1.121  1.0000 -0.0000  0.0000
    10 H(1)   Bbb    -0.0035    -1.869    -0.667    -0.623  0.0000  0.8676 -0.4972
              Bcc     0.0098     5.229     1.866     1.744  0.0000  0.4972  0.8676
 
              Baa    -0.0314   -16.744    -5.975    -5.585  0.0000 -0.6718  0.7407
    11 H(1)   Bbb    -0.0065    -3.442    -1.228    -1.148  1.0000  0.0000  0.0000
              Bcc     0.0378    20.186     7.203     6.733 -0.0000  0.7407  0.6718
 

 ---------------------------------------------------------------------------------

 No NMR shielding tensors so no spin-rotation constants.
 Leave Link  601 at Thu Mar  5 12:54:07 2020, MaxMem=  6710886400 cpu:               4.2 elap:               0.3
 (Enter /opt/ohpc/pub/libs/gaussian/g16-A.03/sandybridge/g16/l9999.exe)

 Test job not archived.
 1\1\GINC-CNODE212\SP\ULC-wHPBE\6-31G\C5H6(1+,2)\SMGO234\05-Mar-2020\0\
 \#P uLC-wHPBE/6-31G iop(3/130=0290300000, 3/131=0290300000, 3/119=0709
 700000, 3/120=0709700000) scf=(conver=6,fermi,ndamp=35,noincfock,novar
 acc,vshift=500,xqc)\\H6 C5\\1,2\C,0,0.,0.878804,-0.931542\C,0,0.,1.128
 157,0.423457\C,0,0.,0.,1.240879\C,0,0.,-1.128157,0.423457\C,0,0.,-0.87
 8804,-0.931542\H,0,0.,0.,-1.732269\H,0,0.,1.6083,-1.734053\H,0,0.,2.15
 6626,0.76567\H,0,0.,0.,2.320778\H,0,0.,-2.156626,0.76567\H,0,0.,-1.608
 3,-1.734053\\Version=EM64L-G16RevA.03\State=2-B1\HF=-196.3266663\S2=0.
 808088\S2-1=0.\S2A=0.751925\RMSD=6.477e-07\Dipole=0.,0.,-0.8012402\Qua
 drupole=-7.9364385,2.3600875,5.576351,0.,0.,0.\PG=C02V [C2(H1C1H1),SGV
 (C4H4)]\\@


 A MAN THINKING OR WORKING IS ALWAYS ALONE, 
 LET HIM BE WHERE HE WILL.

                                    -- THOREAU
 Job cpu time:       0 days  0 hours  1 minutes  4.9 seconds.
 Elapsed time:       0 days  0 hours  0 minutes  4.4 seconds.
 File lengths (MBytes):  RWF=    272 Int=      0 D2E=      0 Chk=     32 Scr=     32
 Normal termination of Gaussian 16 at Thu Mar  5 12:54:07 2020.
