 Entering Gaussian System, Link 0=g16
 Input=a1b_tune_c8.gjf
 Output=a1b_tune_c8.log
 Initial command:
 /opt/ohpc/pub/libs/gaussian/g16-A.03/sandybridge/g16/l1.exe "/scratch/smgo234/Ocelot/test/a1b/tuning_a1b_acycle2/Gau-86982.inp" -scrdir="/scratch/smgo234/Ocelot/test/a1b/tuning_a1b_acycle2/"
 Entering Link 1 = /opt/ohpc/pub/libs/gaussian/g16-A.03/sandybridge/g16/l1.exe PID=     86983.
  
 Copyright (c) 1988,1990,1992,1993,1995,1998,2003,2009,2016,
            Gaussian, Inc.  All Rights Reserved.
  
 This is part of the Gaussian(R) 16 program.  It is based on
 the Gaussian(R) 09 system (copyright 2009, Gaussian, Inc.),
 the Gaussian(R) 03 system (copyright 2003, Gaussian, Inc.),
 the Gaussian(R) 98 system (copyright 1998, Gaussian, Inc.),
 the Gaussian(R) 94 system (copyright 1995, Gaussian, Inc.),
 the Gaussian 92(TM) system (copyright 1992, Gaussian, Inc.),
 the Gaussian 90(TM) system (copyright 1990, Gaussian, Inc.),
 the Gaussian 88(TM) system (copyright 1988, Gaussian, Inc.),
 the Gaussian 86(TM) system (copyright 1986, Carnegie Mellon
 University), and the Gaussian 82(TM) system (copyright 1983,
 Carnegie Mellon University). Gaussian is a federally registered
 trademark of Gaussian, Inc.
  
 This software contains proprietary and confidential information,
 including trade secrets, belonging to Gaussian, Inc.
  
 This software is provided under written license and may be
 used, copied, transmitted, or stored only in accord with that
 written license.
  
 The following legend is applicable only to US Government
 contracts under FAR:
  
                    RESTRICTED RIGHTS LEGEND
  
 Use, reproduction and disclosure by the US Government is
 subject to restrictions as set forth in subparagraphs (a)
 and (c) of the Commercial Computer Software - Restricted
 Rights clause in FAR 52.227-19.
  
 Gaussian, Inc.
 340 Quinnipiac St., Bldg. 40, Wallingford CT 06492
  
  
 ---------------------------------------------------------------
 Warning -- This program may not be used in any manner that
 competes with the business of Gaussian, Inc. or will provide
 assistance to any competitor of Gaussian, Inc.  The licensee
 of this program is prohibited from giving any competitor of
 Gaussian, Inc. access to this program.  By using this program,
 the user acknowledges that Gaussian, Inc. is engaged in the
 business of creating and licensing software in the field of
 computational chemistry and represents and warrants to the
 licensee that it is not a competitor of Gaussian, Inc. and that
 it will not use this program in any manner prohibited above.
 ---------------------------------------------------------------
  

 Cite this work as:
 Gaussian 16, Revision A.03,
 M. J. Frisch, G. W. Trucks, H. B. Schlegel, G. E. Scuseria, 
 M. A. Robb, J. R. Cheeseman, G. Scalmani, V. Barone, 
 G. A. Petersson, H. Nakatsuji, X. Li, M. Caricato, A. V. Marenich, 
 J. Bloino, B. G. Janesko, R. Gomperts, B. Mennucci, H. P. Hratchian, 
 J. V. Ortiz, A. F. Izmaylov, J. L. Sonnenberg, D. Williams-Young, 
 F. Ding, F. Lipparini, F. Egidi, J. Goings, B. Peng, A. Petrone, 
 T. Henderson, D. Ranasinghe, V. G. Zakrzewski, J. Gao, N. Rega, 
 G. Zheng, W. Liang, M. Hada, M. Ehara, K. Toyota, R. Fukuda, 
 J. Hasegawa, M. Ishida, T. Nakajima, Y. Honda, O. Kitao, H. Nakai, 
 T. Vreven, K. Throssell, J. A. Montgomery, Jr., J. E. Peralta, 
 F. Ogliaro, M. J. Bearpark, J. J. Heyd, E. N. Brothers, K. N. Kudin, 
 V. N. Staroverov, T. A. Keith, R. Kobayashi, J. Normand, 
 K. Raghavachari, A. P. Rendell, J. C. Burant, S. S. Iyengar, 
 J. Tomasi, M. Cossi, J. M. Millam, M. Klene, C. Adamo, R. Cammi, 
 J. W. Ochterski, R. L. Martin, K. Morokuma, O. Farkas, 
 J. B. Foresman, and D. J. Fox, Gaussian, Inc., Wallingford CT, 2016.
 
 ******************************************
 Gaussian 16:  EM64L-G16RevA.03 25-Dec-2016
                 5-Mar-2020 
 ******************************************
 %mem=50GB
 %nproc=16
 Will use up to   16 processors via shared memory.
 ----------------------------------------------------------------------
 #P uLC-wHPBE/6-31G iop(3/130=0114300000, 3/131=0114300000, 3/119=08857
 00000, 3/120=0885700000) scf=(conver=6,fermi,ndamp=35,noincfock,novara
 cc,vshift=500,xqc)
 ----------------------------------------------------------------------
 1/38=1,172=1/1;
 2/12=2,17=6,18=5,40=1/2;
 3/5=1,6=6,11=2,25=1,30=1,74=-71,116=2,119=885700000,120=885700000,130=114300000,131=114300000/1,2,3;
 4//1;
 5/5=100002,6=6,8=3,10=500,13=1,18=-1,22=13,38=1,93=35/2,8;
 6/7=2,8=2,9=2,10=2,28=1/1;
 99/5=1,9=1/99;
 Leave Link    1 at Thu Mar  5 13:01:37 2020, MaxMem=  6710886400 cpu:              15.4 elap:               1.0
 (Enter /opt/ohpc/pub/libs/gaussian/g16-A.03/sandybridge/g16/l101.exe)
 -----
 H6 C5
 -----
 Symbolic Z-matrix:
 Charge =  1 Multiplicity = 2
 C                     0.        0.8788   -0.93154 
 C                     0.        1.12816   0.42346 
 C                     0.        0.        1.24088 
 C                     0.       -1.12816   0.42346 
 C                     0.       -0.8788   -0.93154 
 H                     0.        0.       -1.73227 
 H                     0.        1.6083   -1.73405 
 H                     0.        2.15663   0.76567 
 H                     0.        0.        2.32078 
 H                     0.       -2.15663   0.76567 
 H                     0.       -1.6083   -1.73405 
 
 ITRead=  0  0  0  0  0  0  0  0  0  0  0
 MicOpt= -1 -1 -1 -1 -1 -1 -1 -1 -1 -1 -1
 NAtoms=     11 NQM=       11 NQMF=       0 NMMI=      0 NMMIF=      0
                NMic=       0 NMicF=      0.
                    Isotopes and Nuclear Properties:
 (Nuclear quadrupole moments (NQMom) in fm**2, nuclear magnetic moments (NMagM)
  in nuclear magnetons)

  Atom         1           2           3           4           5           6           7           8           9          10
 IAtWgt=          12          12          12          12          12           1           1           1           1           1
 AtmWgt=  12.0000000  12.0000000  12.0000000  12.0000000  12.0000000   1.0078250   1.0078250   1.0078250   1.0078250   1.0078250
 NucSpn=           0           0           0           0           0           1           1           1           1           1
 AtZEff=  -0.0000000  -0.0000000  -0.0000000  -0.0000000  -0.0000000  -0.0000000  -0.0000000  -0.0000000  -0.0000000  -0.0000000
 NQMom=    0.0000000   0.0000000   0.0000000   0.0000000   0.0000000   0.0000000   0.0000000   0.0000000   0.0000000   0.0000000
 NMagM=    0.0000000   0.0000000   0.0000000   0.0000000   0.0000000   2.7928460   2.7928460   2.7928460   2.7928460   2.7928460
 AtZNuc=   6.0000000   6.0000000   6.0000000   6.0000000   6.0000000   1.0000000   1.0000000   1.0000000   1.0000000   1.0000000

  Atom        11
 IAtWgt=           1
 AtmWgt=   1.0078250
 NucSpn=           1
 AtZEff=  -0.0000000
 NQMom=    0.0000000
 NMagM=    2.7928460
 AtZNuc=   1.0000000
 Leave Link  101 at Thu Mar  5 13:01:37 2020, MaxMem=  6710886400 cpu:               4.3 elap:               0.3
 (Enter /opt/ohpc/pub/libs/gaussian/g16-A.03/sandybridge/g16/l202.exe)
                          Input orientation:                          
 ---------------------------------------------------------------------
 Center     Atomic      Atomic             Coordinates (Angstroms)
 Number     Number       Type             X           Y           Z
 ---------------------------------------------------------------------
      1          6           0        0.000000    0.878804   -0.931542
      2          6           0        0.000000    1.128157    0.423457
      3          6           0        0.000000    0.000000    1.240879
      4          6           0        0.000000   -1.128157    0.423457
      5          6           0        0.000000   -0.878804   -0.931542
      6          1           0        0.000000    0.000000   -1.732269
      7          1           0        0.000000    1.608300   -1.734053
      8          1           0        0.000000    2.156626    0.765670
      9          1           0        0.000000    0.000000    2.320778
     10          1           0        0.000000   -2.156626    0.765670
     11          1           0        0.000000   -1.608300   -1.734053
 ---------------------------------------------------------------------
                    Distance matrix (angstroms):
                    1          2          3          4          5
     1  C    0.000000
     2  C    1.377752   0.000000
     3  C    2.343440   1.393168   0.000000
     4  C    2.421552   2.256314   1.393168   0.000000
     5  C    1.757608   2.421552   2.343440   1.377752   0.000000
     6  H    1.188890   2.433083   2.973148   2.433083   1.188890
     7  H    1.084522   2.210291   3.381841   3.484687   2.613371
     8  H    2.124466   1.083909   2.208361   3.302561   3.477695
     9  H    3.368959   2.207389   1.079899   2.207389   3.368959
    10  H    3.477695   3.302561   2.208361   1.083909   2.124466
    11  H    2.613371   3.484687   3.381841   2.210291   1.084522
                    6          7          8          9         10
     6  H    0.000000
     7  H    1.608301   0.000000
     8  H    3.300111   2.559155   0.000000
     9  H    4.053047   4.362142   2.658834   0.000000
    10  H    3.300111   4.519213   4.313252   2.658834   0.000000
    11  H    1.608301   3.216600   4.519213   4.362142   2.559155
                   11
    11  H    0.000000
 Stoichiometry    C5H6(1+,2)
 Framework group  C2V[C2(HCH),SGV(C4H4)]
 Deg. of freedom    10
 Full point group                 C2V     NOp   4
 Largest Abelian subgroup         C2V     NOp   4
 Largest concise Abelian subgroup C2      NOp   2
                         Standard orientation:                         
 ---------------------------------------------------------------------
 Center     Atomic      Atomic             Coordinates (Angstroms)
 Number     Number       Type             X           Y           Z
 ---------------------------------------------------------------------
      1          6           0        0.000000    0.878804   -0.931542
      2          6           0        0.000000    1.128157    0.423457
      3          6           0        0.000000   -0.000000    1.240879
      4          6           0       -0.000000   -1.128157    0.423457
      5          6           0       -0.000000   -0.878804   -0.931542
      6          1           0       -0.000000    0.000000   -1.732269
      7          1           0        0.000000    1.608300   -1.734053
      8          1           0        0.000000    2.156626    0.765670
      9          1           0        0.000000   -0.000000    2.320778
     10          1           0       -0.000000   -2.156626    0.765670
     11          1           0       -0.000000   -1.608300   -1.734053
 ---------------------------------------------------------------------
 Rotational constants (GHZ):           8.5259551           7.9375455           4.1106177
 Leave Link  202 at Thu Mar  5 13:01:37 2020, MaxMem=  6710886400 cpu:               0.7 elap:               0.1
 (Enter /opt/ohpc/pub/libs/gaussian/g16-A.03/sandybridge/g16/l301.exe)
 Standard basis: 6-31G (6D, 7F)
 Ernie: Thresh=  0.10000D-02 Tol=  0.10000D-05 Strict=F.
 There are    27 symmetry adapted cartesian basis functions of A1  symmetry.
 There are     4 symmetry adapted cartesian basis functions of A2  symmetry.
 There are     6 symmetry adapted cartesian basis functions of B1  symmetry.
 There are    20 symmetry adapted cartesian basis functions of B2  symmetry.
 There are    27 symmetry adapted basis functions of A1  symmetry.
 There are     4 symmetry adapted basis functions of A2  symmetry.
 There are     6 symmetry adapted basis functions of B1  symmetry.
 There are    20 symmetry adapted basis functions of B2  symmetry.
    57 basis functions,   134 primitive gaussians,    57 cartesian basis functions
    18 alpha electrons       17 beta electrons
       nuclear repulsion energy       156.0127424860 Hartrees.
 IExCor=33909 DFT=T Ex+Corr=LC-wHPBE ExCW=0 ScaHFX=  1.000000
 ScaDFX=  1.000000  1.000000  1.000000  1.000000 ScalE2=  1.000000  1.000000
 IRadAn=      5 IRanWt=     -1 IRanGd=            0 ICorTp=0 IEmpDi=  4
 HFx  wShort=  0.000000 wLong=  0.400000 cFull=  0.000000 cShort=  0.000000 cLong=  0.885700
 DFx  wShort=  0.000000 wLong=  0.400000 cFull=  0.000000 cShort=  1.000000 cLong=  0.885700
 NAtoms=   11 NActive=   11 NUniq=    7 SFac= 2.47D+00 NAtFMM=   60 NAOKFM=F Big=F
 Integral buffers will be    131072 words long.
 Raffenetti 2 integral format.
 Two-electron integral symmetry is turned on.
 Leave Link  301 at Thu Mar  5 13:01:38 2020, MaxMem=  6710886400 cpu:               0.9 elap:               0.3
 (Enter /opt/ohpc/pub/libs/gaussian/g16-A.03/sandybridge/g16/l302.exe)
 NPDir=0 NMtPBC=     1 NCelOv=     1 NCel=       1 NClECP=     1 NCelD=      1
         NCelK=      1 NCelE2=     1 NClLst=     1 CellRange=     0.0.
 One-electron integrals computed using PRISM.
 One-electron integral symmetry used in STVInt
 NBasis=    57 RedAO= T EigKep=  1.84D-03  NBF=    27     4     6    20
 NBsUse=    57 1.00D-06 EigRej= -1.00D+00 NBFU=    27     4     6    20
 Precomputing XC quadrature grid using
 IXCGrd= 4 IRadAn=           5 IRanWt=          -1 IRanGd=           0 AccXCQ= 0.00D+00.
 Generated NRdTot=       0 NPtTot=           0 NUsed=           0 NTot=          32
 NSgBfM=    57    57    57    57    57 MxSgAt=    11 MxSgA2=    11.
 Leave Link  302 at Thu Mar  5 13:01:38 2020, MaxMem=  6710886400 cpu:               2.3 elap:               0.4
 (Enter /opt/ohpc/pub/libs/gaussian/g16-A.03/sandybridge/g16/l303.exe)
 DipDrv:  MaxL=1.
 Leave Link  303 at Thu Mar  5 13:01:38 2020, MaxMem=  6710886400 cpu:               0.3 elap:               0.0
 (Enter /opt/ohpc/pub/libs/gaussian/g16-A.03/sandybridge/g16/l401.exe)
 ExpMin= 1.61D-01 ExpMax= 3.05D+03 ExpMxC= 4.57D+02 IAcc=3 IRadAn=         5 AccDes= 0.00D+00
 Harris functional with IExCor=33909 and IRadAn=       5 diagonalized for initial guess.
 HarFok:  IExCor=33909 AccDes= 0.00D+00 IRadAn=         5 IDoV= 1 UseB2=F ITyADJ=14
 ICtDFT=  3500011 ScaDFX=  1.000000  1.000000  1.000000  1.000000
 FoFCou: FMM=F IPFlag=           0 FMFlag=      100000 FMFlg1=           0
         NFxFlg=           0 DoJE=T BraDBF=F KetDBF=T FulRan=T
         wScrn=  0.000000 ICntrl=       500 IOpCl=  0 I1Cent=   200000004 NGrid=           0
         NMat0=    1 NMatS0=      1 NMatT0=    0 NMatD0=    1 NMtDS0=    0 NMtDT0=    0
 Petite list used in FoFCou.
 Harris En= -192.709464646792    
 JPrj=0 DoOrth=F DoCkMO=F.
 Initial guess orbital symmetries:
 Alpha Orbitals:
       Occupied  (A1) (B2) (A1) (B2) (A1) (A1) (A1) (B2) (A1) (B2)
                 (A1) (B2) (A1) (B2) (A1) (B1) (A2) (B1)
       Virtual   (A2) (B2) (B1) (A1) (A1) (B2) (A1) (B2) (A1) (B2)
                 (A1) (B2) (A1) (B2) (B1) (A1) (A2) (B1) (B2) (A1)
                 (A1) (A2) (B1) (B2) (B2) (A1) (B2) (A1) (A1) (B2)
                 (A1) (A1) (A1) (B2) (A1) (B2) (A1) (A1) (B2)
 Beta  Orbitals:
       Occupied  (A1) (B2) (A1) (B2) (A1) (A1) (A1) (B2) (A1) (B2)
                 (A1) (B2) (A1) (B2) (A1) (B1) (A2)
       Virtual   (B1) (A2) (B2) (B1) (A1) (A1) (B2) (A1) (B2) (A1)
                 (B2) (A1) (B2) (A1) (B2) (B1) (A1) (A2) (B1) (B2)
                 (A1) (A1) (A2) (B1) (B2) (B2) (A1) (B2) (A1) (A1)
                 (B2) (A1) (A1) (A1) (B2) (A1) (B2) (A1) (A1) (B2)
 The electronic state of the initial guess is 2-B1.
 Initial guess <Sx>= 0.0000 <Sy>= 0.0000 <Sz>= 0.5000 <S**2>= 0.7500 S= 0.5000
 Leave Link  401 at Thu Mar  5 13:01:38 2020, MaxMem=  6710886400 cpu:               3.0 elap:               0.2
 (Enter /opt/ohpc/pub/libs/gaussian/g16-A.03/sandybridge/g16/l502.exe)
 Keep R1 and R2 ints in memory in symmetry-blocked form, NReq=16815681.
 FoFCou: FMM=F IPFlag=           0 FMFlag=           0 FMFlg1=           0
         NFxFlg=           0 DoJE=F BraDBF=F KetDBF=F FulRan=T
         wScrn=  0.000000 ICntrl=       600 IOpCl=  0 I1Cent=           0 NGrid=           0
         NMat0=    1 NMatS0=   1653 NMatT0=    0 NMatD0=    1 NMtDS0=    0 NMtDT0=    0
 Petite list used in FoFCou.
 UHF open shell SCF:
 Using DIIS extrapolation, IDIIS=    10.
 NGot=  6710886400 LenX=  6710059561 LenY=  6710055871
 Requested convergence on RMS density matrix=1.00D-06 within  32 cycles.
 Requested convergence on MAX density matrix=1.00D-04.
 Requested convergence on             energy=1.00D-04.
 Virtual orbitals will be shifted by   0.500 hartree.
 No special actions if energy rises.
 Dynamic level shift is on during FON iterations.

 Cycle   1  Pass 1  IDiag  1:
 E= -198.688709882354    
 DIIS: error= 4.90D-02 at cycle   1 NSaved=   1.
 NSaved= 1 IEnMin= 1 EnMin= -198.688709882354     IErMin= 1 ErrMin= 4.90D-02
 ErrMax= 4.90D-02  0.00D+00 EMaxC= 1.00D+00 BMatC= 1.97D-01 BMatP= 1.97D-01
 IDIUse=1 WtCom= 1.00D+00 WtEn= 0.00D+00
 Coeff-Com:  0.100D+01
 Coeff:      0.100D+01
 Gap=     0.363 Goal=   None    Shift=    0.500
 T= 1791. Gap= 0.835 NK=0 IS=   19 IE=   57 IFin=   18
          NO(<0.9)=   0  NV(>0.1)=   0     18.00e < EF      0.00e >EF  Err=0.0D+00
 Gap=     0.238 Goal=   None    Shift=    0.500
 T= 1791. Gap= 0.740 NK=0 IS=   18 IE=   57 IFin=   17
          NO(<0.9)=   0  NV(>0.1)=   0     17.00e < EF      0.00e >EF  Err=0.0D+00
 GapD=    0.238 DampG=1.000 DampE=0.500 DampFc=0.5000 IDamp=-1.
 Damping current iteration by 5.00D-01
 RMSDP=6.99D-03 MaxDP=5.38D-02              OVMax= 1.03D-01

 Cycle   2  Pass 1  IDiag  1:
 E= -198.726026663327     Delta-E=       -0.037316780973 Rises=F Damp=T
 DIIS: error= 2.44D-02 at cycle   2 NSaved=   2.
 NSaved= 2 IEnMin= 2 EnMin= -198.726026663327     IErMin= 2 ErrMin= 2.44D-02
 ErrMax= 2.44D-02  0.00D+00 EMaxC= 1.00D+00 BMatC= 3.68D-02 BMatP= 1.97D-01
 IDIUse=1 WtCom= 1.00D+00 WtEn= 0.00D+00
 Coeff-Com: -0.576D+00 0.158D+01
 Coeff:     -0.576D+00 0.158D+01
 Gap=     0.429 Goal=   None    Shift=    0.500
 T= 1681. Gap= 0.915 NK=4 IS=   19 IE=   23 IFin=   18
          NO(<0.9)=   0  NV(>0.1)=   0     18.00e < EF      0.00e >EF  Err=0.0D+00
 Gap=     0.267 Goal=   None    Shift=    0.500
 T= 1681. Gap= 0.765 NK=4 IS=   18 IE=   23 IFin=   17
          NO(<0.9)=   0  NV(>0.1)=   0     17.00e < EF      0.00e >EF  Err=0.0D+00
 GapD=    0.267 DampG=1.000 DampE=0.500 DampFc=0.5000 IDamp=-1.
 Damping current iteration by 5.00D-01
 RMSDP=4.40D-03 MaxDP=3.40D-02 DE=-3.73D-02 OVMax= 1.86D-02

 Cycle   3  Pass 1  IDiag  1:
 E= -198.739874989948     Delta-E=       -0.013848326621 Rises=F Damp=T
 DIIS: error= 1.46D-02 at cycle   3 NSaved=   3.
 NSaved= 3 IEnMin= 3 EnMin= -198.739874989948     IErMin= 3 ErrMin= 1.46D-02
 ErrMax= 1.46D-02  0.00D+00 EMaxC= 1.00D+00 BMatC= 9.29D-03 BMatP= 3.68D-02
 IDIUse=1 WtCom= 1.00D+00 WtEn= 0.00D+00
 Coeff-Com:  0.330D+00-0.188D+01 0.255D+01
 Coeff:      0.330D+00-0.188D+01 0.255D+01
 Gap=     0.419 Goal=   None    Shift=    0.500
 T= 1483. Gap= 0.920 NK=0 IS=   19 IE=   57 IFin=   18
          NO(<0.9)=   0  NV(>0.1)=   0     18.00e < EF      0.00e >EF  Err=0.0D+00
 Gap=     0.272 Goal=   None    Shift=    0.500
 T= 1483. Gap= 0.772 NK=0 IS=   18 IE=   57 IFin=   17
          NO(<0.9)=   0  NV(>0.1)=   0     17.00e < EF      0.00e >EF  Err=0.0D+00
 GapD=    0.272 DampG=1.000 DampE=0.500 DampFc=0.5000 IDamp=-1.
 Damping current iteration by 5.00D-01
 RMSDP=2.57D-03 MaxDP=2.06D-02 DE=-1.38D-02 OVMax= 1.77D-02

 Cycle   4  Pass 1  IDiag  1:
 E= -198.746676022424     Delta-E=       -0.006801032477 Rises=F Damp=T
 DIIS: error= 9.69D-03 at cycle   4 NSaved=   4.
 NSaved= 4 IEnMin= 4 EnMin= -198.746676022424     IErMin= 4 ErrMin= 9.69D-03
 ErrMax= 9.69D-03  0.00D+00 EMaxC= 1.00D+00 BMatC= 3.34D-03 BMatP= 9.29D-03
 IDIUse=1 WtCom= 1.00D+00 WtEn= 0.00D+00
 Coeff-Com:  0.957D-02 0.860D+00-0.387D+01 0.400D+01
 Coeff:      0.957D-02 0.860D+00-0.387D+01 0.400D+01
 Gap=     0.425 Goal=   None    Shift=    0.500
 T= 1127. Gap= 0.925 NK=0 IS=   19 IE=   57 IFin=   18
          NO(<0.9)=   0  NV(>0.1)=   0     18.00e < EF      0.00e >EF  Err=0.0D+00
 Gap=     0.278 Goal=   None    Shift=    0.500
 T= 1127. Gap= 0.778 NK=0 IS=   18 IE=   57 IFin=   17
          NO(<0.9)=   0  NV(>0.1)=   0     17.00e < EF      0.00e >EF  Err=0.0D+00
 GapD=    0.278 DampG=1.000 DampE=1.000 DampFc=1.0000 IDamp=-1.
 RMSDP=1.67D-03 MaxDP=1.73D-02 DE=-6.80D-03 OVMax= 1.75D-02

 Cycle   5  Pass 1  IDiag  1:
 E= -198.754997560668     Delta-E=       -0.008321538244 Rises=F Damp=F
 DIIS: error= 4.77D-03 at cycle   5 NSaved=   5.
 NSaved= 5 IEnMin= 5 EnMin= -198.754997560668     IErMin= 5 ErrMin= 4.77D-03
 ErrMax= 4.77D-03  0.00D+00 EMaxC= 1.00D+00 BMatC= 5.62D-04 BMatP= 3.34D-03
 IDIUse=1 WtCom= 1.00D+00 WtEn= 0.00D+00
 Coeff-Com: -0.198D+00 0.970D+00-0.704D+00-0.105D+01 0.199D+01
 Coeff:     -0.198D+00 0.970D+00-0.704D+00-0.105D+01 0.199D+01
 Gap=     0.429 Goal=   None    Shift=    0.500
 T=  817. Gap= 0.929 NK=0 IS=   19 IE=   57 IFin=   18
          NO(<0.9)=   0  NV(>0.1)=   0     18.00e < EF      0.00e >EF  Err=0.0D+00
 Gap=     0.283 Goal=   None    Shift=    0.500
 T=  817. Gap= 0.783 NK=0 IS=   18 IE=   57 IFin=   17
          NO(<0.9)=   0  NV(>0.1)=   0     17.00e < EF      0.00e >EF  Err=0.0D+00
 GapD=    0.283 DampG=1.000 DampE=1.000 DampFc=1.0000 IDamp=-1.
 RMSDP=5.05D-04 MaxDP=8.13D-03 DE=-8.32D-03 OVMax= 1.80D-02

 Cycle   6  Pass 1  IDiag  1:
 E= -198.755842359353     Delta-E=       -0.000844798685 Rises=F Damp=F
 DIIS: error= 3.73D-03 at cycle   6 NSaved=   6.
 NSaved= 6 IEnMin= 6 EnMin= -198.755842359353     IErMin= 6 ErrMin= 3.73D-03
 ErrMax= 3.73D-03  0.00D+00 EMaxC= 1.00D+00 BMatC= 2.66D-04 BMatP= 5.62D-04
 IDIUse=1 WtCom= 1.00D+00 WtEn= 0.00D+00
 Coeff-Com:  0.676D-02-0.310D+00 0.866D+00-0.541D+00-0.173D+01 0.271D+01
 Coeff:      0.676D-02-0.310D+00 0.866D+00-0.541D+00-0.173D+01 0.271D+01
 Gap=     0.432 Goal=   None    Shift=    0.500
 T=  537. Gap= 0.932 NK=0 IS=   19 IE=   57 IFin=   18
          NO(<0.9)=   0  NV(>0.1)=   0     18.00e < EF      0.00e >EF  Err=0.0D+00
 Gap=     0.285 Goal=   None    Shift=    0.500
 T=  537. Gap= 0.785 NK=0 IS=   18 IE=   57 IFin=   17
          NO(<0.9)=   0  NV(>0.1)=   0     17.00e < EF      0.00e >EF  Err=0.0D+00
 GapD=    0.285 DampG=1.000 DampE=1.000 DampFc=1.0000 IDamp=-1.
 RMSDP=4.12D-04 MaxDP=6.59D-03 DE=-8.45D-04 OVMax= 1.64D-02

 Cycle   7  Pass 1  IDiag  1:
 E= -198.756333152298     Delta-E=       -0.000490792945 Rises=F Damp=F
 DIIS: error= 2.76D-03 at cycle   7 NSaved=   7.
 NSaved= 7 IEnMin= 7 EnMin= -198.756333152298     IErMin= 7 ErrMin= 2.76D-03
 ErrMax= 2.76D-03  0.00D+00 EMaxC= 1.00D+00 BMatC= 1.24D-04 BMatP= 2.66D-04
 IDIUse=1 WtCom= 1.00D+00 WtEn= 0.00D+00
 Coeff-Com:  0.177D-01-0.509D-01-0.207D+00 0.481D+00-0.253D+00-0.140D+01
 Coeff-Com:  0.242D+01
 Coeff:      0.177D-01-0.509D-01-0.207D+00 0.481D+00-0.253D+00-0.140D+01
 Coeff:      0.242D+01
 Gap=     0.433 Goal=   None    Shift=    0.500
 T=  249. Gap= 0.933 NK=0 IS=   19 IE=   57 IFin=   18
          NO(<0.9)=   0  NV(>0.1)=   0     18.00e < EF      0.00e >EF  Err=0.0D+00
 Gap=     0.287 Goal=   None    Shift=    0.500
 T=  249. Gap= 0.787 NK=0 IS=   18 IE=   57 IFin=   17
          NO(<0.9)=   0  NV(>0.1)=   0     17.00e < EF      0.00e >EF  Err=0.0D+00
 GapD=    0.287 DampG=1.000 DampE=1.000 DampFc=1.0000 IDamp=-1.
 RMSDP=2.90D-04 MaxDP=4.35D-03 DE=-4.91D-04 OVMax= 1.25D-02

 Cycle   8  Pass 1  IDiag  1:
 E= -198.756564946510     Delta-E=       -0.000231794212 Rises=F Damp=F
 DIIS: error= 2.02D-03 at cycle   8 NSaved=   8.
 NSaved= 8 IEnMin= 8 EnMin= -198.756564946510     IErMin= 8 ErrMin= 2.02D-03
 ErrMax= 2.02D-03  0.00D+00 EMaxC= 1.00D+00 BMatC= 6.29D-05 BMatP= 1.24D-04
 IDIUse=1 WtCom= 1.00D+00 WtEn= 0.00D+00
 Coeff-Com: -0.182D-01 0.317D+00-0.850D+00 0.554D+00 0.140D+01-0.275D+01
 Coeff-Com: -0.558D-01 0.240D+01
 Coeff:     -0.182D-01 0.317D+00-0.850D+00 0.554D+00 0.140D+01-0.275D+01
 Coeff:     -0.558D-01 0.240D+01
 Gap=     0.434 Goal=   None    Shift=    0.500
 T=   81. Gap= 0.934 NK=0 IS=   19 IE=   57 IFin=   18
          NO(<0.9)=   0  NV(>0.1)=   0     18.00e < EF      0.00e >EF  Err=0.0D+00
 Gap=     0.288 Goal=   None    Shift=    0.500
 T=   81. Gap= 0.788 NK=0 IS=   18 IE=   57 IFin=   17
          NO(<0.9)=   0  NV(>0.1)=   0     17.00e < EF      0.00e >EF  Err=0.0D+00
 GapD=    0.288 DampG=1.000 DampE=1.000 DampFc=1.0000 IDamp=-1.
 RMSDP=2.41D-04 MaxDP=3.50D-03 DE=-2.32D-04 OVMax= 1.09D-02

 Cycle   9  Pass 1  IDiag  1:
 E= -198.756694850531     Delta-E=       -0.000129904021 Rises=F Damp=F
 DIIS: error= 1.38D-03 at cycle   9 NSaved=   9.
 NSaved= 9 IEnMin= 9 EnMin= -198.756694850531     IErMin= 9 ErrMin= 1.38D-03
 ErrMax= 1.38D-03  0.00D+00 EMaxC= 1.00D+00 BMatC= 2.88D-05 BMatP= 6.29D-05
 IDIUse=1 WtCom= 1.00D+00 WtEn= 0.00D+00
 Coeff-Com:  0.523D-02-0.190D+00 0.700D+00-0.669D+00-0.644D+00 0.236D+01
 Coeff-Com: -0.121D+01-0.350D+01 0.415D+01
 Coeff:      0.523D-02-0.190D+00 0.700D+00-0.669D+00-0.644D+00 0.236D+01
 Coeff:     -0.121D+01-0.350D+01 0.415D+01
 Gap=     0.434 Goal=   None    Shift=    0.500
 Gap=     0.288 Goal=   None    Shift=    0.500
 GapD=    0.288 DampG=1.000 DampE=1.000 DampFc=1.0000 IDamp=-1.
 RMSDP=1.99D-04 MaxDP=3.15D-03 DE=-1.30D-04 OVMax= 9.54D-03

 Cycle  10  Pass 1  IDiag  1:
 E= -198.756765154131     Delta-E=       -0.000070303600 Rises=F Damp=F
 DIIS: error= 8.47D-04 at cycle  10 NSaved=  10.
 NSaved=10 IEnMin=10 EnMin= -198.756765154131     IErMin=10 ErrMin= 8.47D-04
 ErrMax= 8.47D-04  0.00D+00 EMaxC= 1.00D+00 BMatC= 1.18D-05 BMatP= 2.88D-05
 IDIUse=1 WtCom= 1.00D+00 WtEn= 0.00D+00
 Coeff-Com:  0.314D-02 0.555D-02-0.482D-01 0.561D-01 0.429D-01-0.221D+00
 Coeff-Com:  0.355D+00 0.925D-01-0.190D+01 0.262D+01
 Coeff:      0.314D-02 0.555D-02-0.482D-01 0.561D-01 0.429D-01-0.221D+00
 Coeff:      0.355D+00 0.925D-01-0.190D+01 0.262D+01
 Gap=     0.434 Goal=   None    Shift=    0.500
 Gap=     0.288 Goal=   None    Shift=    0.500
 RMSDP=1.19D-04 MaxDP=1.95D-03 DE=-7.03D-05 OVMax= 5.96D-03

 Cycle  11  Pass 1  IDiag  1:
 E= -198.756791938391     Delta-E=       -0.000026784260 Rises=F Damp=F
 DIIS: error= 5.18D-04 at cycle  11 NSaved=  11.
 NSaved=11 IEnMin=11 EnMin= -198.756791938391     IErMin=11 ErrMin= 5.18D-04
 ErrMax= 5.18D-04  0.00D+00 EMaxC= 1.00D+00 BMatC= 5.20D-06 BMatP= 1.18D-05
 IDIUse=1 WtCom= 1.00D+00 WtEn= 0.00D+00
 Coeff-Com: -0.958D-05-0.445D-01 0.203D+00-0.226D+00-0.840D-01 0.641D+00
 Coeff-Com: -0.668D+00-0.852D+00 0.354D+01-0.648D+01 0.497D+01
 Coeff:     -0.958D-05-0.445D-01 0.203D+00-0.226D+00-0.840D-01 0.641D+00
 Coeff:     -0.668D+00-0.852D+00 0.354D+01-0.648D+01 0.497D+01
 Gap=     0.434 Goal=   None    Shift=    0.500
 Gap=     0.288 Goal=   None    Shift=    0.500
 RMSDP=8.11D-05 MaxDP=1.27D-03 DE=-2.68D-05 OVMax= 4.12D-03

 Cycle  12  Pass 1  IDiag  1:
 E= -198.756803470273     Delta-E=       -0.000011531882 Rises=F Damp=F
 DIIS: error= 2.98D-04 at cycle  12 NSaved=  12.
 NSaved=12 IEnMin=12 EnMin= -198.756803470273     IErMin=12 ErrMin= 2.98D-04
 ErrMax= 2.98D-04  0.00D+00 EMaxC= 1.00D+00 BMatC= 1.94D-06 BMatP= 5.20D-06
 IDIUse=1 WtCom= 1.00D+00 WtEn= 0.00D+00
 Coeff-Com:  0.911D-03-0.276D-01 0.102D+00-0.976D-01-0.832D-01 0.312D+00
 Coeff-Com: -0.824D-01-0.580D+00 0.469D+00 0.740D+00-0.265D+01 0.289D+01
 Coeff:      0.911D-03-0.276D-01 0.102D+00-0.976D-01-0.832D-01 0.312D+00
 Coeff:     -0.824D-01-0.580D+00 0.469D+00 0.740D+00-0.265D+01 0.289D+01
 Gap=     0.434 Goal=   None    Shift=    0.500
 Gap=     0.288 Goal=   None    Shift=    0.500
 RMSDP=4.90D-05 MaxDP=7.46D-04 DE=-1.15D-05 OVMax= 2.49D-03

 Cycle  13  Pass 1  IDiag  1:
 E= -198.756807605919     Delta-E=       -0.000004135646 Rises=F Damp=F
 DIIS: error= 1.67D-04 at cycle  13 NSaved=  13.
 NSaved=13 IEnMin=13 EnMin= -198.756807605919     IErMin=13 ErrMin= 1.67D-04
 ErrMax= 1.67D-04  0.00D+00 EMaxC= 1.00D+00 BMatC= 7.07D-07 BMatP= 1.94D-06
 IDIUse=1 WtCom= 1.00D+00 WtEn= 0.00D+00
 Coeff-Com:  0.413D-03 0.530D-03 0.421D-02-0.129D-01 0.311D-01-0.352D-02
 Coeff-Com: -0.124D+00 0.900D-01 0.619D+00-0.208D+01 0.358D+01-0.527D+01
 Coeff-Com:  0.417D+01
 Coeff:      0.413D-03 0.530D-03 0.421D-02-0.129D-01 0.311D-01-0.352D-02
 Coeff:     -0.124D+00 0.900D-01 0.619D+00-0.208D+01 0.358D+01-0.527D+01
 Coeff:      0.417D+01
 Gap=     0.434 Goal=   None    Shift=    0.500
 Gap=     0.288 Goal=   None    Shift=    0.500
 RMSDP=2.95D-05 MaxDP=4.51D-04 DE=-4.14D-06 OVMax= 1.51D-03

 Cycle  14  Pass 1  IDiag  1:
 E= -198.756809056314     Delta-E=       -0.000001450395 Rises=F Damp=F
 DIIS: error= 8.87D-05 at cycle  14 NSaved=  14.
 NSaved=14 IEnMin=14 EnMin= -198.756809056314     IErMin=14 ErrMin= 8.87D-05
 ErrMax= 8.87D-05  0.00D+00 EMaxC= 1.00D+00 BMatC= 2.60D-07 BMatP= 7.07D-07
 IDIUse=1 WtCom= 1.00D+00 WtEn= 0.00D+00
 Coeff-Com:  0.461D-03-0.997D-02 0.394D-01-0.416D-01-0.216D-01 0.106D+00
 Coeff-Com: -0.423D-01-0.199D+00 0.373D+00-0.349D+00-0.328D+00 0.181D+01
 Coeff-Com: -0.358D+01 0.325D+01
 Coeff:      0.461D-03-0.997D-02 0.394D-01-0.416D-01-0.216D-01 0.106D+00
 Coeff:     -0.423D-01-0.199D+00 0.373D+00-0.349D+00-0.328D+00 0.181D+01
 Coeff:     -0.358D+01 0.325D+01
 Gap=     0.434 Goal=   None    Shift=    0.500
 Gap=     0.288 Goal=   None    Shift=    0.500
 RMSDP=1.68D-05 MaxDP=2.52D-04 DE=-1.45D-06 OVMax= 8.66D-04

 Cycle  15  Pass 1  IDiag  1:
 E= -198.756809528801     Delta-E=       -0.000000472487 Rises=F Damp=F
 DIIS: error= 4.65D-05 at cycle  15 NSaved=  15.
 NSaved=15 IEnMin=15 EnMin= -198.756809528801     IErMin=15 ErrMin= 4.65D-05
 ErrMax= 4.65D-05  0.00D+00 EMaxC= 1.00D+00 BMatC= 8.79D-08 BMatP= 2.60D-07
 IDIUse=1 WtCom= 1.00D+00 WtEn= 0.00D+00
 Coeff-Com: -0.190D-03 0.366D-02-0.141D-01 0.150D-01 0.861D-02-0.385D-01
 Coeff-Com:  0.116D-01 0.838D-01-0.131D+00 0.789D-01 0.294D+00-0.140D+01
 Coeff-Com:  0.310D+01-0.494D+01 0.394D+01
 Coeff:     -0.190D-03 0.366D-02-0.141D-01 0.150D-01 0.861D-02-0.385D-01
 Coeff:      0.116D-01 0.838D-01-0.131D+00 0.789D-01 0.294D+00-0.140D+01
 Coeff:      0.310D+01-0.494D+01 0.394D+01
 Gap=     0.434 Goal=   None    Shift=    0.500
 Gap=     0.288 Goal=   None    Shift=    0.500
 RMSDP=9.07D-06 MaxDP=1.30D-04 DE=-4.72D-07 OVMax= 4.71D-04

 Cycle  16  Pass 1  IDiag  1:
 E= -198.756809671329     Delta-E=       -0.000000142529 Rises=F Damp=F
 DIIS: error= 2.69D-05 at cycle  16 NSaved=  16.
 NSaved=16 IEnMin=16 EnMin= -198.756809671329     IErMin=16 ErrMin= 2.69D-05
 ErrMax= 2.69D-05  0.00D+00 EMaxC= 1.00D+00 BMatC= 2.92D-08 BMatP= 8.79D-08
 IDIUse=1 WtCom= 1.00D+00 WtEn= 0.00D+00
 Coeff-Com:  0.707D-04-0.829D-03 0.533D-02-0.772D-02 0.436D-02 0.238D-02
 Coeff-Com: -0.184D-03-0.267D-01 0.102D+00-0.215D+00 0.192D+00 0.921D-01
 Coeff-Com: -0.872D+00 0.232D+01-0.409D+01 0.349D+01
 Coeff:      0.707D-04-0.829D-03 0.533D-02-0.772D-02 0.436D-02 0.238D-02
 Coeff:     -0.184D-03-0.267D-01 0.102D+00-0.215D+00 0.192D+00 0.921D-01
 Coeff:     -0.872D+00 0.232D+01-0.409D+01 0.349D+01
 Gap=     0.434 Goal=   None    Shift=    0.500
 Gap=     0.288 Goal=   None    Shift=    0.500
 RMSDP=4.78D-06 MaxDP=6.49D-05 DE=-1.43D-07 OVMax= 2.50D-04

 Cycle  17  Pass 1  IDiag  1:
 E= -198.756809713173     Delta-E=       -0.000000041843 Rises=F Damp=F
 DIIS: error= 1.58D-05 at cycle  17 NSaved=  17.
 NSaved=17 IEnMin=17 EnMin= -198.756809713173     IErMin=17 ErrMin= 1.58D-05
 ErrMax= 1.58D-05  0.00D+00 EMaxC= 1.00D+00 BMatC= 9.25D-09 BMatP= 2.92D-08
 IDIUse=1 WtCom= 1.00D+00 WtEn= 0.00D+00
 Coeff-Com: -0.241D-04 0.791D-03-0.431D-02 0.567D-02-0.914D-03-0.807D-02
 Coeff-Com:  0.722D-02 0.205D-01-0.655D-01 0.111D+00-0.572D-01-0.200D+00
 Coeff-Com:  0.741D+00-0.170D+01 0.297D+01-0.446D+01 0.364D+01
 Coeff:     -0.241D-04 0.791D-03-0.431D-02 0.567D-02-0.914D-03-0.807D-02
 Coeff:      0.722D-02 0.205D-01-0.655D-01 0.111D+00-0.572D-01-0.200D+00
 Coeff:      0.741D+00-0.170D+01 0.297D+01-0.446D+01 0.364D+01
 Gap=     0.434 Goal=   None    Shift=    0.500
 Gap=     0.288 Goal=   None    Shift=    0.500
 RMSDP=2.46D-06 MaxDP=3.28D-05 DE=-4.18D-08 OVMax= 1.29D-04

 Cycle  18  Pass 1  IDiag  1:
 E= -198.756809725225     Delta-E=       -0.000000012052 Rises=F Damp=F
 DIIS: error= 9.14D-06 at cycle  18 NSaved=  18.
 NSaved=18 IEnMin=18 EnMin= -198.756809725225     IErMin=18 ErrMin= 9.14D-06
 ErrMax= 9.14D-06  0.00D+00 EMaxC= 1.00D+00 BMatC= 2.87D-09 BMatP= 9.25D-09
 IDIUse=1 WtCom= 1.00D+00 WtEn= 0.00D+00
 Coeff-Com: -0.220D-04 0.363D-03-0.769D-03 0.241D-03 0.263D-02-0.634D-02
 Coeff-Com:  0.402D-02 0.317D-02 0.284D-02-0.253D-01 0.465D-01-0.541D-01
 Coeff-Com:  0.588D-02 0.170D+00-0.631D+00 0.165D+01-0.350D+01 0.333D+01
 Coeff:     -0.220D-04 0.363D-03-0.769D-03 0.241D-03 0.263D-02-0.634D-02
 Coeff:      0.402D-02 0.317D-02 0.284D-02-0.253D-01 0.465D-01-0.541D-01
 Coeff:      0.588D-02 0.170D+00-0.631D+00 0.165D+01-0.350D+01 0.333D+01
 Gap=     0.434 Goal=   None    Shift=    0.500
 Gap=     0.288 Goal=   None    Shift=    0.500
 RMSDP=1.24D-06 MaxDP=1.71D-05 DE=-1.21D-08 OVMax= 6.55D-05

 Cycle  19  Pass 1  IDiag  1:
 E= -198.756809728702     Delta-E=       -0.000000003477 Rises=F Damp=F
 DIIS: error= 5.31D-06 at cycle  19 NSaved=  19.
 NSaved=19 IEnMin=19 EnMin= -198.756809728702     IErMin=19 ErrMin= 5.31D-06
 ErrMax= 5.31D-06  0.00D+00 EMaxC= 1.00D+00 BMatC= 8.52D-10 BMatP= 2.87D-09
 IDIUse=1 WtCom= 1.00D+00 WtEn= 0.00D+00
 Coeff-Com: -0.128D-04 0.275D-03-0.102D-02 0.105D-02 0.676D-03-0.338D-02
 Coeff-Com:  0.297D-02 0.382D-02-0.113D-01 0.145D-01-0.670D-02-0.126D-01
 Coeff-Com:  0.364D-01-0.691D-01 0.130D+00-0.429D+00 0.121D+01-0.279D+01
 Coeff-Com:  0.292D+01
 Coeff:     -0.128D-04 0.275D-03-0.102D-02 0.105D-02 0.676D-03-0.338D-02
 Coeff:      0.297D-02 0.382D-02-0.113D-01 0.145D-01-0.670D-02-0.126D-01
 Coeff:      0.364D-01-0.691D-01 0.130D+00-0.429D+00 0.121D+01-0.279D+01
 Coeff:      0.292D+01
 Gap=     0.434 Goal=   None    Shift=    0.500
 Gap=     0.288 Goal=   None    Shift=    0.500
 RMSDP=6.47D-07 MaxDP=8.97D-06 DE=-3.48D-09 OVMax= 3.41D-05

 SCF Done:  E(ULC-wHPBE) =  -198.756809729     A.U. after   19 cycles
            NFock= 19  Conv=0.65D-06     -V/T= 2.0293
 <Sx>= 0.0000 <Sy>= 0.0000 <Sz>= 0.5000 <S**2>= 0.8403 S= 0.5442
 <L.S>= 0.000000000000E+00
 KE= 1.930933544348D+02 PE=-7.530115252629D+02 EE= 2.051486186133D+02
 Annihilation of the first spin contaminant:
 S**2 before annihilation     0.8403,   after     0.7546
 Leave Link  502 at Thu Mar  5 13:01:41 2020, MaxMem=  6710886400 cpu:              41.0 elap:               2.6
 (Enter /opt/ohpc/pub/libs/gaussian/g16-A.03/sandybridge/g16/l508.exe)
 QCSCF skips out because SCF is already converged.
 Leave Link  508 at Thu Mar  5 13:01:41 2020, MaxMem=  6710886400 cpu:               0.1 elap:               0.0
 (Enter /opt/ohpc/pub/libs/gaussian/g16-A.03/sandybridge/g16/l601.exe)
 Copying SCF densities to generalized density rwf, IOpCl= 1 IROHF=0.

 **********************************************************************

            Population analysis using the SCF density.

 **********************************************************************

 Orbital symmetries:
 Alpha Orbitals:
       Occupied  (B2) (A1) (A1) (B2) (A1) (A1) (A1) (B2) (A1) (B2)
                 (A1) (B2) (A1) (A1) (B1) (B2) (A2) (B1)
       Virtual   (A2) (B2) (B1) (A1) (A1) (B2) (A1) (A1) (B2) (A1)
                 (B2) (A1) (B2) (B1) (B2) (B1) (A2) (A1) (A1) (B2)
                 (A1) (A2) (B1) (B2) (B2) (A1) (A1) (A1) (B2) (A1)
                 (B2) (A1) (A1) (B2) (A1) (B2) (A1) (A1) (B2)
 Beta  Orbitals:
       Occupied  (B2) (A1) (B2) (A1) (A1) (A1) (A1) (B2) (A1) (B2)
                 (A1) (B2) (A1) (A1) (B2) (B1) (A2)
       Virtual   (B1) (B2) (A2) (A1) (B1) (A1) (B2) (A1) (B2) (A1)
                 (A1) (B2) (A1) (B2) (B2) (B1) (A2) (A1) (B1) (A1)
                 (B2) (A1) (A2) (B1) (B2) (B2) (A1) (A1) (B2) (A1)
                 (B2) (A1) (A1) (A1) (B2) (A1) (B2) (A1) (A1) (B2)
 The electronic state is 2-B1.
 Alpha  occ. eigenvalues --  -10.53223 -10.53221 -10.48062 -10.47297 -10.47296
 Alpha  occ. eigenvalues --   -1.39643  -1.26564  -1.21613  -1.07560  -1.05281
 Alpha  occ. eigenvalues --   -1.00435  -0.90457  -0.88206  -0.87109  -0.85902
 Alpha  occ. eigenvalues --   -0.84739  -0.70792  -0.69829
 Alpha virt. eigenvalues --   -0.26385  -0.25799  -0.19170  -0.18485  -0.11497
 Alpha virt. eigenvalues --   -0.06780  -0.04707  -0.02298  -0.02235   0.08428
 Alpha virt. eigenvalues --    0.08728   0.18976   0.19218   0.27497   0.28455
 Alpha virt. eigenvalues --    0.35265   0.35753   0.36528   0.38440   0.39311
 Alpha virt. eigenvalues --    0.39646   0.43339   0.44817   0.52268   0.59228
 Alpha virt. eigenvalues --    0.61534   0.62542   0.65174   0.65258   0.71159
 Alpha virt. eigenvalues --    0.71424   0.75711   0.79881   0.86575   0.94638
 Alpha virt. eigenvalues --    0.95496   1.01405   1.22916   1.24432
  Beta  occ. eigenvalues --  -10.52540 -10.52535 -10.47697 -10.47696 -10.47033
  Beta  occ. eigenvalues --   -1.38247  -1.24476  -1.21442  -1.06405  -1.04507
  Beta  occ. eigenvalues --   -1.00207  -0.90201  -0.87948  -0.86542  -0.84616
  Beta  occ. eigenvalues --   -0.80891  -0.69350
  Beta virt. eigenvalues --   -0.40504  -0.24085  -0.23110  -0.18262  -0.15513
  Beta virt. eigenvalues --   -0.11046  -0.06496  -0.04523  -0.02356  -0.01605
  Beta virt. eigenvalues --    0.08926   0.09045   0.19377   0.19580   0.28889
  Beta virt. eigenvalues --    0.30122   0.36912   0.37134   0.38372   0.38774
  Beta virt. eigenvalues --    0.39621   0.40833   0.43832   0.46508   0.52887
  Beta virt. eigenvalues --    0.59673   0.62485   0.63022   0.65122   0.65638
  Beta virt. eigenvalues --    0.71685   0.71914   0.76543   0.80753   0.86478
  Beta virt. eigenvalues --    0.95093   0.96055   1.02681   1.23885   1.25319
          Condensed to atoms (all electrons):
               1          2          3          4          5          6
     1  C    5.384192   0.490086  -0.042618  -0.121754   0.175245   0.161670
     2  C    0.490086   4.981488   0.448250  -0.024722  -0.121754  -0.021581
     3  C   -0.042618   0.448250   4.911833   0.448250  -0.042618   0.007636
     4  C   -0.121754  -0.024722   0.448250   4.981488   0.490086  -0.021581
     5  C    0.175245  -0.121754  -0.042618   0.490086   5.384192   0.161670
     6  H    0.161670  -0.021581   0.007636  -0.021581   0.161670   0.345327
     7  H    0.335044   0.005229  -0.000556   0.002971  -0.014150  -0.010146
     8  H   -0.022161   0.359891  -0.010953   0.003581   0.000609   0.000274
     9  H    0.004473  -0.024553   0.361970  -0.024553   0.004473  -0.000019
    10  H    0.000609   0.003581  -0.010953   0.359891  -0.022161   0.000274
    11  H   -0.014150   0.002971  -0.000556   0.005229   0.335044  -0.010146
               7          8          9         10         11
     1  C    0.335044  -0.022161   0.004473   0.000609  -0.014150
     2  C    0.005229   0.359891  -0.024553   0.003581   0.002971
     3  C   -0.000556  -0.010953   0.361970  -0.010953  -0.000556
     4  C    0.002971   0.003581  -0.024553   0.359891   0.005229
     5  C   -0.014150   0.000609   0.004473  -0.022161   0.335044
     6  H   -0.010146   0.000274  -0.000019   0.000274  -0.010146
     7  H    0.333316   0.000288  -0.000045  -0.000013   0.000364
     8  H    0.000288   0.371547  -0.000930  -0.000069  -0.000013
     9  H   -0.000045  -0.000930   0.389329  -0.000930  -0.000045
    10  H   -0.000013  -0.000069  -0.000930   0.371547   0.000288
    11  H    0.000364  -0.000013  -0.000045   0.000288   0.333316
          Atomic-Atomic Spin Densities.
               1          2          3          4          5          6
     1  C    0.566970  -0.040649  -0.022036  -0.009610   0.016912  -0.004724
     2  C   -0.040649  -0.326972   0.027279   0.001024  -0.009610   0.000482
     3  C   -0.022036   0.027279   0.767180   0.027279  -0.022036   0.000185
     4  C   -0.009610   0.001024   0.027279  -0.326972  -0.040649   0.000482
     5  C    0.016912  -0.009610  -0.022036  -0.040649   0.566970  -0.004724
     6  H   -0.004724   0.000482   0.000185   0.000482  -0.004724  -0.017642
     7  H   -0.003643  -0.000614   0.000136  -0.000126   0.000149  -0.000083
     8  H   -0.000397   0.002353  -0.001077  -0.000154   0.000087   0.000030
     9  H   -0.000008   0.000031  -0.001816   0.000031  -0.000008  -0.000002
    10  H    0.000087  -0.000154  -0.001077   0.002353  -0.000397   0.000030
    11  H    0.000149  -0.000126   0.000136  -0.000614  -0.003643  -0.000083
               7          8          9         10         11
     1  C   -0.003643  -0.000397  -0.000008   0.000087   0.000149
     2  C   -0.000614   0.002353   0.000031  -0.000154  -0.000126
     3  C    0.000136  -0.001077  -0.001816  -0.001077   0.000136
     4  C   -0.000126  -0.000154   0.000031   0.002353  -0.000614
     5  C    0.000149   0.000087  -0.000008  -0.000397  -0.003643
     6  H   -0.000083   0.000030  -0.000002   0.000030  -0.000083
     7  H   -0.020848   0.000043   0.000004  -0.000000  -0.000081
     8  H    0.000043   0.010133   0.000004  -0.000000  -0.000000
     9  H    0.000004   0.000004  -0.030459   0.000004   0.000004
    10  H   -0.000000  -0.000000   0.000004   0.010133   0.000043
    11  H   -0.000081  -0.000000   0.000004   0.000043  -0.020848
 Mulliken charges and spin densities:
               1          2
     1  C   -0.350634   0.503051
     2  C   -0.098886  -0.346956
     3  C   -0.069684   0.774153
     4  C   -0.098886  -0.346956
     5  C   -0.350634   0.503051
     6  H    0.386622  -0.026047
     7  H    0.347698  -0.025063
     8  H    0.297937   0.011021
     9  H    0.290832  -0.032213
    10  H    0.297937   0.011021
    11  H    0.347698  -0.025063
 Sum of Mulliken charges =   1.00000   1.00000
 Mulliken charges and spin densities with hydrogens summed into heavy atoms:
               1          2
     1  C    0.383686   0.451941
     2  C    0.199051  -0.335935
     3  C    0.221148   0.741941
     4  C    0.199051  -0.335935
     5  C   -0.002937   0.477988
 Electronic spatial extent (au):  <R**2>=            317.2010
 Charge=              1.0000 electrons
 Dipole moment (field-independent basis, Debye):
    X=             -0.0000    Y=             -0.0000    Z=             -2.0728  Tot=              2.0728
 Quadrupole moment (field-independent basis, Debye-Ang):
   XX=            -30.5931   YY=            -16.7094   ZZ=            -12.4144
   XY=              0.0000   XZ=              0.0000   YZ=              0.0000
 Traceless Quadrupole moment (field-independent basis, Debye-Ang):
   XX=            -10.6875   YY=              3.1963   ZZ=              7.4912
   XY=              0.0000   XZ=              0.0000   YZ=              0.0000
 Octapole moment (field-independent basis, Debye-Ang**2):
  XXX=              0.0000  YYY=              0.0000  ZZZ=             -7.6658  XYY=             -0.0000
  XXY=              0.0000  XXZ=              0.6186  XZZ=              0.0000  YZZ=             -0.0000
  YYZ=             -2.6836  XYZ=             -0.0000
 Hexadecapole moment (field-independent basis, Debye-Ang**3):
 XXXX=            -29.8278 YYYY=           -137.4106 ZZZZ=           -118.5047 XXXY=             -0.0000
 XXXZ=             -0.0000 YYYX=             -0.0000 YYYZ=             -0.0000 ZZZX=              0.0000
 ZZZY=              0.0000 XXYY=            -40.9293 XXZZ=            -37.5865 YYZZ=            -40.4190
 XXYZ=              0.0000 YYXZ=             -0.0000 ZZXY=             -0.0000
 N-N= 1.560127424860D+02 E-N=-7.530115309745D+02  KE= 1.930933544348D+02
 Symmetry A1   KE= 1.115320497953D+02
 Symmetry A2   KE= 2.584319501176D+00
 Symmetry B1   KE= 3.337614319159D+00
 Symmetry B2   KE= 7.563937081917D+01
 Symmetry A1   SP= 3.679641565947D-15
 Symmetry A2   SP= 3.319827052151D-16
 Symmetry B1   SP= 1.000000000000D+00
 Symmetry B2   SP= 1.140128708674D-14
                          Isotropic Fermi Contact Couplings
        Atom                 a.u.       MegaHertz       Gauss      10(-4) cm-1
     1  C(13)              0.08440      94.88556      33.85753      31.65042
     2  C(13)             -0.06196     -69.65308     -24.85395     -23.23377
     3  C(13)              0.11988     134.77343      48.09051      44.95558
     4  C(13)             -0.06196     -69.65308     -24.85395     -23.23377
     5  C(13)              0.08440      94.88556      33.85753      31.65042
     6  H(1)              -0.01008     -45.03940     -16.07118     -15.02353
     7  H(1)              -0.01115     -49.83008     -17.78061     -16.62152
     8  H(1)               0.00463      20.67966       7.37902       6.89799
     9  H(1)              -0.01514     -67.67662     -24.14870     -22.57449
    10  H(1)               0.00463      20.67966       7.37902       6.89799
    11  H(1)              -0.01115     -49.83008     -17.78061     -16.62152
 --------------------------------------------------------
       Center         ----  Spin Dipole Couplings  ----
                      3XX-RR        3YY-RR        3ZZ-RR
 --------------------------------------------------------
     1   Atom        0.529900     -0.258049     -0.271851
     2   Atom       -0.239905      0.117474      0.122431
     3   Atom        0.730896     -0.373823     -0.357073
     4   Atom       -0.239905      0.117474      0.122431
     5   Atom        0.529900     -0.258049     -0.271851
     6   Atom       -0.009523      0.009587     -0.000064
     7   Atom       -0.007100      0.007544     -0.000444
     8   Atom       -0.005956     -0.003798      0.009754
     9   Atom       -0.008779     -0.047377      0.056156
    10   Atom       -0.005956     -0.003798      0.009754
    11   Atom       -0.007100      0.007544     -0.000444
 --------------------------------------------------------
                        XY            XZ            YZ
 --------------------------------------------------------
     1   Atom       -0.000000      0.000000     -0.008791
     2   Atom       -0.000000      0.000000     -0.004675
     3   Atom       -0.000000     -0.000000      0.000000
     4   Atom       -0.000000     -0.000000      0.004675
     5   Atom        0.000000      0.000000      0.008791
     6   Atom       -0.000000      0.000000      0.000000
     7   Atom        0.000000      0.000000     -0.037927
     8   Atom       -0.000000      0.000000     -0.007656
     9   Atom       -0.000000     -0.000000      0.000000
    10   Atom        0.000000     -0.000000      0.007656
    11   Atom       -0.000000     -0.000000      0.037927
 --------------------------------------------------------


 ---------------------------------------------------------------------------------
              Anisotropic Spin Dipole Couplings in Principal Axis System
 ---------------------------------------------------------------------------------

       Atom             a.u.   MegaHertz   Gauss  10(-4) cm-1        Axes

              Baa    -0.2761   -37.053   -13.222   -12.360 -0.0000  0.4373  0.8993
     1 C(13)  Bbb    -0.2538   -34.054   -12.151   -11.359 -0.0000  0.8993 -0.4373
              Bcc     0.5299    71.108    25.373    23.719  1.0000  0.0000  0.0000
 
              Baa    -0.2399   -32.193   -11.487   -10.738  1.0000  0.0000  0.0000
     2 C(13)  Bbb     0.1147    15.386     5.490     5.132 -0.0000  0.8568  0.5156
              Bcc     0.1252    16.807     5.997     5.606  0.0000 -0.5156  0.8568
 
              Baa    -0.3738   -50.163   -17.900   -16.733  0.0000  1.0000  0.0000
     3 C(13)  Bbb    -0.3571   -47.916   -17.098   -15.983  0.0000  0.0000  1.0000
              Bcc     0.7309    98.079    34.997    32.716  1.0000 -0.0000  0.0000
 
              Baa    -0.2399   -32.193   -11.487   -10.738  1.0000  0.0000  0.0000
     4 C(13)  Bbb     0.1147    15.386     5.490     5.132 -0.0000  0.8568 -0.5156
              Bcc     0.1252    16.807     5.997     5.606 -0.0000  0.5156  0.8568
 
              Baa    -0.2761   -37.053   -13.222   -12.360 -0.0000 -0.4373  0.8993
     5 C(13)  Bbb    -0.2538   -34.054   -12.151   -11.359  0.0000  0.8993  0.4373
              Bcc     0.5299    71.108    25.373    23.719  1.0000 -0.0000  0.0000
 
              Baa    -0.0095    -5.081    -1.813    -1.695  1.0000  0.0000 -0.0000
     6 H(1)   Bbb    -0.0001    -0.034    -0.012    -0.011  0.0000 -0.0000  1.0000
              Bcc     0.0096     5.115     1.825     1.706 -0.0000  1.0000  0.0000
 
              Baa    -0.0346   -18.454    -6.585    -6.156 -0.0000  0.6691  0.7432
     7 H(1)   Bbb    -0.0071    -3.788    -1.352    -1.264  1.0000  0.0000  0.0000
              Bcc     0.0417    22.242     7.936     7.419 -0.0000  0.7432 -0.6691
 
              Baa    -0.0072    -3.866    -1.379    -1.290 -0.0000  0.9118  0.4106
     8 H(1)   Bbb    -0.0060    -3.178    -1.134    -1.060  1.0000  0.0000  0.0000
              Bcc     0.0132     7.044     2.513     2.350  0.0000 -0.4106  0.9118
 
              Baa    -0.0474   -25.278    -9.020    -8.432  0.0000  1.0000 -0.0000
     9 H(1)   Bbb    -0.0088    -4.684    -1.671    -1.562  1.0000  0.0000  0.0000
              Bcc     0.0562    29.962    10.691     9.994  0.0000  0.0000  1.0000
 
              Baa    -0.0072    -3.866    -1.379    -1.290 -0.0000  0.9118 -0.4106
    10 H(1)   Bbb    -0.0060    -3.178    -1.134    -1.060  1.0000  0.0000 -0.0000
              Bcc     0.0132     7.044     2.513     2.350  0.0000  0.4106  0.9118
 
              Baa    -0.0346   -18.454    -6.585    -6.156  0.0000 -0.6691  0.7432
    11 H(1)   Bbb    -0.0071    -3.788    -1.352    -1.264  1.0000  0.0000  0.0000
              Bcc     0.0417    22.242     7.936     7.419 -0.0000  0.7432  0.6691
 

 ---------------------------------------------------------------------------------

 No NMR shielding tensors so no spin-rotation constants.
 Leave Link  601 at Thu Mar  5 13:01:41 2020, MaxMem=  6710886400 cpu:               3.0 elap:               0.2
 (Enter /opt/ohpc/pub/libs/gaussian/g16-A.03/sandybridge/g16/l9999.exe)

 Test job not archived.
 1\1\GINC-CNODE212\SP\ULC-wHPBE\6-31G\C5H6(1+,2)\SMGO234\05-Mar-2020\0\
 \#P uLC-wHPBE/6-31G iop(3/130=0114300000, 3/131=0114300000, 3/119=0885
 700000, 3/120=0885700000) scf=(conver=6,fermi,ndamp=35,noincfock,novar
 acc,vshift=500,xqc)\\H6 C5\\1,2\C,0,0.,0.878804,-0.931542\C,0,0.,1.128
 157,0.423457\C,0,0.,0.,1.240879\C,0,0.,-1.128157,0.423457\C,0,0.,-0.87
 8804,-0.931542\H,0,0.,0.,-1.732269\H,0,0.,1.6083,-1.734053\H,0,0.,2.15
 6626,0.76567\H,0,0.,0.,2.320778\H,0,0.,-2.156626,0.76567\H,0,0.,-1.608
 3,-1.734053\\Version=EM64L-G16RevA.03\State=2-B1\HF=-198.7568097\S2=0.
 840317\S2-1=0.\S2A=0.754558\RMSD=6.469e-07\Dipole=0.,0.,-0.8154869\Qua
 drupole=-7.9458844,2.3763409,5.5695435,0.,0.,0.\PG=C02V [C2(H1C1H1),SG
 V(C4H4)]\\@


 IT MATTERS NOT HOW DEEP YOU PLOW,
 BUT HOW LONG YOU STAY IN THE FURROW.
 Job cpu time:       0 days  0 hours  1 minutes 11.6 seconds.
 Elapsed time:       0 days  0 hours  0 minutes  5.4 seconds.
 File lengths (MBytes):  RWF=    272 Int=      0 D2E=      0 Chk=     32 Scr=     32
 Normal termination of Gaussian 16 at Thu Mar  5 13:01:41 2020.
