 Entering Gaussian System, Link 0=g16
 Input=a1b_tune_c3.gjf
 Output=a1b_tune_c3.log
 Initial command:
 /opt/ohpc/pub/libs/gaussian/g16-A.03/sandybridge/g16/l1.exe "/scratch/smgo234/Ocelot/test/a1b/tuning_a1b_acycle2/Gau-85150.inp" -scrdir="/scratch/smgo234/Ocelot/test/a1b/tuning_a1b_acycle2/"
 Entering Link 1 = /opt/ohpc/pub/libs/gaussian/g16-A.03/sandybridge/g16/l1.exe PID=     85151.
  
 Copyright (c) 1988,1990,1992,1993,1995,1998,2003,2009,2016,
            Gaussian, Inc.  All Rights Reserved.
  
 This is part of the Gaussian(R) 16 program.  It is based on
 the Gaussian(R) 09 system (copyright 2009, Gaussian, Inc.),
 the Gaussian(R) 03 system (copyright 2003, Gaussian, Inc.),
 the Gaussian(R) 98 system (copyright 1998, Gaussian, Inc.),
 the Gaussian(R) 94 system (copyright 1995, Gaussian, Inc.),
 the Gaussian 92(TM) system (copyright 1992, Gaussian, Inc.),
 the Gaussian 90(TM) system (copyright 1990, Gaussian, Inc.),
 the Gaussian 88(TM) system (copyright 1988, Gaussian, Inc.),
 the Gaussian 86(TM) system (copyright 1986, Carnegie Mellon
 University), and the Gaussian 82(TM) system (copyright 1983,
 Carnegie Mellon University). Gaussian is a federally registered
 trademark of Gaussian, Inc.
  
 This software contains proprietary and confidential information,
 including trade secrets, belonging to Gaussian, Inc.
  
 This software is provided under written license and may be
 used, copied, transmitted, or stored only in accord with that
 written license.
  
 The following legend is applicable only to US Government
 contracts under FAR:
  
                    RESTRICTED RIGHTS LEGEND
  
 Use, reproduction and disclosure by the US Government is
 subject to restrictions as set forth in subparagraphs (a)
 and (c) of the Commercial Computer Software - Restricted
 Rights clause in FAR 52.227-19.
  
 Gaussian, Inc.
 340 Quinnipiac St., Bldg. 40, Wallingford CT 06492
  
  
 ---------------------------------------------------------------
 Warning -- This program may not be used in any manner that
 competes with the business of Gaussian, Inc. or will provide
 assistance to any competitor of Gaussian, Inc.  The licensee
 of this program is prohibited from giving any competitor of
 Gaussian, Inc. access to this program.  By using this program,
 the user acknowledges that Gaussian, Inc. is engaged in the
 business of creating and licensing software in the field of
 computational chemistry and represents and warrants to the
 licensee that it is not a competitor of Gaussian, Inc. and that
 it will not use this program in any manner prohibited above.
 ---------------------------------------------------------------
  

 Cite this work as:
 Gaussian 16, Revision A.03,
 M. J. Frisch, G. W. Trucks, H. B. Schlegel, G. E. Scuseria, 
 M. A. Robb, J. R. Cheeseman, G. Scalmani, V. Barone, 
 G. A. Petersson, H. Nakatsuji, X. Li, M. Caricato, A. V. Marenich, 
 J. Bloino, B. G. Janesko, R. Gomperts, B. Mennucci, H. P. Hratchian, 
 J. V. Ortiz, A. F. Izmaylov, J. L. Sonnenberg, D. Williams-Young, 
 F. Ding, F. Lipparini, F. Egidi, J. Goings, B. Peng, A. Petrone, 
 T. Henderson, D. Ranasinghe, V. G. Zakrzewski, J. Gao, N. Rega, 
 G. Zheng, W. Liang, M. Hada, M. Ehara, K. Toyota, R. Fukuda, 
 J. Hasegawa, M. Ishida, T. Nakajima, Y. Honda, O. Kitao, H. Nakai, 
 T. Vreven, K. Throssell, J. A. Montgomery, Jr., J. E. Peralta, 
 F. Ogliaro, M. J. Bearpark, J. J. Heyd, E. N. Brothers, K. N. Kudin, 
 V. N. Staroverov, T. A. Keith, R. Kobayashi, J. Normand, 
 K. Raghavachari, A. P. Rendell, J. C. Burant, S. S. Iyengar, 
 J. Tomasi, M. Cossi, J. M. Millam, M. Klene, C. Adamo, R. Cammi, 
 J. W. Ochterski, R. L. Martin, K. Morokuma, O. Farkas, 
 J. B. Foresman, and D. J. Fox, Gaussian, Inc., Wallingford CT, 2016.
 
 ******************************************
 Gaussian 16:  EM64L-G16RevA.03 25-Dec-2016
                 5-Mar-2020 
 ******************************************
 %mem=50GB
 %nproc=16
 Will use up to   16 processors via shared memory.
 ----------------------------------------------------------------------
 #P uLC-wHPBE/6-31G iop(3/130=0101500000, 3/131=0101500000, 3/119=08985
 00000, 3/120=0898500000) scf=(conver=6,fermi,ndamp=35,noincfock,novara
 cc,vshift=500,xqc)
 ----------------------------------------------------------------------
 1/38=1,172=1/1;
 2/12=2,17=6,18=5,40=1/2;
 3/5=1,6=6,11=2,25=1,30=1,74=-71,116=2,119=898500000,120=898500000,130=101500000,131=101500000/1,2,3;
 4//1;
 5/5=100002,6=6,8=3,10=500,13=1,18=-1,22=13,38=1,93=35/2,8;
 6/7=2,8=2,9=2,10=2,28=1/1;
 99/5=1,9=1/99;
 Leave Link    1 at Thu Mar  5 12:58:52 2020, MaxMem=  6710886400 cpu:              16.4 elap:               1.1
 (Enter /opt/ohpc/pub/libs/gaussian/g16-A.03/sandybridge/g16/l101.exe)
 -----
 H6 C5
 -----
 Symbolic Z-matrix:
 Charge =  1 Multiplicity = 2
 C                     0.        0.8788   -0.93154 
 C                     0.        1.12816   0.42346 
 C                     0.        0.        1.24088 
 C                     0.       -1.12816   0.42346 
 C                     0.       -0.8788   -0.93154 
 H                     0.        0.       -1.73227 
 H                     0.        1.6083   -1.73405 
 H                     0.        2.15663   0.76567 
 H                     0.        0.        2.32078 
 H                     0.       -2.15663   0.76567 
 H                     0.       -1.6083   -1.73405 
 
 ITRead=  0  0  0  0  0  0  0  0  0  0  0
 MicOpt= -1 -1 -1 -1 -1 -1 -1 -1 -1 -1 -1
 NAtoms=     11 NQM=       11 NQMF=       0 NMMI=      0 NMMIF=      0
                NMic=       0 NMicF=      0.
                    Isotopes and Nuclear Properties:
 (Nuclear quadrupole moments (NQMom) in fm**2, nuclear magnetic moments (NMagM)
  in nuclear magnetons)

  Atom         1           2           3           4           5           6           7           8           9          10
 IAtWgt=          12          12          12          12          12           1           1           1           1           1
 AtmWgt=  12.0000000  12.0000000  12.0000000  12.0000000  12.0000000   1.0078250   1.0078250   1.0078250   1.0078250   1.0078250
 NucSpn=           0           0           0           0           0           1           1           1           1           1
 AtZEff=  -0.0000000  -0.0000000  -0.0000000  -0.0000000  -0.0000000  -0.0000000  -0.0000000  -0.0000000  -0.0000000  -0.0000000
 NQMom=    0.0000000   0.0000000   0.0000000   0.0000000   0.0000000   0.0000000   0.0000000   0.0000000   0.0000000   0.0000000
 NMagM=    0.0000000   0.0000000   0.0000000   0.0000000   0.0000000   2.7928460   2.7928460   2.7928460   2.7928460   2.7928460
 AtZNuc=   6.0000000   6.0000000   6.0000000   6.0000000   6.0000000   1.0000000   1.0000000   1.0000000   1.0000000   1.0000000

  Atom        11
 IAtWgt=           1
 AtmWgt=   1.0078250
 NucSpn=           1
 AtZEff=  -0.0000000
 NQMom=    0.0000000
 NMagM=    2.7928460
 AtZNuc=   1.0000000
 Leave Link  101 at Thu Mar  5 12:58:53 2020, MaxMem=  6710886400 cpu:               1.3 elap:               0.2
 (Enter /opt/ohpc/pub/libs/gaussian/g16-A.03/sandybridge/g16/l202.exe)
                          Input orientation:                          
 ---------------------------------------------------------------------
 Center     Atomic      Atomic             Coordinates (Angstroms)
 Number     Number       Type             X           Y           Z
 ---------------------------------------------------------------------
      1          6           0        0.000000    0.878804   -0.931542
      2          6           0        0.000000    1.128157    0.423457
      3          6           0        0.000000    0.000000    1.240879
      4          6           0        0.000000   -1.128157    0.423457
      5          6           0        0.000000   -0.878804   -0.931542
      6          1           0        0.000000    0.000000   -1.732269
      7          1           0        0.000000    1.608300   -1.734053
      8          1           0        0.000000    2.156626    0.765670
      9          1           0        0.000000    0.000000    2.320778
     10          1           0        0.000000   -2.156626    0.765670
     11          1           0        0.000000   -1.608300   -1.734053
 ---------------------------------------------------------------------
                    Distance matrix (angstroms):
                    1          2          3          4          5
     1  C    0.000000
     2  C    1.377752   0.000000
     3  C    2.343440   1.393168   0.000000
     4  C    2.421552   2.256314   1.393168   0.000000
     5  C    1.757608   2.421552   2.343440   1.377752   0.000000
     6  H    1.188890   2.433083   2.973148   2.433083   1.188890
     7  H    1.084522   2.210291   3.381841   3.484687   2.613371
     8  H    2.124466   1.083909   2.208361   3.302561   3.477695
     9  H    3.368959   2.207389   1.079899   2.207389   3.368959
    10  H    3.477695   3.302561   2.208361   1.083909   2.124466
    11  H    2.613371   3.484687   3.381841   2.210291   1.084522
                    6          7          8          9         10
     6  H    0.000000
     7  H    1.608301   0.000000
     8  H    3.300111   2.559155   0.000000
     9  H    4.053047   4.362142   2.658834   0.000000
    10  H    3.300111   4.519213   4.313252   2.658834   0.000000
    11  H    1.608301   3.216600   4.519213   4.362142   2.559155
                   11
    11  H    0.000000
 Stoichiometry    C5H6(1+,2)
 Framework group  C2V[C2(HCH),SGV(C4H4)]
 Deg. of freedom    10
 Full point group                 C2V     NOp   4
 Largest Abelian subgroup         C2V     NOp   4
 Largest concise Abelian subgroup C2      NOp   2
                         Standard orientation:                         
 ---------------------------------------------------------------------
 Center     Atomic      Atomic             Coordinates (Angstroms)
 Number     Number       Type             X           Y           Z
 ---------------------------------------------------------------------
      1          6           0        0.000000    0.878804   -0.931542
      2          6           0        0.000000    1.128157    0.423457
      3          6           0        0.000000   -0.000000    1.240879
      4          6           0       -0.000000   -1.128157    0.423457
      5          6           0       -0.000000   -0.878804   -0.931542
      6          1           0       -0.000000    0.000000   -1.732269
      7          1           0        0.000000    1.608300   -1.734053
      8          1           0        0.000000    2.156626    0.765670
      9          1           0        0.000000   -0.000000    2.320778
     10          1           0       -0.000000   -2.156626    0.765670
     11          1           0       -0.000000   -1.608300   -1.734053
 ---------------------------------------------------------------------
 Rotational constants (GHZ):           8.5259551           7.9375455           4.1106177
 Leave Link  202 at Thu Mar  5 12:58:53 2020, MaxMem=  6710886400 cpu:               0.1 elap:               0.0
 (Enter /opt/ohpc/pub/libs/gaussian/g16-A.03/sandybridge/g16/l301.exe)
 Standard basis: 6-31G (6D, 7F)
 Ernie: Thresh=  0.10000D-02 Tol=  0.10000D-05 Strict=F.
 There are    27 symmetry adapted cartesian basis functions of A1  symmetry.
 There are     4 symmetry adapted cartesian basis functions of A2  symmetry.
 There are     6 symmetry adapted cartesian basis functions of B1  symmetry.
 There are    20 symmetry adapted cartesian basis functions of B2  symmetry.
 There are    27 symmetry adapted basis functions of A1  symmetry.
 There are     4 symmetry adapted basis functions of A2  symmetry.
 There are     6 symmetry adapted basis functions of B1  symmetry.
 There are    20 symmetry adapted basis functions of B2  symmetry.
    57 basis functions,   134 primitive gaussians,    57 cartesian basis functions
    18 alpha electrons       17 beta electrons
       nuclear repulsion energy       156.0127424860 Hartrees.
 IExCor=33909 DFT=T Ex+Corr=LC-wHPBE ExCW=0 ScaHFX=  1.000000
 ScaDFX=  1.000000  1.000000  1.000000  1.000000 ScalE2=  1.000000  1.000000
 IRadAn=      5 IRanWt=     -1 IRanGd=            0 ICorTp=0 IEmpDi=  4
 HFx  wShort=  0.000000 wLong=  0.400000 cFull=  0.000000 cShort=  0.000000 cLong= -0.898500
 DFx  wShort=  0.000000 wLong=  0.400000 cFull=  0.000000 cShort=  1.000000 cLong= -0.898500
 NAtoms=   11 NActive=   11 NUniq=    7 SFac= 2.47D+00 NAtFMM=   60 NAOKFM=F Big=F
 Integral buffers will be    131072 words long.
 Raffenetti 2 integral format.
 Two-electron integral symmetry is turned on.
 Leave Link  301 at Thu Mar  5 12:58:53 2020, MaxMem=  6710886400 cpu:               0.8 elap:               0.1
 (Enter /opt/ohpc/pub/libs/gaussian/g16-A.03/sandybridge/g16/l302.exe)
 NPDir=0 NMtPBC=     1 NCelOv=     1 NCel=       1 NClECP=     1 NCelD=      1
         NCelK=      1 NCelE2=     1 NClLst=     1 CellRange=     0.0.
 One-electron integrals computed using PRISM.
 One-electron integral symmetry used in STVInt
 NBasis=    57 RedAO= T EigKep=  1.84D-03  NBF=    27     4     6    20
 NBsUse=    57 1.00D-06 EigRej= -1.00D+00 NBFU=    27     4     6    20
 Precomputing XC quadrature grid using
 IXCGrd= 4 IRadAn=           5 IRanWt=          -1 IRanGd=           0 AccXCQ= 0.00D+00.
 Generated NRdTot=       0 NPtTot=           0 NUsed=           0 NTot=          32
 NSgBfM=    57    57    57    57    57 MxSgAt=    11 MxSgA2=    11.
 Leave Link  302 at Thu Mar  5 12:58:53 2020, MaxMem=  6710886400 cpu:               2.0 elap:               0.1
 (Enter /opt/ohpc/pub/libs/gaussian/g16-A.03/sandybridge/g16/l303.exe)
 DipDrv:  MaxL=1.
 Leave Link  303 at Thu Mar  5 12:58:53 2020, MaxMem=  6710886400 cpu:               0.6 elap:               0.1
 (Enter /opt/ohpc/pub/libs/gaussian/g16-A.03/sandybridge/g16/l401.exe)
 ExpMin= 1.61D-01 ExpMax= 3.05D+03 ExpMxC= 4.57D+02 IAcc=3 IRadAn=         5 AccDes= 0.00D+00
 Harris functional with IExCor=33909 and IRadAn=       5 diagonalized for initial guess.
 HarFok:  IExCor=33909 AccDes= 0.00D+00 IRadAn=         5 IDoV= 1 UseB2=F ITyADJ=14
 ICtDFT=  3500011 ScaDFX=  1.000000  1.000000  1.000000  1.000000
 FoFCou: FMM=F IPFlag=           0 FMFlag=      100000 FMFlg1=           0
         NFxFlg=           0 DoJE=T BraDBF=F KetDBF=T FulRan=T
         wScrn=  0.000000 ICntrl=       500 IOpCl=  0 I1Cent=   200000004 NGrid=           0
         NMat0=    1 NMatS0=      1 NMatT0=    0 NMatD0=    1 NMtDS0=    0 NMtDT0=    0
 Petite list used in FoFCou.
 Harris En= -180.528047955732    
 JPrj=0 DoOrth=F DoCkMO=F.
 Initial guess orbital symmetries:
 Alpha Orbitals:
       Occupied  (A1) (B2) (A1) (B2) (A1) (A1) (A1) (B2) (A1) (B2)
                 (A1) (B2) (A1) (B2) (A1) (B1) (A2) (B1)
       Virtual   (A2) (B2) (B1) (A1) (A1) (B2) (A1) (B2) (A1) (A1)
                 (B2) (B2) (A1) (B1) (B2) (A2) (B1) (A1) (B2) (A1)
                 (A1) (A2) (B1) (B2) (B2) (A1) (B2) (A1) (A1) (B2)
                 (A1) (A1) (A1) (B2) (A1) (B2) (A1) (A1) (B2)
 Beta  Orbitals:
       Occupied  (A1) (B2) (A1) (B2) (A1) (A1) (A1) (B2) (A1) (B2)
                 (A1) (B2) (A1) (B2) (A1) (B1) (A2)
       Virtual   (B1) (A2) (B2) (B1) (A1) (A1) (B2) (A1) (B2) (A1)
                 (A1) (B2) (B2) (A1) (B1) (B2) (A2) (B1) (A1) (B2)
                 (A1) (A1) (A2) (B1) (B2) (B2) (A1) (B2) (A1) (A1)
                 (B2) (A1) (A1) (A1) (B2) (A1) (B2) (A1) (A1) (B2)
 The electronic state of the initial guess is 2-B1.
 Initial guess <Sx>= 0.0000 <Sy>= 0.0000 <Sz>= 0.5000 <S**2>= 0.7500 S= 0.5000
 Leave Link  401 at Thu Mar  5 12:58:53 2020, MaxMem=  6710886400 cpu:               3.3 elap:               0.2
 (Enter /opt/ohpc/pub/libs/gaussian/g16-A.03/sandybridge/g16/l502.exe)
 Keep R1 and R2 ints in memory in symmetry-blocked form, NReq=16815681.
 FoFCou: FMM=F IPFlag=           0 FMFlag=           0 FMFlg1=           0
         NFxFlg=           0 DoJE=F BraDBF=F KetDBF=F FulRan=T
         wScrn=  0.000000 ICntrl=       600 IOpCl=  0 I1Cent=           0 NGrid=           0
         NMat0=    1 NMatS0=   1653 NMatT0=    0 NMatD0=    1 NMtDS0=    0 NMtDT0=    0
 Petite list used in FoFCou.
 UHF open shell SCF:
 Using DIIS extrapolation, IDIIS=    10.
 NGot=  6710886400 LenX=  6710059561 LenY=  6710055871
 Requested convergence on RMS density matrix=1.00D-06 within  32 cycles.
 Requested convergence on MAX density matrix=1.00D-04.
 Requested convergence on             energy=1.00D-04.
 Virtual orbitals will be shifted by   0.500 hartree.
 No special actions if energy rises.
 Dynamic level shift is on during FON iterations.

 Cycle   1  Pass 1  IDiag  1:
 E= -174.172662269196    
 DIIS: error= 4.07D-02 at cycle   1 NSaved=   1.
 NSaved= 1 IEnMin= 1 EnMin= -174.172662269196     IErMin= 1 ErrMin= 4.07D-02
 ErrMax= 4.07D-02  0.00D+00 EMaxC= 1.00D+00 BMatC= 2.10D-01 BMatP= 2.10D-01
 IDIUse=1 WtCom= 1.00D+00 WtEn= 0.00D+00
 Coeff-Com:  0.100D+01
 Coeff:      0.100D+01
 Gap=    -0.049 Goal=   None    Shift=    0.500
 T= 1680. Gap= 0.412 NK=0 IS=   19 IE=   57 IFin=   18
          NO(<0.9)=   0  NV(>0.1)=   0     18.00e < EF      0.00e >EF  Err=0.0D+00
 Gap=    -0.092 Goal=   None    Shift=    0.500
 T= 1680. Gap= 0.409 NK=0 IS=   18 IE=   57 IFin=   17
          NO(<0.9)=   0  NV(>0.1)=   0     17.00e < EF      0.00e >EF  Err=0.0D+00
 GapD=   -0.092 DampG=0.250 DampE=0.500 DampFc=0.1250 IDamp=-1.
 Damping current iteration by 1.25D-01
 RMSDP=9.06D-02 MaxDP=9.97D-01              OVMax= 1.38D-01

 Cycle   2  Pass 1  IDiag  1:
 E= -174.223767708429     Delta-E=       -0.051105439233 Rises=F Damp=T
 DIIS: error= 2.49D-02 at cycle   2 NSaved=   2.
 NSaved= 2 IEnMin= 2 EnMin= -174.223767708429     IErMin= 2 ErrMin= 2.49D-02
 ErrMax= 2.49D-02  0.00D+00 EMaxC= 1.00D+00 BMatC= 9.59D-02 BMatP= 2.10D-01
 IDIUse=1 WtCom= 1.00D+00 WtEn= 0.00D+00
 Coeff-Com: -0.170D+01 0.270D+01
 Coeff:     -0.170D+01 0.270D+01
 Gap=    -0.146 Goal=   None    Shift=    0.500
 T= 1596. Gap= 0.353 NK=0 IS=   19 IE=   57 IFin=   18
          NO(<0.9)=   0  NV(>0.1)=   0     18.00e < EF      0.00e >EF  Err=0.0D+00
 Gap=     0.007 Goal=   None    Shift=    0.500
 T= 1596. Gap= 0.482 NK=0 IS=   18 IE=   57 IFin=   17
          NO(<0.9)=   0  NV(>0.1)=   0     17.00e < EF      0.00e >EF  Err=0.0D+00
 GapD=   -0.146 DampG=0.250 DampE=0.500 DampFc=0.1250 IDamp=-1.
 Damping current iteration by 1.25D-01
 RMSDP=4.30D-02 MaxDP=6.95D-01 DE=-5.11D-02 OVMax= 1.25D-01

 Cycle   3  Pass 1  IDiag  1:
 E= -174.231811609867     Delta-E=       -0.008043901438 Rises=F Damp=T
 DIIS: error= 1.15D-02 at cycle   3 NSaved=   3.
 NSaved= 3 IEnMin= 3 EnMin= -174.231811609867     IErMin= 3 ErrMin= 1.15D-02
 ErrMax= 1.15D-02  0.00D+00 EMaxC= 1.00D+00 BMatC= 3.19D-02 BMatP= 9.59D-02
 IDIUse=1 WtCom= 1.00D+00 WtEn= 0.00D+00
 Coeff-Com: -0.787D+00 0.757D+00 0.103D+01
 Coeff:     -0.787D+00 0.757D+00 0.103D+01
 Gap=     0.004 Goal=   None    Shift=    0.500
 T= 1404. Gap= 0.307 NK=1 IS=   19 IE=   20 IFin=   18
          NO(<0.9)=   0  NV(>0.1)=   0     18.00e < EF      0.00e >EF  Err=0.0D+00
 Gap=     0.015 Goal=   None    Shift=    0.500
 T= 1404. Gap= 0.512 NK=1 IS=   18 IE=   22 IFin=   17
          NO(<0.9)=   0  NV(>0.1)=   0     17.00e < EF      0.00e >EF  Err=0.0D+00
 GapD=    0.004 DampG=0.250 DampE=0.500 DampFc=0.1250 IDamp=-1.
 Damping current iteration by 1.25D-01
 RMSDP=3.30D-02 MaxDP=5.00D-01 DE=-8.04D-03 OVMax= 8.40D-02

 Cycle   4  Pass 1  IDiag  1:
 E= -174.205114183460     Delta-E=        0.026697426407 Rises=F Damp=T
 DIIS: error= 8.42D-03 at cycle   4 NSaved=   4.
 NSaved= 4 IEnMin= 3 EnMin= -174.231811609867     IErMin= 4 ErrMin= 8.42D-03
 ErrMax= 8.42D-03  0.00D+00 EMaxC= 1.00D+00 BMatC= 1.47D-02 BMatP= 3.19D-02
 IDIUse=1 WtCom= 1.00D+00 WtEn= 0.00D+00
 Coeff-Com: -0.345D+00 0.548D+00-0.987D+00 0.178D+01
 Coeff:     -0.345D+00 0.548D+00-0.987D+00 0.178D+01
 Gap=     0.010 Goal=   None    Shift=    0.000
 T= 1078. Gap= 0.013 NK=1 IS=   15 IE=   26 IFin=   22
          NO(<0.9)=   1  NV(>0.1)=   1     17.81e < EF      0.19e >EF  Err=3.6D-15
 Gap=     0.005 Goal=   None    Shift=    0.000
 T= 1078. Gap= 0.001 NK=1 IS=   16 IE=   21 IFin=   18
          NO(<0.9)=   1  NV(>0.1)=   1     16.49e < EF      0.51e >EF  Err=3.6D-15
 GapD=    0.005 DampG=0.250 DampE=1.000 DampFc=0.2500 IDamp=-1.
 Damping current iteration by 2.50D-01
 RMSDP=1.82D-02 MaxDP=3.07D-01 DE= 2.67D-02 OVMax= 2.27D-01

 Cycle   5  Pass 1  IDiag  1:
 E= -174.226173418973     Delta-E=       -0.021059235513 Rises=F Damp=T
 DIIS: error= 9.20D-03 at cycle   5 NSaved=   5.
 NSaved= 5 IEnMin= 3 EnMin= -174.231811609867     IErMin= 4 ErrMin= 8.42D-03
 ErrMax= 9.20D-03  0.00D+00 EMaxC= 1.00D+00 BMatC= 1.07D-02 BMatP= 1.47D-02
 IDIUse=1 WtCom= 1.00D+00 WtEn= 0.00D+00
 Coeff-Com: -0.360D+00 0.115D+01-0.234D+01 0.161D+01 0.939D+00
 Coeff:     -0.360D+00 0.115D+01-0.234D+01 0.161D+01 0.939D+00
 Gap=     0.001 Goal=   None    Shift=    0.000
 T=  819. Gap= 0.001 NK=0 IS=   17 IE=   57 IFin=   20
          NO(<0.9)=   1  NV(>0.1)=   1     17.54e < EF      0.46e >EF  Err=0.0D+00
 Gap=     0.012 Goal=   None    Shift=    0.000
 T=  819. Gap= 0.002 NK=0 IS=    1 IE=   57 IFin=   18
          NO(<0.9)=   1  NV(>0.1)=   1     16.58e < EF      0.42e >EF  Err=3.6D-15
 GapD=    0.001 DampG=0.250 DampE=1.000 DampFc=0.2500 IDamp=-1.
 Damping current iteration by 2.50D-01
 RMSDP=1.97D-02 MaxDP=3.27D-01 DE=-2.11D-02 OVMax= 7.83D-02

 Cycle   6  Pass 1  IDiag  1:
 E= -174.245722146242     Delta-E=       -0.019548727269 Rises=F Damp=T
 DIIS: error= 6.21D-03 at cycle   6 NSaved=   6.
 NSaved= 6 IEnMin= 6 EnMin= -174.245722146242     IErMin= 6 ErrMin= 6.21D-03
 ErrMax= 6.21D-03  0.00D+00 EMaxC= 1.00D+00 BMatC= 6.12D-03 BMatP= 1.07D-02
 IDIUse=1 WtCom= 1.00D+00 WtEn= 0.00D+00
 Coeff-Com: -0.590D-01 0.494D+00-0.169D+01 0.121D+01-0.445D+00 0.149D+01
 Coeff:     -0.590D-01 0.494D+00-0.169D+01 0.121D+01-0.445D+00 0.149D+01
 Gap=     0.026 Goal=   None    Shift=    0.500
 T=  699. Gap= 0.525 NK=0 IS=   19 IE=   57 IFin=   18
          NO(<0.9)=   0  NV(>0.1)=   0     18.00e < EF      0.00e >EF  Err=0.0D+00
 Gap=     0.024 Goal=   None    Shift=    0.500
 T=  699. Gap= 0.524 NK=0 IS=   18 IE=   57 IFin=   17
          NO(<0.9)=   0  NV(>0.1)=   0     17.00e < EF      0.00e >EF  Err=0.0D+00
 GapD=    0.024 DampG=0.250 DampE=1.000 DampFc=0.2500 IDamp=-1.
 Damping current iteration by 2.50D-01
 RMSDP=1.38D-02 MaxDP=2.01D-01 DE=-1.95D-02 OVMax= 1.26D-02

 Cycle   7  Pass 1  IDiag  1:
 E= -174.256887018286     Delta-E=       -0.011164872044 Rises=F Damp=T
 DIIS: error= 8.99D-03 at cycle   7 NSaved=   7.
 NSaved= 7 IEnMin= 7 EnMin= -174.256887018286     IErMin= 6 ErrMin= 6.21D-03
 ErrMax= 8.99D-03  0.00D+00 EMaxC= 1.00D+00 BMatC= 7.41D-03 BMatP= 6.12D-03
 IDIUse=1 WtCom= 1.00D+00 WtEn= 0.00D+00
 Coeff-Com: -0.182D+00 0.454D+00-0.136D+01 0.113D+01-0.257D+00 0.498D+00
 Coeff-Com:  0.713D+00
 Coeff:     -0.182D+00 0.454D+00-0.136D+01 0.113D+01-0.257D+00 0.498D+00
 Coeff:      0.713D+00
 Gap=     0.025 Goal=   None    Shift=    0.500
 T=  699. Gap= 0.525 NK=1 IS=   19 IE=   27 IFin=   18
          NO(<0.9)=   0  NV(>0.1)=   0     18.00e < EF      0.00e >EF  Err=0.0D+00
 Gap=     0.007 Goal=   None    Shift=    0.500
 T=  699. Gap= 0.503 NK=1 IS=   18 IE=   21 IFin=   17
          NO(<0.9)=   0  NV(>0.1)=   0     17.00e < EF      0.00e >EF  Err=0.0D+00
 GapD=    0.007 DampG=0.250 DampE=1.000 DampFc=0.2500 IDamp=-1.
 Damping current iteration by 2.50D-01
 RMSDP=1.23D-02 MaxDP=1.49D-01 DE=-1.12D-02 OVMax= 9.53D-03

 Cycle   8  Pass 1  IDiag  1:
 E= -174.273103069786     Delta-E=       -0.016216051500 Rises=F Damp=T
 DIIS: error= 4.74D-03 at cycle   8 NSaved=   8.
 NSaved= 8 IEnMin= 8 EnMin= -174.273103069786     IErMin= 8 ErrMin= 4.74D-03
 ErrMax= 4.74D-03  0.00D+00 EMaxC= 1.00D+00 BMatC= 4.45D-03 BMatP= 6.12D-03
 IDIUse=1 WtCom= 1.00D+00 WtEn= 0.00D+00
 Coeff-Com: -0.132D+00 0.308D+00-0.109D+01 0.867D+00-0.520D-01 0.344D+00
 Coeff-Com:  0.407D+00 0.344D+00
 Coeff:     -0.132D+00 0.308D+00-0.109D+01 0.867D+00-0.520D-01 0.344D+00
 Coeff:      0.407D+00 0.344D+00
 Gap=     0.020 Goal=   None    Shift=    0.500
 T=  592. Gap= 0.520 NK=1 IS=   19 IE=   27 IFin=   18
          NO(<0.9)=   0  NV(>0.1)=   0     18.00e < EF      0.00e >EF  Err=0.0D+00
 Gap=     0.012 Goal=   None    Shift=    0.500
 T=  592. Gap= 0.512 NK=1 IS=   18 IE=   22 IFin=   17
          NO(<0.9)=   0  NV(>0.1)=   0     17.00e < EF      0.00e >EF  Err=0.0D+00
 GapD=    0.012 DampG=0.250 DampE=1.000 DampFc=0.2500 IDamp=-1.
 Damping current iteration by 2.50D-01
 RMSDP=9.09D-03 MaxDP=1.11D-01 DE=-1.62D-02 OVMax= 7.73D-03

 Cycle   9  Pass 1  IDiag  1:
 E= -174.277886335345     Delta-E=       -0.004783265559 Rises=F Damp=T
 DIIS: error= 5.08D-03 at cycle   9 NSaved=   9.
 NSaved= 9 IEnMin= 9 EnMin= -174.277886335345     IErMin= 8 ErrMin= 4.74D-03
 ErrMax= 5.08D-03  0.00D+00 EMaxC= 1.00D+00 BMatC= 3.95D-03 BMatP= 4.45D-03
 IDIUse=1 WtCom= 1.00D+00 WtEn= 0.00D+00
 Coeff-Com: -0.131D+00 0.383D+00-0.127D+01 0.103D+01-0.218D+00 0.497D+00
 Coeff-Com:  0.299D+00-0.720D-01 0.482D+00
 Coeff:     -0.131D+00 0.383D+00-0.127D+01 0.103D+01-0.218D+00 0.497D+00
 Coeff:      0.299D+00-0.720D-01 0.482D+00
 Gap=     0.014 Goal=   None    Shift=    0.500
 T=  557. Gap= 0.514 NK=1 IS=   19 IE=   27 IFin=   18
          NO(<0.9)=   0  NV(>0.1)=   0     18.00e < EF      0.00e >EF  Err=0.0D+00
 Gap=     0.005 Goal=   None    Shift=    0.500
 T=  557. Gap= 0.502 NK=1 IS=   18 IE=   21 IFin=   17
          NO(<0.9)=   0  NV(>0.1)=   0     17.00e < EF      0.00e >EF  Err=0.0D+00
 GapD=    0.005 DampG=0.250 DampE=1.000 DampFc=0.2500 IDamp=-1.
 Damping current iteration by 2.50D-01
 RMSDP=8.77D-03 MaxDP=9.83D-02 DE=-4.78D-03 OVMax= 4.31D-03

 Cycle  10  Pass 1  IDiag  1:
 E= -174.283278933437     Delta-E=       -0.005392598092 Rises=F Damp=T
 DIIS: error= 4.38D-03 at cycle  10 NSaved=  10.
 NSaved=10 IEnMin=10 EnMin= -174.283278933437     IErMin=10 ErrMin= 4.38D-03
 ErrMax= 4.38D-03  0.00D+00 EMaxC= 1.00D+00 BMatC= 3.71D-03 BMatP= 3.95D-03
 IDIUse=1 WtCom= 1.00D+00 WtEn= 0.00D+00
 Coeff-Com: -0.817D-01 0.134D+00-0.806D+00 0.747D+00-0.221D+00 0.215D+00
 Coeff-Com:  0.219D+01-0.212D+01-0.151D+01 0.245D+01
 Coeff:     -0.817D-01 0.134D+00-0.806D+00 0.747D+00-0.221D+00 0.215D+00
 Coeff:      0.219D+01-0.212D+01-0.151D+01 0.245D+01
 Gap=     0.010 Goal=   None    Shift=    0.500
 T=  388. Gap= 0.510 NK=1 IS=   19 IE=   26 IFin=   18
          NO(<0.9)=   0  NV(>0.1)=   0     18.00e < EF      0.00e >EF  Err=0.0D+00
 Gap=     0.007 Goal=   None    Shift=    0.500
 T=  388. Gap= 0.507 NK=1 IS=   18 IE=   21 IFin=   17
          NO(<0.9)=   0  NV(>0.1)=   0     17.00e < EF      0.00e >EF  Err=0.0D+00
 GapD=    0.007 DampG=0.250 DampE=1.000 DampFc=0.2500 IDamp=-1.
 Damping current iteration by 2.50D-01
 RMSDP=7.08D-03 MaxDP=9.33D-02 DE=-5.39D-03 OVMax= 8.79D-03

 Cycle  11  Pass 1  IDiag  1:
 E= -174.285792474719     Delta-E=       -0.002513541281 Rises=F Damp=T
 DIIS: error= 6.67D-03 at cycle  11 NSaved=  11.
 NSaved=11 IEnMin=11 EnMin= -174.285792474719     IErMin=10 ErrMin= 4.38D-03
 ErrMax= 6.67D-03  0.00D+00 EMaxC= 1.00D+00 BMatC= 5.96D-03 BMatP= 3.71D-03
 IDIUse=1 WtCom= 1.00D+00 WtEn= 0.00D+00
 Coeff-Com: -0.713D-01 0.352D-01-0.611D+00 0.650D+00-0.291D+00 0.768D+00
 Coeff-Com:  0.102D+01-0.153D+01-0.115D+01 0.113D+01 0.105D+01
 Coeff:     -0.713D-01 0.352D-01-0.611D+00 0.650D+00-0.291D+00 0.768D+00
 Coeff:      0.102D+01-0.153D+01-0.115D+01 0.113D+01 0.105D+01
 Gap=     0.007 Goal=   None    Shift=    0.500
 T=  388. Gap= 0.507 NK=1 IS=   19 IE=   26 IFin=   18
          NO(<0.9)=   0  NV(>0.1)=   0     18.00e < EF      0.00e >EF  Err=0.0D+00
 Gap=     0.001 Goal=   None    Shift=    0.500
 T=  388. Gap= 0.501 NK=1 IS=   18 IE=   20 IFin=   17
          NO(<0.9)=   0  NV(>0.1)=   0     17.00e < EF      0.00e >EF  Err=0.0D+00
 GapD=    0.001 DampG=0.250 DampE=1.000 DampFc=0.2500 IDamp=-1.
 Damping current iteration by 2.50D-01
 RMSDP=7.21D-03 MaxDP=9.62D-02 DE=-2.51D-03 OVMax= 3.39D-03

 Cycle  12  Pass 1  IDiag  1:
 E= -174.285983915775     Delta-E=       -0.000191441056 Rises=F Damp=T
 DIIS: error= 7.37D-03 at cycle  12 NSaved=  12.
 NSaved=12 IEnMin=12 EnMin= -174.285983915775     IErMin=10 ErrMin= 4.38D-03
 ErrMax= 7.37D-03  0.00D+00 EMaxC= 1.00D+00 BMatC= 7.54D-03 BMatP= 3.71D-03
 IDIUse=1 WtCom= 1.00D+00 WtEn= 0.00D+00
 Coeff-Com: -0.701D-01 0.310D-01-0.605D+00 0.646D+00-0.294D+00 0.767D+00
 Coeff-Com:  0.103D+01-0.153D+01-0.108D+01 0.103D+01 0.967D+00 0.109D+00
 Coeff:     -0.701D-01 0.310D-01-0.605D+00 0.646D+00-0.294D+00 0.767D+00
 Coeff:      0.103D+01-0.153D+01-0.108D+01 0.103D+01 0.967D+00 0.109D+00
 Gap=     0.007 Goal=   None    Shift=    0.500
 T=  388. Gap= 0.507 NK=1 IS=   19 IE=   26 IFin=   18
          NO(<0.9)=   0  NV(>0.1)=   0     18.00e < EF      0.00e >EF  Err=0.0D+00
 Gap=     0.001 Goal=   None    Shift=    0.500
 T=  388. Gap= 0.501 NK=1 IS=   18 IE=   20 IFin=   17
          NO(<0.9)=   0  NV(>0.1)=   0     17.00e < EF      0.00e >EF  Err=0.0D+00
 RMSDP=5.44D-03 MaxDP=7.24D-02 DE=-1.91D-04 OVMax= 2.95D-03

 Cycle  13  Pass 1  IDiag  1:
 E= -174.213557653256     Delta-E=        0.072426262519 Rises=F Damp=F
 DIIS: error= 2.32D-02 at cycle  13 NSaved=  13.
 NSaved=13 IEnMin=12 EnMin= -174.285983915775     IErMin=10 ErrMin= 4.38D-03
 ErrMax= 2.32D-02  0.00D+00 EMaxC= 1.00D+00 BMatC= 4.13D-02 BMatP= 3.71D-03
 IDIUse=1 WtCom= 1.00D+00 WtEn= 0.00D+00
 Coeff-Com: -0.746D-01 0.430D-01-0.626D+00 0.661D+00-0.305D+00 0.902D+00
 Coeff-Com:  0.683D+00-0.128D+01-0.121D+01 0.104D+01 0.170D+01-0.615D+00
 Coeff-Com:  0.807D-01
 Coeff:     -0.746D-01 0.430D-01-0.626D+00 0.661D+00-0.305D+00 0.902D+00
 Coeff:      0.683D+00-0.128D+01-0.121D+01 0.104D+01 0.170D+01-0.615D+00
 Coeff:      0.807D-01
 Gap=     0.007 Goal=   None    Shift=    0.000
 T=  388. Gap= 0.008 NK=1 IS=   15 IE=   26 IFin=   21
          NO(<0.9)=   0  NV(>0.1)=   0     17.95e < EF      0.05e >EF  Err=0.0D+00
 Gap=     0.002 Goal=   None    Shift=    0.000
 T=  388. Gap= 0.002 NK=1 IS=   16 IE=   20 IFin=   18
          NO(<0.9)=   2  NV(>0.1)=   1     16.58e < EF      0.42e >EF  Err=0.0D+00
 RMSDP=4.43D-03 MaxDP=4.71D-02 DE= 7.24D-02 OVMax= 2.60D-02

 Cycle  14  Pass 1  IDiag  1:
 E= -174.273476288318     Delta-E=       -0.059918635062 Rises=F Damp=F
 DIIS: error= 1.54D-02 at cycle  14 NSaved=  14.
 NSaved=14 IEnMin=12 EnMin= -174.285983915775     IErMin=10 ErrMin= 4.38D-03
 ErrMax= 1.54D-02  0.00D+00 EMaxC= 1.00D+00 BMatC= 1.53D-02 BMatP= 3.71D-03
 IDIUse=1 WtCom= 1.00D+00 WtEn= 0.00D+00
 Coeff-Com: -0.110D+00 0.955D-01-0.490D+00 0.465D+00-0.193D+00 0.612D+00
 Coeff-Com:  0.645D+00-0.800D+00-0.834D+00 0.440D+00 0.146D+01-0.535D+00
 Coeff-Com: -0.177D-01 0.260D+00
 Coeff:     -0.110D+00 0.955D-01-0.490D+00 0.465D+00-0.193D+00 0.612D+00
 Coeff:      0.645D+00-0.800D+00-0.834D+00 0.440D+00 0.146D+01-0.535D+00
 Coeff:     -0.177D-01 0.260D+00
 Gap=     0.009 Goal=   None    Shift=    0.000
 Gap=     0.016 Goal=   None    Shift=    0.000
 RMSDP=4.50D-03 MaxDP=4.85D-02 DE=-5.99D-02 OVMax= 6.36D-02

 Cycle  15  Pass 1  IDiag  1:
 E= -174.212299412743     Delta-E=        0.061176875575 Rises=F Damp=F
 DIIS: error= 2.39D-02 at cycle  15 NSaved=  15.
 NSaved=15 IEnMin=12 EnMin= -174.285983915775     IErMin=10 ErrMin= 4.38D-03
 ErrMax= 2.39D-02  0.00D+00 EMaxC= 1.00D+00 BMatC= 4.28D-02 BMatP= 3.71D-03
 IDIUse=1 WtCom= 1.00D+00 WtEn= 0.00D+00
 Coeff-Com: -0.121D+00 0.807D-01-0.365D+00 0.358D+00-0.152D+00 0.543D+00
 Coeff-Com:  0.564D+00-0.654D+00-0.103D+01 0.676D+00 0.184D+01-0.109D+01
 Coeff-Com: -0.158D+00 0.359D+00 0.149D+00
 Coeff:     -0.121D+00 0.807D-01-0.365D+00 0.358D+00-0.152D+00 0.543D+00
 Coeff:      0.564D+00-0.654D+00-0.103D+01 0.676D+00 0.184D+01-0.109D+01
 Coeff:     -0.158D+00 0.359D+00 0.149D+00
 Gap=     0.007 Goal=   None    Shift=    0.000
 Gap=     0.017 Goal=   None    Shift=    0.000
 RMSDP=3.54D-03 MaxDP=5.31D-02 DE= 6.12D-02 OVMax= 2.33D-01

 Cycle  16  Pass 1  IDiag  1:
 E= -174.204642074001     Delta-E=        0.007657338742 Rises=F Damp=F
 DIIS: error= 2.93D-02 at cycle  16 NSaved=  16.
 NSaved=16 IEnMin=12 EnMin= -174.285983915775     IErMin=10 ErrMin= 4.38D-03
 ErrMax= 2.93D-02  0.00D+00 EMaxC= 1.00D+00 BMatC= 4.88D-02 BMatP= 3.71D-03
 IDIUse=1 WtCom= 1.00D+00 WtEn= 0.00D+00
 Coeff-Com: -0.103D+00-0.336D-01-0.488D-01 0.134D+00-0.103D+00 0.282D+00
 Coeff-Com:  0.632D+00-0.564D+00-0.362D+00-0.282D+00 0.122D+01-0.154D+00
 Coeff-Com: -0.717D+00 0.460D+00 0.489D+00 0.147D+00
 Coeff:     -0.103D+00-0.336D-01-0.488D-01 0.134D+00-0.103D+00 0.282D+00
 Coeff:      0.632D+00-0.564D+00-0.362D+00-0.282D+00 0.122D+01-0.154D+00
 Coeff:     -0.717D+00 0.460D+00 0.489D+00 0.147D+00
 Gap=     0.002 Goal=   None    Shift=    0.000
 Gap=     0.031 Goal=   None    Shift=    0.000
 RMSDP=1.77D-02 MaxDP=2.93D-01 DE= 7.66D-03 OVMax= 6.05D-03

 Cycle  17  Pass 1  IDiag  1:
 E= -174.068266044394     Delta-E=        0.136376029606 Rises=F Damp=F
 DIIS: error= 8.47D-03 at cycle  17 NSaved=  17.
 NSaved=17 IEnMin=12 EnMin= -174.285983915775     IErMin=10 ErrMin= 4.38D-03
 ErrMax= 8.47D-03  0.00D+00 EMaxC= 1.00D+00 BMatC= 5.07D-03 BMatP= 3.71D-03
 IDIUse=1 WtCom= 1.00D+00 WtEn= 0.00D+00
 Coeff-Com: -0.103D+00-0.327D-01-0.575D-01 0.146D+00-0.101D+00 0.257D+00
 Coeff-Com:  0.643D+00-0.557D+00-0.364D+00-0.268D+00 0.120D+01-0.160D+00
 Coeff-Com: -0.665D+00 0.451D+00 0.452D+00 0.136D+00 0.187D-01
 Coeff:     -0.103D+00-0.327D-01-0.575D-01 0.146D+00-0.101D+00 0.257D+00
 Coeff:      0.643D+00-0.557D+00-0.364D+00-0.268D+00 0.120D+01-0.160D+00
 Coeff:     -0.665D+00 0.451D+00 0.452D+00 0.136D+00 0.187D-01
 Gap=     0.003 Goal=   None    Shift=    0.000
 Gap=     0.026 Goal=   None    Shift=    0.000
 RMSDP=1.79D-02 MaxDP=3.26D-01 DE= 1.36D-01 OVMax= 4.53D-02

 Cycle  18  Pass 1  IDiag  1:
 E= -174.212795895786     Delta-E=       -0.144529851392 Rises=F Damp=F
 DIIS: error= 2.51D-02 at cycle  18 NSaved=  18.
 NSaved=18 IEnMin=12 EnMin= -174.285983915775     IErMin=10 ErrMin= 4.38D-03
 ErrMax= 2.51D-02  0.00D+00 EMaxC= 1.00D+00 BMatC= 4.29D-02 BMatP= 3.71D-03
 IDIUse=1 WtCom= 1.00D+00 WtEn= 0.00D+00
 Coeff-Com: -0.100D+00-0.792D-01 0.108D+00 0.346D-01-0.168D-01 0.171D+00
 Coeff-Com:  0.887D-01 0.283D-04-0.157D+00-0.604D+00 0.183D+01-0.752D+00
 Coeff-Com: -0.982D+00 0.511D+00 0.266D+00-0.536D-01 0.372D-01 0.699D+00
 Coeff:     -0.100D+00-0.792D-01 0.108D+00 0.346D-01-0.168D-01 0.171D+00
 Coeff:      0.887D-01 0.283D-04-0.157D+00-0.604D+00 0.183D+01-0.752D+00
 Coeff:     -0.982D+00 0.511D+00 0.266D+00-0.536D-01 0.372D-01 0.699D+00
 Gap=     0.003 Goal=   None    Shift=    0.000
 Gap=     0.037 Goal=   None    Shift=    0.000
 RMSDP=4.52D-02 MaxDP=7.05D-01 DE=-1.45D-01 OVMax= 3.64D-02

 Cycle  19  Pass 1  IDiag  1:
 E= -174.015524219263     Delta-E=        0.197271676523 Rises=F Damp=F
 DIIS: error= 3.48D-02 at cycle  19 NSaved=  19.
 NSaved=19 IEnMin=12 EnMin= -174.285983915775     IErMin=10 ErrMin= 4.38D-03
 ErrMax= 3.48D-02  0.00D+00 EMaxC= 1.00D+00 BMatC= 7.11D-02 BMatP= 3.71D-03
 IDIUse=1 WtCom= 1.00D+00 WtEn= 0.00D+00
 Coeff-Com: -0.982D-01-0.860D-01 0.116D+00 0.314D-01-0.478D-01 0.280D+00
 Coeff-Com: -0.825D-02 0.142D-01-0.247D+00-0.579D+00 0.207D+01-0.938D+00
 Coeff-Com: -0.971D+00 0.510D+00 0.266D+00-0.502D-01 0.377D-01 0.706D+00
 Coeff-Com: -0.595D-02
 Coeff:     -0.982D-01-0.860D-01 0.116D+00 0.314D-01-0.478D-01 0.280D+00
 Coeff:     -0.825D-02 0.142D-01-0.247D+00-0.579D+00 0.207D+01-0.938D+00
 Coeff:     -0.971D+00 0.510D+00 0.266D+00-0.502D-01 0.377D-01 0.706D+00
 Coeff:     -0.595D-02
 Gap=     0.003 Goal=   None    Shift=    0.000
 Gap=     0.037 Goal=   None    Shift=    0.000
 RMSDP=2.58D-04 MaxDP=3.80D-03 DE= 1.97D-01 OVMax= 1.65D-02

 Cycle  20  Pass 1  IDiag  1:
 E= -174.017536867276     Delta-E=       -0.002012648013 Rises=F Damp=F
 DIIS: error= 3.20D-02 at cycle  20 NSaved=  20.
 NSaved=20 IEnMin=12 EnMin= -174.285983915775     IErMin=10 ErrMin= 4.38D-03
 ErrMax= 3.20D-02  0.00D+00 EMaxC= 1.00D+00 BMatC= 6.61D-02 BMatP= 3.71D-03
 IDIUse=1 WtCom= 1.00D+00 WtEn= 0.00D+00
 Coeff-Com: -0.276D-01-0.180D+00 0.116D+00 0.592D-01-0.459D-02 0.149D+00
 Coeff-Com:  0.188D+00-0.372D+00 0.324D+00-0.114D+01 0.107D+01 0.440D+00
 Coeff-Com: -0.928D+00 0.436D+00 0.112D+00 0.979D-01 0.322D-01 0.580D+00
 Coeff-Com: -0.210D+01 0.215D+01
 Coeff:     -0.276D-01-0.180D+00 0.116D+00 0.592D-01-0.459D-02 0.149D+00
 Coeff:      0.188D+00-0.372D+00 0.324D+00-0.114D+01 0.107D+01 0.440D+00
 Coeff:     -0.928D+00 0.436D+00 0.112D+00 0.979D-01 0.322D-01 0.580D+00
 Coeff:     -0.210D+01 0.215D+01
 Gap=     0.000 Goal=   None    Shift=    0.000
 Gap=     0.032 Goal=   None    Shift=    0.000
 GapD=    0.000 DampG=0.250 DampE=0.500 DampFc=0.1250 IDamp=-1.
 Damping current iteration by 1.25D-01
 RMSDP=1.07D-02 MaxDP=1.70D-01 DE=-2.01D-03 OVMax= 1.16D-02

 Cycle  21  Pass 1  IDiag  1:
 E= -174.036618236217     Delta-E=       -0.019081368941 Rises=F Damp=T
 DIIS: error= 2.88D-02 at cycle  21 NSaved=  20.
 NSaved=20 IEnMin=12 EnMin= -174.285983915775     IErMin=10 ErrMin= 4.38D-03
 ErrMax= 2.88D-02  0.00D+00 EMaxC= 1.00D+00 BMatC= 6.61D-02 BMatP= 3.71D-03
 IDIUse=1 WtCom= 1.00D+00 WtEn= 0.00D+00
 Coeff-Com: -0.427D-01-0.155D+00 0.150D+00-0.214D-02-0.415D-02-0.171D+00
 Coeff-Com:  0.985D+00-0.763D+00 0.610D+00-0.114D+01-0.362D+00 0.162D+01
 Coeff-Com: -0.118D+01 0.486D+00 0.177D+00-0.606D-01 0.762D-01 0.763D+00
 Coeff-Com: -0.287D+00 0.301D+00
 Coeff:     -0.427D-01-0.155D+00 0.150D+00-0.214D-02-0.415D-02-0.171D+00
 Coeff:      0.985D+00-0.763D+00 0.610D+00-0.114D+01-0.362D+00 0.162D+01
 Coeff:     -0.118D+01 0.486D+00 0.177D+00-0.606D-01 0.762D-01 0.763D+00
 Coeff:     -0.287D+00 0.301D+00
 Gap=     0.004 Goal=   None    Shift=    0.000
 Gap=     0.038 Goal=   None    Shift=    0.000
 RMSDP=2.21D-03 MaxDP=3.60D-02 DE=-1.91D-02 OVMax= 4.26D-02

 Cycle  22  Pass 1  IDiag  1:
 E= -174.027398489862     Delta-E=        0.009219746355 Rises=F Damp=F
 DIIS: error= 1.56D-02 at cycle  22 NSaved=  20.
 NSaved=20 IEnMin=12 EnMin= -174.285983915775     IErMin=10 ErrMin= 4.38D-03
 ErrMax= 1.56D-02  0.00D+00 EMaxC= 1.00D+00 BMatC= 3.58D-02 BMatP= 3.71D-03
 IDIUse=1 WtCom= 1.00D+00 WtEn= 0.00D+00
 Coeff-Com: -0.952D-01-0.818D-01 0.953D-01 0.483D-01 0.371D-01 0.706D-01
 Coeff-Com:  0.419D-01 0.729D-01-0.557D-02-0.750D+00 0.171D+01-0.623D+00
 Coeff-Com: -0.934D+00 0.497D+00 0.234D+00-0.102D-01 0.251D-01 0.642D+00
 Coeff-Com: -0.662D-01 0.866D-01
 Coeff:     -0.952D-01-0.818D-01 0.953D-01 0.483D-01 0.371D-01 0.706D-01
 Coeff:      0.419D-01 0.729D-01-0.557D-02-0.750D+00 0.171D+01-0.623D+00
 Coeff:     -0.934D+00 0.497D+00 0.234D+00-0.102D-01 0.251D-01 0.642D+00
 Coeff:     -0.662D-01 0.866D-01
 Gap=     0.000 Goal=   None    Shift=    0.000
 Gap=     0.035 Goal=   None    Shift=    0.000
 RMSDP=4.56D-02 MaxDP=7.05D-01 DE= 9.22D-03 OVMax= 3.50D-01

 Cycle  23  Pass 1  IDiag  1:
 E= -174.188271564660     Delta-E=       -0.160873074798 Rises=F Damp=F
 DIIS: error= 4.71D-02 at cycle  23 NSaved=  20.
 NSaved=20 IEnMin=12 EnMin= -174.285983915775     IErMin=10 ErrMin= 4.38D-03
 ErrMax= 4.71D-02  0.00D+00 EMaxC= 1.00D+00 BMatC= 6.85D-02 BMatP= 3.71D-03
 IDIUse=1 WtCom= 1.00D+00 WtEn= 0.00D+00
 Coeff-Com: -0.716D-01-0.861D-01 0.106D+00 0.402D-01 0.143D-01-0.199D+00
 Coeff-Com:  0.547D+00-0.407D+00 0.116D+01-0.173D+01-0.274D+00 0.164D+01
 Coeff-Com: -0.117D+01 0.461D+00 0.306D+00-0.929D+00 0.405D-01 0.989D+00
 Coeff-Com:  0.102D-01 0.555D+00
 Coeff:     -0.716D-01-0.861D-01 0.106D+00 0.402D-01 0.143D-01-0.199D+00
 Coeff:      0.547D+00-0.407D+00 0.116D+01-0.173D+01-0.274D+00 0.164D+01
 Coeff:     -0.117D+01 0.461D+00 0.306D+00-0.929D+00 0.405D-01 0.989D+00
 Coeff:      0.102D-01 0.555D+00
 Gap=     0.006 Goal=   None    Shift=    0.000
 Gap=     0.043 Goal=   None    Shift=    0.000
 RMSDP=4.51D-02 MaxDP=7.03D-01 DE=-1.61D-01 OVMax= 3.13D-01

 Cycle  24  Pass 1  IDiag  1:
 E= -174.024265003064     Delta-E=        0.164006561596 Rises=F Damp=F
 DIIS: error= 1.82D-02 at cycle  24 NSaved=  20.
 NSaved=20 IEnMin=12 EnMin= -174.285983915775     IErMin=10 ErrMin= 4.38D-03
 ErrMax= 1.82D-02  0.00D+00 EMaxC= 1.00D+00 BMatC= 4.61D-02 BMatP= 3.71D-03
 IDIUse=1 WtCom= 1.00D+00 WtEn= 0.00D+00
 Coeff-Com: -0.725D-01-0.853D-01 0.108D+00 0.393D-01 0.868D-02-0.184D+00
 Coeff-Com:  0.540D+00-0.408D+00 0.114D+01-0.172D+01-0.242D+00 0.161D+01
 Coeff-Com: -0.117D+01 0.462D+00 0.309D+00-0.935D+00 0.408D-01 0.994D+00
 Coeff-Com:  0.558D+00 0.834D-02
 Coeff:     -0.725D-01-0.853D-01 0.108D+00 0.393D-01 0.868D-02-0.184D+00
 Coeff:      0.540D+00-0.408D+00 0.114D+01-0.172D+01-0.242D+00 0.161D+01
 Coeff:     -0.117D+01 0.462D+00 0.309D+00-0.935D+00 0.408D-01 0.994D+00
 Coeff:      0.558D+00 0.834D-02
 Gap=     0.007 Goal=   None    Shift=    0.000
 Gap=     0.043 Goal=   None    Shift=    0.000
 RMSDP=1.83D-05 MaxDP=2.45D-04 DE= 1.64D-01 OVMax= 3.25D-04

 Cycle  25  Pass 1  IDiag  1:
 E= -174.024238877297     Delta-E=        0.000026125767 Rises=F Damp=F
 DIIS: error= 1.82D-02 at cycle  25 NSaved=  20.
 NSaved=20 IEnMin=12 EnMin= -174.285983915775     IErMin=10 ErrMin= 4.38D-03
 ErrMax= 1.82D-02  0.00D+00 EMaxC= 1.00D+00 BMatC= 4.61D-02 BMatP= 3.71D-03
 IDIUse=1 WtCom= 1.00D+00 WtEn= 0.00D+00
 Coeff-Com: -0.754D-01-0.778D-01 0.108D+00 0.246D-01 0.134D-01-0.185D+00
 Coeff-Com:  0.620D+00-0.476D+00 0.117D+01-0.173D+01-0.374D+00 0.176D+01
 Coeff-Com: -0.125D+01 0.478D+00 0.405D+00-0.886D+00 0.919D+00 0.552D+00
 Coeff-Com:  0.156D+01-0.155D+01
 Coeff:     -0.754D-01-0.778D-01 0.108D+00 0.246D-01 0.134D-01-0.185D+00
 Coeff:      0.620D+00-0.476D+00 0.117D+01-0.173D+01-0.374D+00 0.176D+01
 Coeff:     -0.125D+01 0.478D+00 0.405D+00-0.886D+00 0.919D+00 0.552D+00
 Coeff:      0.156D+01-0.155D+01
 Gap=     0.004 Goal=   None    Shift=    0.000
 Gap=     0.048 Goal=   None    Shift=    0.000
 GapD=    0.004 DampG=0.250 DampE=0.500 DampFc=0.1250 IDamp=-1.
 Damping current iteration by 1.25D-01
 RMSDP=4.22D-04 MaxDP=6.83D-03 DE= 2.61D-05 OVMax= 1.25D-02

 Cycle  26  Pass 1  IDiag  1:
 E= -174.024155700647     Delta-E=        0.000083176650 Rises=F Damp=T
 DIIS: error= 1.84D-02 at cycle  26 NSaved=  20.
 NSaved=20 IEnMin=12 EnMin= -174.285983915775     IErMin=10 ErrMin= 4.38D-03
 ErrMax= 1.84D-02  0.00D+00 EMaxC= 1.00D+00 BMatC= 4.64D-02 BMatP= 3.71D-03
 IDIUse=1 WtCom= 1.00D+00 WtEn= 0.00D+00
 Coeff-Com: -0.726D-01-0.823D-01 0.107D+00 0.274D-01-0.184D-02-0.135D+00
 Coeff-Com:  0.578D+00-0.474D+00 0.112D+01-0.169D+01-0.264D+00 0.166D+01
 Coeff-Com: -0.125D+01 0.476D+00 0.403D+00-0.904D+00 0.931D+00 0.561D+00
 Coeff-Com: -0.623D+00 0.631D+00
 Coeff:     -0.726D-01-0.823D-01 0.107D+00 0.274D-01-0.184D-02-0.135D+00
 Coeff:      0.578D+00-0.474D+00 0.112D+01-0.169D+01-0.264D+00 0.166D+01
 Coeff:     -0.125D+01 0.476D+00 0.403D+00-0.904D+00 0.931D+00 0.561D+00
 Coeff:     -0.623D+00 0.631D+00
 Gap=     0.004 Goal=   None    Shift=    0.000
 Gap=     0.049 Goal=   None    Shift=    0.000
 RMSDP=3.14D-04 MaxDP=4.31D-03 DE= 8.32D-05 OVMax= 2.57D-02

 Cycle  27  Pass 1  IDiag  1:
 E= -174.025149860687     Delta-E=       -0.000994160040 Rises=F Damp=F
 DIIS: error= 1.72D-02 at cycle  27 NSaved=  20.
 NSaved=20 IEnMin=12 EnMin= -174.285983915775     IErMin=10 ErrMin= 4.38D-03
 ErrMax= 1.72D-02  0.00D+00 EMaxC= 1.00D+00 BMatC= 4.27D-02 BMatP= 3.71D-03
 IDIUse=1 WtCom= 1.00D+00 WtEn= 0.00D+00
 Coeff-Com: -0.372D-01-0.142D+00 0.118D+00 0.402D-01 0.231D-01-0.176D+00
 Coeff-Com:  0.665D+00-0.671D+00 0.122D+01-0.183D+01-0.525D+00 0.212D+01
 Coeff-Com: -0.119D+01 0.443D+00 0.269D+00-0.809D+00 0.918D+00 0.528D+00
 Coeff-Com: -0.828D+00 0.862D+00
 Coeff:     -0.372D-01-0.142D+00 0.118D+00 0.402D-01 0.231D-01-0.176D+00
 Coeff:      0.665D+00-0.671D+00 0.122D+01-0.183D+01-0.525D+00 0.212D+01
 Coeff:     -0.119D+01 0.443D+00 0.269D+00-0.809D+00 0.918D+00 0.528D+00
 Coeff:     -0.828D+00 0.862D+00
 Gap=     0.003 Goal=   None    Shift=    0.000
 Gap=     0.044 Goal=   None    Shift=    0.000
 RMSDP=2.63D-03 MaxDP=4.13D-02 DE=-9.94D-04 OVMax= 1.72D-01

 Cycle  28  Pass 1  IDiag  1:
 E= -174.024292476947     Delta-E=        0.000857383740 Rises=F Damp=F
 DIIS: error= 1.39D-02 at cycle  28 NSaved=  20.
 NSaved=20 IEnMin=12 EnMin= -174.285983915775     IErMin=10 ErrMin= 4.38D-03
 ErrMax= 1.39D-02  0.00D+00 EMaxC= 1.00D+00 BMatC= 2.35D-02 BMatP= 3.71D-03
 IDIUse=1 WtCom= 1.00D+00 WtEn= 0.00D+00
 Coeff-Com: -0.475D-01-0.121D+00 0.109D+00 0.346D-01 0.564D-01-0.258D+00
 Coeff-Com:  0.664D+00-0.573D+00 0.135D+01-0.195D+01-0.673D+00 0.221D+01
 Coeff-Com: -0.119D+01 0.447D+00 0.273D+00-0.598D+00 0.809D+00 0.420D+00
 Coeff-Com: -0.712D-01 0.113D+00
 Coeff:     -0.475D-01-0.121D+00 0.109D+00 0.346D-01 0.564D-01-0.258D+00
 Coeff:      0.664D+00-0.573D+00 0.135D+01-0.195D+01-0.673D+00 0.221D+01
 Coeff:     -0.119D+01 0.447D+00 0.273D+00-0.598D+00 0.809D+00 0.420D+00
 Coeff:     -0.712D-01 0.113D+00
 Gap=     0.001 Goal=   None    Shift=    0.000
 Gap=     0.044 Goal=   None    Shift=    0.000
 RMSDP=3.79D-03 MaxDP=5.81D-02 DE= 8.57D-04 OVMax= 2.48D-01

 Cycle  29  Pass 1  IDiag  1:
 E= -174.019523789279     Delta-E=        0.004768687669 Rises=F Damp=F
 DIIS: error= 2.81D-02 at cycle  29 NSaved=  20.
 NSaved=20 IEnMin=12 EnMin= -174.285983915775     IErMin=10 ErrMin= 4.38D-03
 ErrMax= 2.81D-02  0.00D+00 EMaxC= 1.00D+00 BMatC= 6.00D-02 BMatP= 3.71D-03
 IDIUse=1 WtCom= 1.00D+00 WtEn= 0.00D+00
 Coeff-Com: -0.461D-01-0.123D+00 0.109D+00 0.353D-01 0.544D-01-0.257D+00
 Coeff-Com:  0.690D+00-0.609D+00 0.134D+01-0.193D+01-0.697D+00 0.224D+01
 Coeff-Com: -0.119D+01 0.445D+00 0.267D+00-0.598D+00 0.808D+00 0.422D+00
 Coeff-Com:  0.933D-01-0.512D-01
 Coeff:     -0.461D-01-0.123D+00 0.109D+00 0.353D-01 0.544D-01-0.257D+00
 Coeff:      0.690D+00-0.609D+00 0.134D+01-0.193D+01-0.697D+00 0.224D+01
 Coeff:     -0.119D+01 0.445D+00 0.267D+00-0.598D+00 0.808D+00 0.422D+00
 Coeff:      0.933D-01-0.512D-01
 Gap=     0.001 Goal=   None    Shift=    0.000
 Gap=     0.044 Goal=   None    Shift=    0.000
 RMSDP=1.70D-04 MaxDP=2.43D-03 DE= 4.77D-03 OVMax= 1.11D-02

 Cycle  30  Pass 1  IDiag  1:
 E= -174.020624947061     Delta-E=       -0.001101157783 Rises=F Damp=F
 DIIS: error= 2.62D-02 at cycle  30 NSaved=  20.
 NSaved=20 IEnMin=12 EnMin= -174.285983915775     IErMin=10 ErrMin= 4.38D-03
 ErrMax= 2.62D-02  0.00D+00 EMaxC= 1.00D+00 BMatC= 5.71D-02 BMatP= 3.71D-03
 IDIUse=1 WtCom= 1.00D+00 WtEn= 0.00D+00
 Coeff-Com: -0.301D-01-0.149D+00 0.123D+00 0.334D-01 0.308D-01-0.173D+00
 Coeff-Com:  0.581D+00-0.593D+00 0.142D+01-0.210D+01-0.656D+00 0.231D+01
 Coeff-Com: -0.117D+01 0.432D+00 0.273D+00-0.608D+00 0.784D+00 0.444D+00
 Coeff-Com: -0.218D+01 0.222D+01
 Coeff:     -0.301D-01-0.149D+00 0.123D+00 0.334D-01 0.308D-01-0.173D+00
 Coeff:      0.581D+00-0.593D+00 0.142D+01-0.210D+01-0.656D+00 0.231D+01
 Coeff:     -0.117D+01 0.432D+00 0.273D+00-0.608D+00 0.784D+00 0.444D+00
 Coeff:     -0.218D+01 0.222D+01
 Gap=     0.000 Goal=   None    Shift=    0.000
 Gap=     0.043 Goal=   None    Shift=    0.000
 GapD=    0.000 DampG=0.250 DampE=0.500 DampFc=0.1250 IDamp=-1.
 Damping current iteration by 1.25D-01
 RMSDP=5.71D-03 MaxDP=8.91D-02 DE=-1.10D-03 OVMax= 3.71D-01

 Cycle  31  Pass 1  IDiag  1:
 E= -174.024423697755     Delta-E=       -0.003798750694 Rises=F Damp=T
 DIIS: error= 1.87D-02 at cycle  31 NSaved=  20.
 NSaved=20 IEnMin=12 EnMin= -174.285983915775     IErMin=10 ErrMin= 4.38D-03
 ErrMax= 1.87D-02  0.00D+00 EMaxC= 1.00D+00 BMatC= 4.67D-02 BMatP= 3.71D-03
 IDIUse=1 WtCom= 1.00D+00 WtEn= 0.00D+00
 Coeff-Com: -0.381D-01-0.132D+00 0.108D+00 0.343D-01 0.493D-01-0.304D+00
 Coeff-Com:  0.859D+00-0.742D+00 0.142D+01-0.197D+01-0.105D+01 0.260D+01
 Coeff-Com: -0.121D+01 0.436D+00 0.275D+00-0.595D+00 0.780D+00 0.432D+00
 Coeff-Com: -0.453D+00 0.494D+00
 Coeff:     -0.381D-01-0.132D+00 0.108D+00 0.343D-01 0.493D-01-0.304D+00
 Coeff:      0.859D+00-0.742D+00 0.142D+01-0.197D+01-0.105D+01 0.260D+01
 Coeff:     -0.121D+01 0.436D+00 0.275D+00-0.595D+00 0.780D+00 0.432D+00
 Coeff:     -0.453D+00 0.494D+00
 Gap=     0.002 Goal=   None    Shift=    0.000
 Gap=     0.044 Goal=   None    Shift=    0.000
 RMSDP=1.63D-03 MaxDP=2.35D-02 DE=-3.80D-03 OVMax= 2.25D-01

 Cycle  32  Pass 1  IDiag  1:
 E= -174.027559242408     Delta-E=       -0.003135544653 Rises=F Damp=F
 DIIS: error= 1.29D-02 at cycle  32 NSaved=  20.
 NSaved=20 IEnMin=12 EnMin= -174.285983915775     IErMin=10 ErrMin= 4.38D-03
 ErrMax= 1.29D-02  0.00D+00 EMaxC= 1.00D+00 BMatC= 2.85D-02 BMatP= 3.71D-03
 IDIUse=1 WtCom= 1.00D+00 WtEn= 0.00D+00
 Coeff-Com: -0.392D-01-0.136D+00 0.114D+00 0.369D-01 0.501D-01-0.224D+00
 Coeff-Com:  0.644D+00-0.611D+00 0.133D+01-0.195D+01-0.632D+00 0.222D+01
 Coeff-Com: -0.117D+01 0.438D+00 0.257D+00-0.587D+00 0.796D+00 0.421D+00
 Coeff-Com: -0.158D+00 0.204D+00
 Coeff:     -0.392D-01-0.136D+00 0.114D+00 0.369D-01 0.501D-01-0.224D+00
 Coeff:      0.644D+00-0.611D+00 0.133D+01-0.195D+01-0.632D+00 0.222D+01
 Coeff:     -0.117D+01 0.438D+00 0.257D+00-0.587D+00 0.796D+00 0.421D+00
 Coeff:     -0.158D+00 0.204D+00
 Gap=     0.000 Goal=   None    Shift=    0.000
 Gap=     0.043 Goal=   None    Shift=    0.000
 RMSDP=4.72D-02 MaxDP=7.05D-01 DE=-3.14D-03 OVMax= 1.86D-03

 >>>>>>>>>> Convergence criterion not met.
 SCF Done:  E(ULC-wHPBE) =  -174.027559242     A.U. after   33 cycles
            NFock= 32  Conv=0.47D-01     -V/T= 1.9094
 <Sx>= 0.0000 <Sy>= 0.0000 <Sz>= 0.5000 <S**2>= 1.7507 S= 0.9145
 <L.S>= 0.000000000000E+00
 KE= 1.913550116637D+02 PE=-7.470226382343D+02 EE= 2.256273248422D+02
 Annihilation of the first spin contaminant:
 S**2 before annihilation     1.7507,   after     0.7523
 Leave Link  502 at Thu Mar  5 12:58:57 2020, MaxMem=  6710886400 cpu:              48.9 elap:               3.2
 (Enter /opt/ohpc/pub/libs/gaussian/g16-A.03/sandybridge/g16/l508.exe)
 Keep R1 and R2 ints in memory in symmetry-blocked form, NReq=16816081.
 FoFCou: FMM=F IPFlag=           0 FMFlag=           0 FMFlg1=           0
         NFxFlg=           0 DoJE=F BraDBF=F KetDBF=F FulRan=T
         wScrn=  0.000000 ICntrl=       600 IOpCl=  0 I1Cent=           0 NGrid=           0
         NMat0=    1 NMatS0=   1653 NMatT0=    0 NMatD0=    1 NMtDS0=    0 NMtDT0=    0
 Petite list used in FoFCou.
 Tight linear equation convergence will be used.
 ULC-wHPBE wavefunction.
 Quadratic Convergence SCF Method.
 Line search only if initial step raises energy.
 Iteration   1 EE= -174.067711273194                                    Grad=5.108D-02 Max rot=    1.1250 deg.
 Gradient too large for Newton-Raphson -- use scaled steepest descent instead.
     ILin= 1 X=0.000D+00 Y=-1.740677112732D+02 DE= 0.00D+00 F= -6.03D-03
     ILin= 2 X=3.000D-01 Y=-1.740692625705D+02 DE=-1.55D-03 F= -4.31D-03
     ILin= 3 X=6.000D-01 Y=-1.740702987501D+02 DE=-2.59D-03 F= -2.59D-03
     ILin= 4 X=1.100D+00 Y=-1.740708742710D+02 DE=-3.16D-03 F=  2.94D-04
     Accept linear search using points  3 and  4.
     An  expanding polynomial of degree  4 produced  0.9210
 Iteration   2 EE= -174.070834145116     Delta-E=       -0.003122871922 Grad=2.659D-02 Max rot=    0.6281 deg.
 Gradient too large for Newton-Raphson -- use scaled steepest descent instead.
     ILin= 1 X=0.000D+00 Y=-1.740708341451D+02 DE= 0.00D+00 F= -1.54D-03
     ILin= 2 X=5.000D-01 Y=-1.740713577324D+02 DE=-5.24D-04 F= -5.55D-04
     ILin= 3 X=1.100D+00 Y=-1.740713375084D+02 DE=-5.03D-04 F=  6.22D-04
     An  expanding polynomial of degree  3 produced  0.7828
 Iteration   3 EE= -174.071436197020     Delta-E=       -0.000602051904 Grad=1.364D-02 Max rot=    0.3373 deg.
 Gradient too large for Newton-Raphson -- use scaled steepest descent instead.
     ILin= 1 X=0.000D+00 Y=-1.740714361970D+02 DE= 0.00D+00 F= -4.54D-04
     ILin= 2 X=8.000D-01 Y=-1.740716150951D+02 DE=-1.79D-04 F=  6.78D-06
     Accept linear search using points  1 and  2.
     An  expanding polynomial of degree  2 produced  0.7760
     Minimum is close to point  2 DX= -2.40D-02 DF= -1.03D-07 DXR=  3.10D-02 DFR=  5.74D-04 which will be used.
 Iteration   4 EE= -174.071615095087     Delta-E=       -0.000178898067 Grad=8.009D-03 Max rot=    0.1848 deg.
 QCNR:  CnvC1=8.01D-08 CnvC2=8.01D-07
 LinEq1:  Iter=  0 NonCon=     1 RMS=3.68D-03 Max=1.25D-01 NDo=     1
 AX will form     1 AO Fock derivatives at one time.
 LinEq1:  Iter=  1 NonCon=     1 RMS=1.58D-01 Max=3.08D+00 NDo=     1
 LinEq1:  Iter=  2 NonCon=     1 RMS=5.32D-01 Max=1.62D+01 NDo=     1
 LinEq1:  Iter=  3 NonCon=     1 RMS=1.81D+00 Max=4.71D+01 NDo=     1
 LinEq1:  Iter=  4 NonCon=     1 RMS=2.16D+00 Max=5.69D+01 NDo=     1
 LinEq1:  Iter=  5 NonCon=     1 RMS=1.51D+00 Max=2.23D+01 NDo=     1
 LinEq1:  Iter=  6 NonCon=     1 RMS=1.58D+00 Max=1.69D+01 NDo=     1
 LinEq1:  Iter=  7 NonCon=     1 RMS=1.50D+00 Max=1.59D+01 NDo=     1
 LinEq1:  Iter=  8 NonCon=     1 RMS=1.55D+00 Max=1.90D+01 NDo=     1
 LinEq1:  Iter=  9 NonCon=     1 RMS=1.57D+00 Max=2.63D+01 NDo=     1
 LinEq1:  Iter= 10 NonCon=     1 RMS=9.85D-01 Max=9.82D+00 NDo=     1
 LinEq1:  Iter= 11 NonCon=     1 RMS=5.44D-01 Max=6.84D+00 NDo=     1
 LinEq1:  Iter= 12 NonCon=     1 RMS=5.66D-01 Max=9.37D+00 NDo=     1
 LinEq1:  Iter= 13 NonCon=     1 RMS=3.95D+00 Max=1.30D+02 NDo=     1
 LinEq1:  Iter= 14 NonCon=     1 RMS=8.70D+00 Max=1.56D+02 NDo=     1
 LinEq1:  Iter= 15 NonCon=     1 RMS=7.31D+00 Max=7.53D+01 NDo=     1
 LinEq1:  Iter= 16 NonCon=     1 RMS=5.69D+00 Max=1.22D+02 NDo=     1
 LinEq1:  Iter= 17 NonCon=     1 RMS=2.95D+01 Max=8.33D+02 NDo=     1
 LinEq1:  Iter= 18 NonCon=     1 RMS=4.97D+03 Max=1.85D+05 NDo=     1
 LinEq1:  Iter= 19 NonCon=     1 RMS=5.67D+05 Max=5.84D+06 NDo=     1
 LinEq1:  Iter= 20 NonCon=     1 RMS=3.39D+05 Max=3.57D+06 NDo=     1
 LinEq1:  Iter= 21 NonCon=     1 RMS=2.13D+05 Max=2.02D+06 NDo=     1
 LinEq1:  Iter= 22 NonCon=     1 RMS=1.19D+05 Max=1.58D+06 NDo=     1
 LinEq1:  Iter= 23 NonCon=     1 RMS=6.37D+04 Max=8.66D+05 NDo=     1
 LinEq1:  Iter= 24 NonCon=     1 RMS=5.55D+04 Max=1.66D+06 NDo=     1
 LinEq1:  Iter= 25 NonCon=     1 RMS=9.54D+04 Max=1.53D+06 NDo=     1
 LinEq1:  Iter= 26 NonCon=     1 RMS=2.94D+05 Max=1.08D+07 NDo=     1
 LinEq1:  Iter= 27 NonCon=     1 RMS=1.52D+06 Max=1.32D+07 NDo=     1
 LinEq1:  Iter= 28 NonCon=     1 RMS=1.67D+06 Max=5.31D+07 NDo=     1
 LinEq1:  Iter= 29 NonCon=     1 RMS=1.94D+07 Max=3.72D+08 NDo=     1
 LinEq1:  Iter= 30 NonCon=     1 RMS=8.79D+07 Max=3.10D+09 NDo=     1
 LinEq1:  Iter= 31 NonCon=     1 RMS=2.33D+08 Max=3.59D+09 NDo=     1
 LinEq1:  Iter= 32 NonCon=     1 RMS=5.66D+08 Max=1.99D+10 NDo=     1
 LinEq1:  Iter= 33 NonCon=     1 RMS=1.54D+09 Max=1.97D+10 NDo=     1
 LinEq1:  Iter= 34 NonCon=     1 RMS=2.22D+09 Max=4.07D+10 NDo=     1
 LinEq1:  Iter= 35 NonCon=     1 RMS=4.63D+09 Max=1.22D+11 NDo=     1
 LinEq1:  Iter= 36 NonCon=     1 RMS=7.69D+09 Max=1.62D+11 NDo=     1
 LinEq1:  Iter= 37 NonCon=     1 RMS=3.24D+10 Max=8.28D+11 NDo=     1
 LinEq1:  Iter= 38 NonCon=     1 RMS=2.27D+10 Max=2.13D+11 NDo=     1
 LinEq1:  Iter= 39 NonCon=     1 RMS=5.06D+10 Max=1.19D+12 NDo=     1
 LinEq1:  Iter= 40 NonCon=     1 RMS=3.25D+11 Max=7.54D+12 NDo=     1
 LinEq1:  Iter= 41 NonCon=     1 RMS=3.81D+11 Max=4.15D+12 NDo=     1
 LinEq1:  Iter= 42 NonCon=     1 RMS=2.85D+11 Max=6.20D+12 NDo=     1
 LinEq1:  Iter= 43 NonCon=     1 RMS=6.22D+11 Max=1.22D+13 NDo=     1
 LinEq1:  Iter= 44 NonCon=     1 RMS=2.06D+12 Max=4.43D+13 NDo=     1
 LinEq1:  Iter= 45 NonCon=     1 RMS=5.13D+12 Max=8.52D+13 NDo=     1
 LinEq1:  Iter= 46 NonCon=     1 RMS=4.11D+12 Max=8.75D+13 NDo=     1
 LinEq1:  Iter= 47 NonCon=     1 RMS=1.27D+13 Max=3.79D+14 NDo=     1
 LinEq1:  Iter= 48 NonCon=     1 RMS=1.47D+13 Max=3.04D+14 NDo=     1
 LinEq1:  Iter= 49 NonCon=     1 RMS=3.05D+13 Max=4.62D+14 NDo=     1
 LinEq1:  Iter= 50 NonCon=     1 RMS=1.97D+13 Max=4.12D+14 NDo=     1
 LinEq1:  Iter= 51 NonCon=     1 RMS=2.34D+13 Max=5.31D+14 NDo=     1
 LinEq1:  Iter= 52 NonCon=     1 RMS=5.21D+13 Max=1.35D+15 NDo=     1
 LinEq1:  Iter= 53 NonCon=     1 RMS=7.80D+13 Max=2.11D+15 NDo=     1
 LinEq1:  Iter= 54 NonCon=     1 RMS=8.36D+13 Max=8.69D+14 NDo=     1
 LinEq1:  Iter= 55 NonCon=     1 RMS=7.38D+13 Max=1.85D+15 NDo=     1
 LinEq1:  Iter= 56 NonCon=     1 RMS=1.90D+14 Max=4.03D+15 NDo=     1
 LinEq1:  Iter= 57 NonCon=     1 RMS=2.68D+14 Max=3.35D+15 NDo=     1
 LinEq1:  Iter= 58 NonCon=     1 RMS=3.28D+14 Max=9.37D+15 NDo=     1
 LinEq1:  Iter= 59 NonCon=     1 RMS=3.75D+14 Max=7.01D+15 NDo=     1
 LinEq1:  Iter= 60 NonCon=     1 RMS=6.14D+14 Max=1.56D+16 NDo=     1
 LinEq1:  Iter= 61 NonCon=     1 RMS=5.21D+14 Max=8.49D+15 NDo=     1
 LinEq1:  Iter= 62 NonCon=     1 RMS=7.39D+14 Max=1.19D+16 NDo=     1
 LinEq1:  Iter= 63 NonCon=     1 RMS=1.12D+15 Max=3.34D+16 NDo=     1
 LinEq1:  Iter= 64 NonCon=     1 RMS=1.29D+15 Max=1.90D+16 NDo=     1
 LinEq1:  Iter= 65 NonCon=     1 RMS=2.26D+15 Max=3.74D+16 NDo=     1
 LinEq1:  Iter= 66 NonCon=     1 RMS=3.46D+15 Max=5.37D+16 NDo=     1
 LinEq1:  Iter= 67 NonCon=     1 RMS=4.15D+15 Max=7.31D+16 NDo=     1
 LinEq1:  Iter= 68 NonCon=     1 RMS=6.22D+15 Max=8.47D+16 NDo=     1
 LinEq1:  Iter= 69 NonCon=     1 RMS=1.14D+16 Max=1.97D+17 NDo=     1
 LinEq1:  Iter= 70 NonCon=     1 RMS=1.66D+16 Max=2.34D+17 NDo=     1
 LinEq1:  Iter= 71 NonCon=     1 RMS=2.17D+16 Max=3.96D+17 NDo=     1
 LinEq1:  Iter= 72 NonCon=     1 RMS=3.03D+16 Max=5.62D+17 NDo=     1
 LinEq1:  Iter= 73 NonCon=     1 RMS=4.23D+16 Max=5.90D+17 NDo=     1
 LinEq1:  Iter= 74 NonCon=     1 RMS=2.38D+16 Max=3.57D+17 NDo=     1
 LinEq1:  Iter= 75 NonCon=     1 RMS=3.01D+16 Max=5.94D+17 NDo=     1
 LinEq1:  Iter= 76 NonCon=     1 RMS=3.48D+16 Max=7.11D+17 NDo=     1
 LinEq1:  Iter= 77 NonCon=     1 RMS=2.82D+16 Max=3.40D+17 NDo=     1
 LinEq1:  Iter= 78 NonCon=     1 RMS=2.59D+16 Max=7.31D+17 NDo=     1
 LinEq1:  Iter= 79 NonCon=     1 RMS=4.88D+16 Max=1.04D+18 NDo=     1
 LinEq1:  Iter= 80 NonCon=     1 RMS=4.84D+16 Max=5.59D+17 NDo=     1
 LinEq1:  Iter= 81 NonCon=     1 RMS=1.97D+16 Max=2.60D+17 NDo=     1
 LinEq1:  Iter= 82 NonCon=     1 RMS=1.39D+16 Max=3.94D+17 NDo=     1
 LinEq1:  Iter= 83 NonCon=     1 RMS=1.27D+16 Max=2.00D+17 NDo=     1
 LinEq1:  Iter= 84 NonCon=     1 RMS=1.40D+16 Max=1.91D+17 NDo=     1
 LinEq1:  Iter= 85 NonCon=     1 RMS=1.01D+16 Max=2.65D+17 NDo=     1
 LinEq1:  Iter= 86 NonCon=     1 RMS=1.44D+16 Max=2.56D+17 NDo=     1
 LinEq1:  Iter= 87 NonCon=     1 RMS=1.64D+16 Max=2.10D+17 NDo=     1
 LinEq1:  Iter= 88 NonCon=     1 RMS=7.45D+15 Max=7.05D+16 NDo=     1
 LinEq1:  Iter= 89 NonCon=     1 RMS=4.62D+15 Max=7.56D+16 NDo=     1
 LinEq1:  Iter= 90 NonCon=     1 RMS=4.00D+15 Max=7.09D+16 NDo=     1
 LinEq1:  Iter= 91 NonCon=     1 RMS=3.51D+15 Max=8.40D+16 NDo=     1
 LinEq1:  Iter= 92 NonCon=     1 RMS=2.69D+15 Max=3.48D+16 NDo=     1
 LinEq1:  Iter= 93 NonCon=     1 RMS=3.67D+15 Max=8.24D+16 NDo=     1
 LinEq1:  Iter= 94 NonCon=     1 RMS=4.47D+15 Max=7.90D+16 NDo=     1
 LinEq1:  Iter= 95 NonCon=     1 RMS=2.34D+15 Max=4.42D+16 NDo=     1
 LinEq1:  Iter= 96 NonCon=     1 RMS=2.66D+15 Max=5.61D+16 NDo=     1
 LinEq1:  Iter= 97 NonCon=     1 RMS=2.69D+15 Max=7.76D+16 NDo=     1
 LinEq1:  Iter= 98 NonCon=     1 RMS=1.91D+15 Max=2.30D+16 NDo=     1
 LinEq1:  Iter= 99 NonCon=     1 RMS=1.86D+15 Max=2.29D+16 NDo=     1
 LinEq1:  Iter=100 NonCon=     1 RMS=7.77D+14 Max=9.48D+15 NDo=     1
 LinEq1:  Iter=101 NonCon=     1 RMS=6.14D+14 Max=1.09D+16 NDo=     1
 LinEq1:  Iter=102 NonCon=     1 RMS=3.33D+14 Max=2.74D+15 NDo=     1
 LinEq1:  Iter=103 NonCon=     1 RMS=1.65D+14 Max=2.08D+15 NDo=     1
 LinEq1:  Iter=104 NonCon=     1 RMS=1.32D+14 Max=1.47D+15 NDo=     1
 LinEq1:  Iter=105 NonCon=     1 RMS=5.61D+13 Max=5.54D+14 NDo=     1
 LinEq1:  Iter=106 NonCon=     1 RMS=3.10D+13 Max=3.86D+14 NDo=     1
 LinEq1:  Iter=107 NonCon=     1 RMS=1.78D+13 Max=1.49D+14 NDo=     1
 LinEq1:  Iter=108 NonCon=     1 RMS=9.56D+12 Max=8.90D+13 NDo=     1
 LinEq1:  Iter=109 NonCon=     1 RMS=6.46D+12 Max=5.08D+13 NDo=     1
 LinEq1:  Iter=110 NonCon=     1 RMS=2.32D+12 Max=2.08D+13 NDo=     1
 LinEq1:  Iter=111 NonCon=     1 RMS=1.85D+12 Max=1.81D+13 NDo=     1
 LinEq1:  Iter=112 NonCon=     1 RMS=8.12D+11 Max=7.95D+12 NDo=     1
 LinEq1:  Iter=113 NonCon=     1 RMS=4.01D+11 Max=6.47D+12 NDo=     1
 LinEq1:  Iter=114 NonCon=     1 RMS=2.73D+11 Max=3.43D+12 NDo=     1
 LinEq1:  Iter=115 NonCon=     1 RMS=1.01D+11 Max=1.09D+12 NDo=     1
 LinEq1:  Iter=116 NonCon=     1 RMS=5.24D+10 Max=1.23D+12 NDo=     1
 LinEq1:  Iter=117 NonCon=     1 RMS=3.15D+10 Max=3.77D+11 NDo=     1
 LinEq1:  Iter=118 NonCon=     1 RMS=9.53D+09 Max=1.11D+11 NDo=     1
 LinEq1:  Iter=119 NonCon=     1 RMS=6.65D+09 Max=1.04D+11 NDo=     1
 LinEq1:  Iter=120 NonCon=     1 RMS=2.41D+09 Max=2.15D+10 NDo=     1
 LinEq1:  Iter=121 NonCon=     1 RMS=1.11D+09 Max=1.93D+10 NDo=     1
 LinEq1:  Iter=122 NonCon=     1 RMS=7.36D+08 Max=7.00D+09 NDo=     1
 LinEq1:  Iter=123 NonCon=     1 RMS=2.55D+08 Max=3.77D+09 NDo=     1
 LinEq1:  Iter=124 NonCon=     1 RMS=2.04D+08 Max=3.34D+09 NDo=     1
 LinEq1:  Iter=125 NonCon=     1 RMS=8.09D+07 Max=7.00D+08 NDo=     1
 LinEq1:  Iter=126 NonCon=     1 RMS=2.31D+07 Max=1.58D+08 NDo=     1
 LinEq1:  Iter=127 NonCon=     1 RMS=1.38D+07 Max=1.68D+08 NDo=     1
 LinEq1:  Iter=128 NonCon=     1 RMS=5.94D+06 Max=7.31D+07 NDo=     1
 LinEq1:  Iter=129 NonCon=     1 RMS=3.48D+06 Max=4.62D+07 NDo=     1
 LinEq1:  Iter=130 NonCon=     1 RMS=1.46D+06 Max=1.22D+07 NDo=     1
 LinEq1:  Iter=131 NonCon=     1 RMS=4.86D+05 Max=5.83D+06 NDo=     1
 LinEq1:  Iter=132 NonCon=     1 RMS=3.16D+05 Max=4.53D+06 NDo=     1
 LinEq1:  Iter=133 NonCon=     1 RMS=1.12D+05 Max=9.34D+05 NDo=     1
 LinEq1:  Iter=134 NonCon=     1 RMS=4.35D+04 Max=7.09D+05 NDo=     1
 LinEq1:  Iter=135 NonCon=     1 RMS=2.70D+04 Max=3.75D+05 NDo=     1
 LinEq1:  Iter=136 NonCon=     1 RMS=9.60D+03 Max=8.20D+04 NDo=     1
 LinEq1:  Iter=137 NonCon=     1 RMS=5.00D+03 Max=9.33D+04 NDo=     1
 LinEq1:  Iter=138 NonCon=     1 RMS=2.39D+03 Max=2.07D+04 NDo=     1
 LinEq1:  Iter=139 NonCon=     1 RMS=8.35D+02 Max=1.29D+04 NDo=     1
 LinEq1:  Iter=140 NonCon=     1 RMS=6.03D+02 Max=8.71D+03 NDo=     1
 LinEq1:  Iter=141 NonCon=     1 RMS=2.03D+02 Max=2.40D+03 NDo=     1
 LinEq1:  Iter=142 NonCon=     1 RMS=1.03D+02 Max=1.78D+03 NDo=     1
 LinEq1:  Iter=143 NonCon=     1 RMS=3.98D+01 Max=3.53D+02 NDo=     1
 LinEq1:  Iter=144 NonCon=     1 RMS=1.15D+01 Max=9.42D+01 NDo=     1
 LinEq1:  Iter=145 NonCon=     1 RMS=5.58D+00 Max=1.09D+02 NDo=     1
 LinEq1:  Iter=146 NonCon=     1 RMS=2.93D+00 Max=3.92D+01 NDo=     1
 LinEq1:  Iter=147 NonCon=     1 RMS=1.20D+00 Max=1.30D+01 NDo=     1
 LinEq1:  Iter=148 NonCon=     1 RMS=5.50D-01 Max=4.77D+00 NDo=     1
 LinEq1:  Iter=149 NonCon=     1 RMS=1.63D-01 Max=1.64D+00 NDo=     1
 LinEq1:  Iter=150 NonCon=     1 RMS=7.10D-02 Max=1.19D+00 NDo=     1
 LinEq1:  Iter=151 NonCon=     1 RMS=3.45D-02 Max=3.81D-01 NDo=     1
 LinEq1:  Iter=152 NonCon=     1 RMS=9.97D-03 Max=9.73D-02 NDo=     1
 LinEq1:  Iter=153 NonCon=     1 RMS=4.90D-03 Max=8.44D-02 NDo=     1
 LinEq1:  Iter=154 NonCon=     1 RMS=1.64D-03 Max=1.70D-02 NDo=     1
 LinEq1:  Iter=155 NonCon=     1 RMS=3.13D-04 Max=2.89D-03 NDo=     1
 LinEq1:  Iter=156 NonCon=     1 RMS=6.26D-05 Max=8.11D-04 NDo=     1
 LinEq1:  Iter=157 NonCon=     1 RMS=3.10D-05 Max=6.81D-04 NDo=     1
 LinEq1:  Iter=158 NonCon=     1 RMS=1.17D-05 Max=1.19D-04 NDo=     1
 LinEq1:  Iter=159 NonCon=     1 RMS=2.54D-06 Max=1.59D-05 NDo=     1
 LinEq1:  Iter=160 NonCon=     1 RMS=6.12D-07 Max=4.45D-06 NDo=     1
 LinEq1:  Iter=161 NonCon=     1 RMS=2.75D-07 Max=2.07D-06 NDo=     1
 LinEq1:  Iter=162 NonCon=     1 RMS=8.06D-08 Max=6.47D-07 NDo=     1
 LinEq1:  Iter=163 NonCon=     0 RMS=2.56D-08 Max=3.98D-07 NDo=     1
 Linear equations converged to 8.009D-08 8.009D-07 after   163 iterations.
 Angle between quadratic step and gradient=  44.89 degrees.
     ILin= 1 X=0.000D+00 Y=-1.740716150951D+02 DE= 0.00D+00 F= -1.68D-04
     ILin= 2 X=1.000D+00 Y=-1.740716990255D+02 DE=-8.39D-05 F= -1.03D-07
     Reject lnstep minimum 1.001D+00 FVal=-1.740716990256D+02 Lims=  0.00D+00  1.00D+00
     ILin= 3 X=2.000D+00 Y=-1.740716153763D+02 DE=-2.81D-07 F=  1.67D-04
     An  expanding polynomial of degree  3 produced  1.0008
     Minimum is close to point  2 DX=  8.39D-04 DF= -5.90D-11 DXR=  8.38D-04 DFR=  7.03D-07 which will be used.
 Iteration   5 EE= -174.071699025537     Delta-E=       -0.000083930450 Grad=1.102D-04 Max rot=    0.0014 deg.
 QCNR:  CnvC1=1.10D-09 CnvC2=1.10D-08
 LinEq1:  Iter=  0 NonCon=     1 RMS=4.35D-05 Max=1.61D-03 NDo=     1
 LinEq1:  Iter=  1 NonCon=     1 RMS=9.08D-02 Max=3.37D+00 NDo=     1
 LinEq1:  Iter=  2 NonCon=     1 RMS=2.98D+01 Max=6.58D+02 NDo=     1
 LinEq1:  Iter=  3 NonCon=     1 RMS=1.31D+02 Max=3.87D+03 NDo=     1
 LinEq1:  Iter=  4 NonCon=     1 RMS=2.53D+02 Max=3.40D+03 NDo=     1
 LinEq1:  Iter=  5 NonCon=     1 RMS=2.64D+03 Max=9.41D+04 NDo=     1
 LinEq1:  Iter=  6 NonCon=     1 RMS=1.98D+04 Max=3.29D+05 NDo=     1
 LinEq1:  Iter=  7 NonCon=     1 RMS=2.01D+05 Max=5.09D+06 NDo=     1
 LinEq1:  Iter=  8 NonCon=     1 RMS=4.04D+06 Max=1.04D+08 NDo=     1
 LinEq1:  Iter=  9 NonCon=     1 RMS=1.42D+07 Max=2.15D+08 NDo=     1
 LinEq1:  Iter= 10 NonCon=     1 RMS=9.55D+07 Max=2.27D+09 NDo=     1
 LinEq1:  Iter= 11 NonCon=     1 RMS=1.13D+09 Max=2.41D+10 NDo=     1
 LinEq1:  Iter= 12 NonCon=     1 RMS=4.36D+09 Max=1.21D+11 NDo=     1
 LinEq1:  Iter= 13 NonCon=     1 RMS=2.10D+10 Max=3.23D+11 NDo=     1
 LinEq1:  Iter= 14 NonCon=     1 RMS=3.12D+10 Max=3.23D+11 NDo=     1
 LinEq1:  Iter= 15 NonCon=     1 RMS=9.68D+10 Max=1.43D+12 NDo=     1
 LinEq1:  Iter= 16 NonCon=     1 RMS=4.21D+11 Max=9.17D+12 NDo=     1
 LinEq1:  Iter= 17 NonCon=     1 RMS=1.30D+12 Max=2.27D+13 NDo=     1
 LinEq1:  Iter= 18 NonCon=     1 RMS=3.86D+12 Max=7.61D+13 NDo=     1
 LinEq1:  Iter= 19 NonCon=     1 RMS=9.74D+12 Max=1.84D+14 NDo=     1
 LinEq1:  Iter= 20 NonCon=     1 RMS=5.45D+13 Max=9.56D+14 NDo=     1
 LinEq1:  Iter= 21 NonCon=     1 RMS=1.76D+14 Max=2.96D+15 NDo=     1
 LinEq1:  Iter= 22 NonCon=     1 RMS=4.42D+14 Max=6.76D+15 NDo=     1
 LinEq1:  Iter= 23 NonCon=     1 RMS=1.06D+15 Max=1.94D+16 NDo=     1
 LinEq1:  Iter= 24 NonCon=     1 RMS=2.50D+15 Max=4.95D+16 NDo=     1
 LinEq1:  Iter= 25 NonCon=     1 RMS=6.39D+15 Max=8.88D+16 NDo=     1
 LinEq1:  Iter= 26 NonCon=     1 RMS=1.41D+16 Max=3.36D+17 NDo=     1
 LinEq1:  Iter= 27 NonCon=     1 RMS=4.88D+16 Max=1.02D+18 NDo=     1
 LinEq1:  Iter= 28 NonCon=     1 RMS=1.19D+17 Max=1.42D+18 NDo=     1
 LinEq1:  Iter= 29 NonCon=     1 RMS=2.45D+17 Max=2.57D+18 NDo=     1
 LinEq1:  Iter= 30 NonCon=     1 RMS=3.60D+17 Max=4.44D+18 NDo=     1
 LinEq1:  Iter= 31 NonCon=     1 RMS=7.42D+17 Max=1.13D+19 NDo=     1
 LinEq1:  Iter= 32 NonCon=     1 RMS=2.19D+18 Max=3.51D+19 NDo=     1
 LinEq1:  Iter= 33 NonCon=     1 RMS=3.74D+18 Max=4.97D+19 NDo=     1
 LinEq1:  Iter= 34 NonCon=     1 RMS=6.81D+18 Max=7.36D+19 NDo=     1
 LinEq1:  Iter= 35 NonCon=     1 RMS=1.12D+19 Max=2.62D+20 NDo=     1
 LinEq1:  Iter= 36 NonCon=     1 RMS=2.74D+19 Max=4.85D+20 NDo=     1
 LinEq1:  Iter= 37 NonCon=     1 RMS=3.97D+19 Max=3.89D+20 NDo=     1
 LinEq1:  Iter= 38 NonCon=     1 RMS=3.59D+19 Max=4.65D+20 NDo=     1
 LinEq1:  Iter= 39 NonCon=     1 RMS=5.52D+19 Max=7.29D+20 NDo=     1
 LinEq1:  Iter= 40 NonCon=     1 RMS=1.01D+20 Max=1.66D+21 NDo=     1
 LinEq1:  Iter= 41 NonCon=     1 RMS=1.36D+20 Max=2.55D+21 NDo=     1
 LinEq1:  Iter= 42 NonCon=     1 RMS=3.50D+20 Max=6.17D+21 NDo=     1
 LinEq1:  Iter= 43 NonCon=     1 RMS=5.42D+20 Max=9.25D+21 NDo=     1
 LinEq1:  Iter= 44 NonCon=     1 RMS=8.30D+20 Max=9.54D+21 NDo=     1
 LinEq1:  Iter= 45 NonCon=     1 RMS=1.17D+21 Max=1.52D+22 NDo=     1
 LinEq1:  Iter= 46 NonCon=     1 RMS=1.50D+21 Max=2.47D+22 NDo=     1
 LinEq1:  Iter= 47 NonCon=     1 RMS=2.06D+21 Max=2.80D+22 NDo=     1
 LinEq1:  Iter= 48 NonCon=     1 RMS=2.95D+21 Max=3.84D+22 NDo=     1
 LinEq1:  Iter= 49 NonCon=     1 RMS=4.70D+21 Max=5.17D+22 NDo=     1
 LinEq1:  Iter= 50 NonCon=     1 RMS=5.70D+21 Max=7.46D+22 NDo=     1
 LinEq1:  Iter= 51 NonCon=     1 RMS=8.96D+21 Max=1.44D+23 NDo=     1
 LinEq1:  Iter= 52 NonCon=     1 RMS=1.28D+22 Max=1.57D+23 NDo=     1
 LinEq1:  Iter= 53 NonCon=     1 RMS=1.72D+22 Max=2.11D+23 NDo=     1
 LinEq1:  Iter= 54 NonCon=     1 RMS=2.76D+22 Max=3.90D+23 NDo=     1
 LinEq1:  Iter= 55 NonCon=     1 RMS=3.34D+22 Max=4.33D+23 NDo=     1
 LinEq1:  Iter= 56 NonCon=     1 RMS=5.68D+22 Max=7.93D+23 NDo=     1
 LinEq1:  Iter= 57 NonCon=     1 RMS=8.60D+22 Max=7.77D+23 NDo=     1
 LinEq1:  Iter= 58 NonCon=     1 RMS=6.97D+22 Max=7.16D+23 NDo=     1
 LinEq1:  Iter= 59 NonCon=     1 RMS=8.06D+22 Max=1.24D+24 NDo=     1
 LinEq1:  Iter= 60 NonCon=     1 RMS=1.24D+23 Max=1.96D+24 NDo=     1
 LinEq1:  Iter= 61 NonCon=     1 RMS=1.71D+23 Max=2.36D+24 NDo=     1
 LinEq1:  Iter= 62 NonCon=     1 RMS=2.07D+23 Max=3.31D+24 NDo=     1
 LinEq1:  Iter= 63 NonCon=     1 RMS=2.44D+23 Max=2.78D+24 NDo=     1
 LinEq1:  Iter= 64 NonCon=     1 RMS=2.24D+23 Max=3.91D+24 NDo=     1
 LinEq1:  Iter= 65 NonCon=     1 RMS=1.64D+23 Max=2.03D+24 NDo=     1
 LinEq1:  Iter= 66 NonCon=     1 RMS=1.32D+23 Max=3.50D+24 NDo=     1
 LinEq1:  Iter= 67 NonCon=     1 RMS=1.48D+23 Max=2.82D+24 NDo=     1
 LinEq1:  Iter= 68 NonCon=     1 RMS=1.56D+23 Max=3.41D+24 NDo=     1
 LinEq1:  Iter= 69 NonCon=     1 RMS=1.13D+23 Max=1.06D+24 NDo=     1
 LinEq1:  Iter= 70 NonCon=     1 RMS=1.06D+23 Max=2.34D+24 NDo=     1
 LinEq1:  Iter= 71 NonCon=     1 RMS=1.20D+23 Max=1.36D+24 NDo=     1
 LinEq1:  Iter= 72 NonCon=     1 RMS=1.38D+23 Max=1.90D+24 NDo=     1
 LinEq1:  Iter= 73 NonCon=     1 RMS=8.35D+22 Max=8.64D+23 NDo=     1
 LinEq1:  Iter= 74 NonCon=     1 RMS=6.60D+22 Max=6.80D+23 NDo=     1
 LinEq1:  Iter= 75 NonCon=     1 RMS=4.76D+22 Max=4.96D+23 NDo=     1
 LinEq1:  Iter= 76 NonCon=     1 RMS=3.23D+22 Max=6.11D+23 NDo=     1
 LinEq1:  Iter= 77 NonCon=     1 RMS=2.77D+22 Max=4.89D+23 NDo=     1
 LinEq1:  Iter= 78 NonCon=     1 RMS=1.94D+22 Max=2.38D+23 NDo=     1
 LinEq1:  Iter= 79 NonCon=     1 RMS=1.31D+22 Max=1.84D+23 NDo=     1
 LinEq1:  Iter= 80 NonCon=     1 RMS=9.11D+21 Max=1.27D+23 NDo=     1
 LinEq1:  Iter= 81 NonCon=     1 RMS=5.90D+21 Max=4.93D+22 NDo=     1
 LinEq1:  Iter= 82 NonCon=     1 RMS=3.29D+21 Max=3.44D+22 NDo=     1
 LinEq1:  Iter= 83 NonCon=     1 RMS=2.26D+21 Max=1.93D+22 NDo=     1
 LinEq1:  Iter= 84 NonCon=     1 RMS=1.42D+21 Max=1.27D+22 NDo=     1
 LinEq1:  Iter= 85 NonCon=     1 RMS=9.39D+20 Max=1.14D+22 NDo=     1
 LinEq1:  Iter= 86 NonCon=     1 RMS=7.07D+20 Max=7.06D+21 NDo=     1
 LinEq1:  Iter= 87 NonCon=     1 RMS=4.19D+20 Max=3.72D+21 NDo=     1
 LinEq1:  Iter= 88 NonCon=     1 RMS=2.28D+20 Max=2.07D+21 NDo=     1
 LinEq1:  Iter= 89 NonCon=     1 RMS=1.54D+20 Max=1.79D+21 NDo=     1
 LinEq1:  Iter= 90 NonCon=     1 RMS=1.00D+20 Max=8.64D+20 NDo=     1
 LinEq1:  Iter= 91 NonCon=     1 RMS=5.69D+19 Max=6.09D+20 NDo=     1
 LinEq1:  Iter= 92 NonCon=     1 RMS=3.31D+19 Max=4.25D+20 NDo=     1
 LinEq1:  Iter= 93 NonCon=     1 RMS=1.74D+19 Max=2.25D+20 NDo=     1
 LinEq1:  Iter= 94 NonCon=     1 RMS=1.23D+19 Max=1.63D+20 NDo=     1
 LinEq1:  Iter= 95 NonCon=     1 RMS=7.73D+18 Max=1.20D+20 NDo=     1
 LinEq1:  Iter= 96 NonCon=     1 RMS=5.15D+18 Max=4.14D+19 NDo=     1
 LinEq1:  Iter= 97 NonCon=     1 RMS=2.47D+18 Max=2.42D+19 NDo=     1
 LinEq1:  Iter= 98 NonCon=     1 RMS=1.72D+18 Max=2.30D+19 NDo=     1
 LinEq1:  Iter= 99 NonCon=     1 RMS=9.55D+17 Max=9.91D+18 NDo=     1
 LinEq1:  Iter=100 NonCon=     1 RMS=5.57D+17 Max=7.50D+18 NDo=     1
 LinEq1:  Iter=101 NonCon=     1 RMS=3.15D+17 Max=2.78D+18 NDo=     1
 LinEq1:  Iter=102 NonCon=     1 RMS=1.49D+17 Max=1.53D+18 NDo=     1
 LinEq1:  Iter=103 NonCon=     1 RMS=1.05D+17 Max=9.44D+17 NDo=     1
 LinEq1:  Iter=104 NonCon=     1 RMS=5.42D+16 Max=5.31D+17 NDo=     1
 LinEq1:  Iter=105 NonCon=     1 RMS=2.09D+16 Max=1.54D+17 NDo=     1
 LinEq1:  Iter=106 NonCon=     1 RMS=1.06D+16 Max=1.75D+17 NDo=     1
 LinEq1:  Iter=107 NonCon=     1 RMS=5.34D+15 Max=5.51D+16 NDo=     1
 LinEq1:  Iter=108 NonCon=     1 RMS=2.40D+15 Max=2.09D+16 NDo=     1
 LinEq1:  Iter=109 NonCon=     1 RMS=1.21D+15 Max=1.13D+16 NDo=     1
 LinEq1:  Iter=110 NonCon=     1 RMS=6.83D+14 Max=8.17D+15 NDo=     1
 LinEq1:  Iter=111 NonCon=     1 RMS=4.24D+14 Max=3.56D+15 NDo=     1
 LinEq1:  Iter=112 NonCon=     1 RMS=1.83D+14 Max=2.21D+15 NDo=     1
 LinEq1:  Iter=113 NonCon=     1 RMS=1.05D+14 Max=1.72D+15 NDo=     1
 LinEq1:  Iter=114 NonCon=     1 RMS=6.35D+13 Max=6.60D+14 NDo=     1
 LinEq1:  Iter=115 NonCon=     1 RMS=2.41D+13 Max=2.13D+14 NDo=     1
 LinEq1:  Iter=116 NonCon=     1 RMS=1.39D+13 Max=1.50D+14 NDo=     1
 LinEq1:  Iter=117 NonCon=     1 RMS=8.15D+12 Max=9.41D+13 NDo=     1
 LinEq1:  Iter=118 NonCon=     1 RMS=4.53D+12 Max=4.05D+13 NDo=     1
 LinEq1:  Iter=119 NonCon=     1 RMS=2.33D+12 Max=2.74D+13 NDo=     1
 LinEq1:  Iter=120 NonCon=     1 RMS=1.24D+12 Max=1.50D+13 NDo=     1
 LinEq1:  Iter=121 NonCon=     1 RMS=5.80D+11 Max=5.24D+12 NDo=     1
 LinEq1:  Iter=122 NonCon=     1 RMS=2.26D+11 Max=2.07D+12 NDo=     1
 LinEq1:  Iter=123 NonCon=     1 RMS=1.28D+11 Max=1.44D+12 NDo=     1
 LinEq1:  Iter=124 NonCon=     1 RMS=6.32D+10 Max=6.05D+11 NDo=     1
 LinEq1:  Iter=125 NonCon=     1 RMS=3.49D+10 Max=2.50D+11 NDo=     1
 LinEq1:  Iter=126 NonCon=     1 RMS=1.61D+10 Max=1.22D+11 NDo=     1
 LinEq1:  Iter=127 NonCon=     1 RMS=6.12D+09 Max=4.21D+10 NDo=     1
 LinEq1:  Iter=128 NonCon=     1 RMS=2.64D+09 Max=2.98D+10 NDo=     1
 LinEq1:  Iter=129 NonCon=     1 RMS=1.69D+09 Max=1.68D+10 NDo=     1
 LinEq1:  Iter=130 NonCon=     1 RMS=6.25D+08 Max=7.10D+09 NDo=     1
 LinEq1:  Iter=131 NonCon=     1 RMS=3.01D+08 Max=4.94D+09 NDo=     1
 LinEq1:  Iter=132 NonCon=     1 RMS=1.20D+08 Max=1.13D+09 NDo=     1
 LinEq1:  Iter=133 NonCon=     1 RMS=4.19D+07 Max=5.04D+08 NDo=     1
 LinEq1:  Iter=134 NonCon=     1 RMS=2.31D+07 Max=3.36D+08 NDo=     1
 LinEq1:  Iter=135 NonCon=     1 RMS=1.11D+07 Max=1.04D+08 NDo=     1
 LinEq1:  Iter=136 NonCon=     1 RMS=4.98D+06 Max=4.98D+07 NDo=     1
 LinEq1:  Iter=137 NonCon=     1 RMS=1.54D+06 Max=1.60D+07 NDo=     1
 LinEq1:  Iter=138 NonCon=     1 RMS=7.22D+05 Max=1.36D+07 NDo=     1
 LinEq1:  Iter=139 NonCon=     1 RMS=3.05D+05 Max=4.44D+06 NDo=     1
 LinEq1:  Iter=140 NonCon=     1 RMS=1.19D+05 Max=1.65D+06 NDo=     1
 LinEq1:  Iter=141 NonCon=     1 RMS=4.91D+04 Max=6.14D+05 NDo=     1
 LinEq1:  Iter=142 NonCon=     1 RMS=1.63D+04 Max=1.50D+05 NDo=     1
 LinEq1:  Iter=143 NonCon=     1 RMS=6.14D+03 Max=9.83D+04 NDo=     1
 LinEq1:  Iter=144 NonCon=     1 RMS=2.52D+03 Max=3.87D+04 NDo=     1
 LinEq1:  Iter=145 NonCon=     1 RMS=9.43D+02 Max=1.00D+04 NDo=     1
 LinEq1:  Iter=146 NonCon=     1 RMS=2.78D+02 Max=2.00D+03 NDo=     1
 LinEq1:  Iter=147 NonCon=     1 RMS=8.86D+01 Max=6.06D+02 NDo=     1
 LinEq1:  Iter=148 NonCon=     1 RMS=4.10D+01 Max=3.56D+02 NDo=     1
 LinEq1:  Iter=149 NonCon=     1 RMS=1.42D+01 Max=1.07D+02 NDo=     1
 LinEq1:  Iter=150 NonCon=     1 RMS=5.26D+00 Max=5.71D+01 NDo=     1
 LinEq1:  Iter=151 NonCon=     1 RMS=2.16D+00 Max=1.99D+01 NDo=     1
 LinEq1:  Iter=152 NonCon=     1 RMS=6.65D-01 Max=6.16D+00 NDo=     1
 LinEq1:  Iter=153 NonCon=     1 RMS=2.87D-01 Max=3.21D+00 NDo=     1
 LinEq1:  Iter=154 NonCon=     1 RMS=1.06D-01 Max=9.86D-01 NDo=     1
 LinEq1:  Iter=155 NonCon=     1 RMS=3.76D-02 Max=3.10D-01 NDo=     1
 LinEq1:  Iter=156 NonCon=     1 RMS=1.53D-02 Max=1.47D-01 NDo=     1
 LinEq1:  Iter=157 NonCon=     1 RMS=5.76D-03 Max=4.69D-02 NDo=     1
 LinEq1:  Iter=158 NonCon=     1 RMS=2.14D-03 Max=1.91D-02 NDo=     1
 LinEq1:  Iter=159 NonCon=     1 RMS=8.14D-04 Max=6.56D-03 NDo=     1
 LinEq1:  Iter=160 NonCon=     1 RMS=2.33D-04 Max=1.57D-03 NDo=     1
 LinEq1:  Iter=161 NonCon=     1 RMS=5.67D-05 Max=5.62D-04 NDo=     1
 LinEq1:  Iter=162 NonCon=     1 RMS=2.14D-05 Max=3.04D-04 NDo=     1
 LinEq1:  Iter=163 NonCon=     1 RMS=1.08D-05 Max=1.22D-04 NDo=     1
 LinEq1:  Iter=164 NonCon=     1 RMS=3.09D-06 Max=2.16D-05 NDo=     1
 LinEq1:  Iter=165 NonCon=     1 RMS=8.10D-07 Max=9.35D-06 NDo=     1
 LinEq1:  Iter=166 NonCon=     1 RMS=3.10D-07 Max=4.34D-06 NDo=     1
 LinEq1:  Iter=167 NonCon=     1 RMS=9.01D-08 Max=8.70D-07 NDo=     1
 LinEq1:  Iter=168 NonCon=     1 RMS=2.57D-08 Max=3.54D-07 NDo=     1
 LinEq1:  Iter=169 NonCon=     1 RMS=1.04D-08 Max=1.88D-07 NDo=     1
 LinEq1:  Iter=170 NonCon=     1 RMS=3.86D-09 Max=5.38D-08 NDo=     1
 LinEq1:  Iter=171 NonCon=     1 RMS=1.35D-09 Max=1.49D-08 NDo=     1
 LinEq1:  Iter=172 NonCon=     0 RMS=5.03D-10 Max=4.06D-09 NDo=     1
 Linear equations converged to 1.102D-09 1.102D-08 after   172 iterations.
 Angle between quadratic step and gradient=  65.79 degrees.
     ILin= 1 X=0.000D+00 Y=-1.740716990255D+02 DE= 0.00D+00 F= -3.64D-09
     ILin= 2 X=1.000D+00 Y=-1.740716990274D+02 DE=-1.82D-09
 Iteration   6 EE= -174.071699027358     Delta-E=       -0.000000001820 Grad=6.839D-07 Max rot=    0.0000 deg.
 Rotation gradient small -- convergence achieved.
 Orbital symmetries in SymMO:
    1=4    2=1    3=1    4=4    5=1    6=1    7=1    8=4    9=1   10=4
   11=1   12=4   13=3   14=1   15=1   16=4   17=2   18=2   19=3   20=4
   21=1   22=3   23=1   24=4   25=1   26=4   27=1   28=1   29=4   30=1
   31=4   32=3   33=4   34=2   35=3   36=1   37=1   38=1   39=4   40=2
   41=3   42=4   43=4   44=1   45=1   46=4   47=1   48=4   49=1   50=1
   51=1   52=4   53=1   54=4   55=1   56=1   57=4
 Orbital symmetries in SymMO:
    1=4    2=1    3=1    4=4    5=1    6=1    7=1    8=4    9=1   10=4
   11=1   12=4   13=3   14=1   15=1   16=4   17=3   18=2   19=4   20=2
   21=1   22=3   23=1   24=4   25=1   26=4   27=1   28=1   29=4   30=1
   31=4   32=3   33=4   34=3   35=2   36=1   37=1   38=4   39=1   40=2
   41=3   42=4   43=4   44=1   45=1   46=4   47=1   48=4   49=1   50=1
   51=1   52=4   53=1   54=4   55=1   56=1   57=4
 SCF Done:  E(ULC-wHPBE) =  -174.071699027     a.u. after    6 cycles
            Convg  =    0.6839D-06                   347 Fock formations.
              S**2 =  1.7566                  -V/T =  1.9100
 <Sx>= 0.0000 <Sy>= 0.0000 <Sz>= 0.5000 <S**2>= 1.7566 S= 0.9165
 <L.S>= 0.000000000000E+00
 Annihilation of the first spin contaminant:
 S**2 before annihilation     1.7566,   after     0.7721
 Leave Link  508 at Thu Mar  5 13:00:55 2020, MaxMem=  6710886400 cpu:            1834.5 elap:             118.7
 (Enter /opt/ohpc/pub/libs/gaussian/g16-A.03/sandybridge/g16/l601.exe)
 Copying SCF densities to generalized density rwf, IOpCl= 1 IROHF=0.

 **********************************************************************

            Population analysis using the SCF density.

 **********************************************************************

 Orbital symmetries:
 Alpha Orbitals:
       Occupied  (B2) (A1) (A1) (B2) (A1) (A1) (A1) (B2) (A1) (B2)
                 (A1) (B2) (B1) (A1) (A1) (B2) (A2) (A2)
       Virtual   (B1) (B2) (A1) (B1) (A1) (B2) (A1) (B2) (A1) (A1)
                 (B2) (A1) (B2) (B1) (B2) (A2) (B1) (A1) (A1) (A1)
                 (B2) (A2) (B1) (B2) (B2) (A1) (A1) (B2) (A1) (B2)
                 (A1) (A1) (A1) (B2) (A1) (B2) (A1) (A1) (B2)
 Beta  Orbitals:
       Occupied  (B2) (A1) (A1) (B2) (A1) (A1) (A1) (B2) (A1) (B2)
                 (A1) (B2) (B1) (A1) (A1) (B2) (B1)
       Virtual   (A2) (B2) (A2) (A1) (B1) (A1) (B2) (A1) (B2) (A1)
                 (A1) (B2) (A1) (B2) (B1) (B2) (B1) (A2) (A1) (A1)
                 (B2) (A1) (A2) (B1) (B2) (B2) (A1) (A1) (B2) (A1)
                 (B2) (A1) (A1) (A1) (B2) (A1) (B2) (A1) (A1) (B2)
 The electronic state is 2-B1.
 Alpha  occ. eigenvalues --   -9.48130  -9.48128  -9.44400  -9.44392  -9.44245
 Alpha  occ. eigenvalues --   -0.39083  -0.27016  -0.23678  -0.12919  -0.09294
 Alpha  occ. eigenvalues --   -0.07309  -0.00044   0.01519   0.01528   0.03794
 Alpha  occ. eigenvalues --    0.04762   0.14200   0.31395
 Alpha virt. eigenvalues --   -0.04871   0.10319   0.14200   0.15863   0.16102
 Alpha virt. eigenvalues --    0.20821   0.22407   0.23759   0.24805   0.35696
 Alpha virt. eigenvalues --    0.36369   0.45901   0.47287   0.53098   0.54615
 Alpha virt. eigenvalues --    0.60692   0.61082   0.62732   0.65951   0.66453
 Alpha virt. eigenvalues --    0.66489   0.67547   0.69372   0.80181   0.84662
 Alpha virt. eigenvalues --    0.86967   0.88850   0.89686   0.91434   0.96720
 Alpha virt. eigenvalues --    0.97630   1.01789   1.06943   1.12022   1.20345
 Alpha virt. eigenvalues --    1.21623   1.28295   1.48720   1.50528
  Beta  occ. eigenvalues --   -9.47710  -9.47695  -9.44777  -9.43798  -9.43797
  Beta  occ. eigenvalues --   -0.38404  -0.26341  -0.23272  -0.12534  -0.09097
  Beta  occ. eigenvalues --   -0.06947   0.00480   0.01674   0.01908   0.03805
  Beta  occ. eigenvalues --    0.05131   0.15016
  Beta virt. eigenvalues --   -0.07805   0.10790   0.11332   0.14575   0.15341
  Beta virt. eigenvalues --    0.16351   0.21181   0.22361   0.24238   0.24923
  Beta virt. eigenvalues --    0.35914   0.36777   0.46531   0.47559   0.54061
  Beta virt. eigenvalues --    0.55078   0.61677   0.61981   0.63023   0.66147
  Beta virt. eigenvalues --    0.66304   0.67127   0.68766   0.69649   0.80389
  Beta virt. eigenvalues --    0.85233   0.87432   0.88883   0.90344   0.91548
  Beta virt. eigenvalues --    0.96987   0.98141   1.02183   1.07216   1.12570
  Beta virt. eigenvalues --    1.20684   1.21942   1.28435   1.48853   1.50729
          Condensed to atoms (all electrons):
               1          2          3          4          5          6
     1  C    5.748273   0.193727  -0.032686  -0.079785   0.020933   0.108693
     2  C    0.193727   5.199435   0.447407  -0.032093  -0.079785  -0.012060
     3  C   -0.032686   0.447407   4.748675   0.447407  -0.032686   0.001195
     4  C   -0.079785  -0.032093   0.447407   5.199435   0.193727  -0.012060
     5  C    0.020933  -0.079785  -0.032686   0.193727   5.748273   0.108693
     6  H    0.108693  -0.012060   0.001195  -0.012060   0.108693   0.513573
     7  H    0.287730  -0.018869   0.008607   0.005823  -0.046620   0.019276
     8  H   -0.052996   0.319878  -0.029671   0.012359   0.006985   0.002113
     9  H    0.014894  -0.063001   0.348611  -0.063001   0.014894  -0.000876
    10  H    0.006985   0.012359  -0.029671   0.319878  -0.052996   0.002113
    11  H   -0.046620   0.005823   0.008607  -0.018869   0.287730   0.019276
               7          8          9         10         11
     1  C    0.287730  -0.052996   0.014894   0.006985  -0.046620
     2  C   -0.018869   0.319878  -0.063001   0.012359   0.005823
     3  C    0.008607  -0.029671   0.348611  -0.029671   0.008607
     4  C    0.005823   0.012359  -0.063001   0.319878  -0.018869
     5  C   -0.046620   0.006985   0.014894  -0.052996   0.287730
     6  H    0.019276   0.002113  -0.000876   0.002113   0.019276
     7  H    0.530884  -0.004500  -0.000219  -0.000165   0.001227
     8  H   -0.004500   0.581432  -0.008042  -0.000456  -0.000165
     9  H   -0.000219  -0.008042   0.625103  -0.008042  -0.000219
    10  H   -0.000165  -0.000456  -0.008042   0.581432  -0.004500
    11  H    0.001227  -0.000165  -0.000219  -0.004500   0.530884
          Atomic-Atomic Spin Densities.
               1          2          3          4          5          6
     1  C    0.557915  -0.119563   0.028544   0.039976  -0.243695   0.001738
     2  C   -0.119563   0.659337  -0.035637  -0.077351   0.039976   0.000130
     3  C    0.028544  -0.035637  -0.404980  -0.035637   0.028544   0.000139
     4  C    0.039976  -0.077351  -0.035637   0.659337  -0.119563   0.000130
     5  C   -0.243695   0.039976   0.028544  -0.119563   0.557915   0.001738
     6  H    0.001738   0.000130   0.000139   0.000130   0.001738  -0.013784
     7  H   -0.000491   0.000687  -0.000347  -0.000049   0.001001  -0.000337
     8  H   -0.000088   0.000779   0.000657   0.000037  -0.000171  -0.000111
     9  H    0.000156  -0.000407   0.001576  -0.000407   0.000156   0.000023
    10  H   -0.000171   0.000037   0.000657   0.000779  -0.000088  -0.000111
    11  H    0.001001  -0.000049  -0.000347   0.000687  -0.000491  -0.000337
               7          8          9         10         11
     1  C   -0.000491  -0.000088   0.000156  -0.000171   0.001001
     2  C    0.000687   0.000779  -0.000407   0.000037  -0.000049
     3  C   -0.000347   0.000657   0.001576   0.000657  -0.000347
     4  C   -0.000049   0.000037  -0.000407   0.000779   0.000687
     5  C    0.001001  -0.000171   0.000156  -0.000088  -0.000491
     6  H   -0.000337  -0.000111   0.000023  -0.000111  -0.000337
     7  H   -0.010440   0.000116  -0.000006   0.000007   0.000058
     8  H    0.000116  -0.016632   0.000054   0.000014   0.000007
     9  H   -0.000006   0.000054   0.010163   0.000054  -0.000006
    10  H    0.000007   0.000014   0.000054  -0.016632   0.000116
    11  H    0.000058   0.000007  -0.000006   0.000116  -0.010440
 Mulliken charges and spin densities:
               1          2
     1  C   -0.169149   0.265324
     2  C    0.027179   0.467939
     3  C    0.114206  -0.416831
     4  C    0.027179   0.467939
     5  C   -0.169149   0.265324
     6  H    0.250064  -0.010779
     7  H    0.216825  -0.009799
     8  H    0.173062  -0.015338
     9  H    0.139895   0.011357
    10  H    0.173062  -0.015338
    11  H    0.216825  -0.009799
 Sum of Mulliken charges =   1.00000   1.00000
 Mulliken charges and spin densities with hydrogens summed into heavy atoms:
               1          2
     1  C    0.297740   0.244746
     2  C    0.200241   0.452602
     3  C    0.254102  -0.405474
     4  C    0.200241   0.452602
     5  C    0.047676   0.255525
 Electronic spatial extent (au):  <R**2>=            329.0358
 Charge=              1.0000 electrons
 Dipole moment (field-independent basis, Debye):
    X=             -0.0000    Y=             -0.0000    Z=             -1.5298  Tot=              1.5298
 Quadrupole moment (field-independent basis, Debye-Ang):
   XX=            -34.4102   YY=            -21.8221   ZZ=            -19.4028
   XY=              0.0000   XZ=              0.0000   YZ=              0.0000
 Traceless Quadrupole moment (field-independent basis, Debye-Ang):
   XX=             -9.1985   YY=              3.3896   ZZ=              5.8090
   XY=              0.0000   XZ=              0.0000   YZ=              0.0000
 Octapole moment (field-independent basis, Debye-Ang**2):
  XXX=              0.0000  YYY=              0.0000  ZZZ=             -4.9985  XYY=              0.0000
  XXY=              0.0000  XXZ=              0.9757  XZZ=              0.0000  YZZ=              0.0000
  YYZ=             -2.5077  XYZ=             -0.0000
 Hexadecapole moment (field-independent basis, Debye-Ang**3):
 XXXX=            -37.6374 YYYY=           -189.0690 ZZZZ=           -174.6159 XXXY=             -0.0000
 XXXZ=             -0.0000 YYYX=             -0.0000 YYYZ=              0.0000 ZZZX=             -0.0000
 ZZZY=              0.0000 XXYY=            -48.7116 XXZZ=            -46.6103 YYZZ=            -59.3290
 XXYZ=              0.0000 YYXZ=             -0.0000 ZZXY=             -0.0000
 N-N= 1.560127424860D+02 E-N=-7.473607230482D+02  KE= 1.912847800162D+02
 Symmetry A1   KE= 1.107407175205D+02
 Symmetry A2   KE= 2.580132243071D+00
 Symmetry B1   KE= 2.835801573795D+00
 Symmetry B2   KE= 7.512812867888D+01
 Symmetry A1   SP=-9.317226894526D-16
 Symmetry A2   SP= 2.000000000000D+00
 Symmetry B1   SP=-1.000000000000D+00
 Symmetry B2   SP=-6.340278779424D-16
                          Isotropic Fermi Contact Couplings
        Atom                 a.u.       MegaHertz       Gauss      10(-4) cm-1
     1  C(13)              0.00928      10.42975       3.72160       3.47899
     2  C(13)              0.03740      42.04255      15.00183      14.02389
     3  C(13)             -0.04709     -52.93434     -18.88829     -17.65700
     4  C(13)              0.03740      42.04255      15.00183      14.02389
     5  C(13)              0.00928      10.42975       3.72160       3.47899
     6  H(1)              -0.00417     -18.61820      -6.64344      -6.21036
     7  H(1)              -0.00162      -7.22256      -2.57719      -2.40919
     8  H(1)              -0.00306     -13.68425      -4.88288      -4.56457
     9  H(1)               0.00206       9.22457       3.29156       3.07699
    10  H(1)              -0.00306     -13.68425      -4.88288      -4.56457
    11  H(1)              -0.00162      -7.22256      -2.57719      -2.40919
 --------------------------------------------------------
       Center         ----  Spin Dipole Couplings  ----
                      3XX-RR        3YY-RR        3ZZ-RR
 --------------------------------------------------------
     1   Atom        0.372316     -0.196091     -0.176225
     2   Atom        0.506177     -0.259205     -0.246972
     3   Atom       -0.431998      0.223691      0.208307
     4   Atom        0.506177     -0.259205     -0.246972
     5   Atom        0.372316     -0.196091     -0.176225
     6   Atom       -0.030736      0.026012      0.004723
     7   Atom       -0.003914     -0.006637      0.010551
     8   Atom       -0.002522      0.024982     -0.022459
     9   Atom       -0.004855      0.025551     -0.020696
    10   Atom       -0.002522      0.024982     -0.022459
    11   Atom       -0.003914     -0.006637      0.010551
 --------------------------------------------------------
                        XY            XZ            YZ
 --------------------------------------------------------
     1   Atom        0.000000      0.000000      0.003108
     2   Atom        0.000000      0.000000      0.021685
     3   Atom        0.000000      0.000000     -0.000000
     4   Atom        0.000000      0.000000     -0.021685
     5   Atom        0.000000     -0.000000     -0.003108
     6   Atom       -0.000000     -0.000000      0.000000
     7   Atom        0.000000     -0.000000     -0.028979
     8   Atom        0.000000      0.000000      0.030594
     9   Atom        0.000000      0.000000     -0.000000
    10   Atom       -0.000000      0.000000     -0.030594
    11   Atom       -0.000000     -0.000000      0.028979
 --------------------------------------------------------


 ---------------------------------------------------------------------------------
              Anisotropic Spin Dipole Couplings in Principal Axis System
 ---------------------------------------------------------------------------------

       Atom             a.u.   MegaHertz   Gauss  10(-4) cm-1        Axes

              Baa    -0.1966   -26.377    -9.412    -8.799 -0.0000  0.9885 -0.1511
     1 C(13)  Bbb    -0.1758   -23.584    -8.415    -7.867 -0.0000  0.1511  0.9885
              Bcc     0.3723    49.961    17.827    16.665  1.0000  0.0000  0.0000
 
              Baa    -0.2756   -36.985   -13.197   -12.337  0.0000  0.7973 -0.6035
     2 C(13)  Bbb    -0.2306   -30.939   -11.040   -10.320  0.0000  0.6035  0.7973
              Bcc     0.5062    67.924    24.237    22.657  1.0000 -0.0000  0.0000
 
              Baa    -0.4320   -57.970   -20.685   -19.337  1.0000 -0.0000 -0.0000
     3 C(13)  Bbb     0.2083    27.953     9.974     9.324  0.0000  0.0000  1.0000
              Bcc     0.2237    30.017    10.711    10.013  0.0000  1.0000 -0.0000
 
              Baa    -0.2756   -36.985   -13.197   -12.337 -0.0000  0.7973  0.6035
     4 C(13)  Bbb    -0.2306   -30.939   -11.040   -10.320  0.0000 -0.6035  0.7973
              Bcc     0.5062    67.924    24.237    22.657  1.0000  0.0000  0.0000
 
              Baa    -0.1966   -26.377    -9.412    -8.799 -0.0000  0.9885  0.1511
     5 C(13)  Bbb    -0.1758   -23.584    -8.415    -7.867  0.0000 -0.1511  0.9885
              Bcc     0.3723    49.961    17.827    16.665  1.0000  0.0000  0.0000
 
              Baa    -0.0307   -16.399    -5.852    -5.470  1.0000  0.0000  0.0000
     6 H(1)   Bbb     0.0047     2.520     0.899     0.841 -0.0000 -0.0000  1.0000
              Bcc     0.0260    13.879     4.952     4.630 -0.0000  1.0000  0.0000
 
              Baa    -0.0283   -15.083    -5.382    -5.031 -0.0000  0.8014  0.5982
     7 H(1)   Bbb    -0.0039    -2.088    -0.745    -0.697  1.0000 -0.0000  0.0000
              Bcc     0.0322    17.171     6.127     5.728 -0.0000 -0.5982  0.8014
 
              Baa    -0.0375   -19.982    -7.130    -6.665 -0.0000 -0.4400  0.8980
     8 H(1)   Bbb    -0.0025    -1.346    -0.480    -0.449  1.0000 -0.0000  0.0000
              Bcc     0.0400    21.328     7.610     7.114  0.0000  0.8980  0.4400
 
              Baa    -0.0207   -11.042    -3.940    -3.683  0.0000  0.0000  1.0000
     9 H(1)   Bbb    -0.0049    -2.590    -0.924    -0.864  1.0000 -0.0000  0.0000
              Bcc     0.0256    13.633     4.864     4.547 -0.0000  1.0000 -0.0000
 
              Baa    -0.0375   -19.982    -7.130    -6.665  0.0000  0.4400  0.8980
    10 H(1)   Bbb    -0.0025    -1.346    -0.480    -0.449  1.0000  0.0000 -0.0000
              Bcc     0.0400    21.328     7.610     7.114 -0.0000  0.8980 -0.4400
 
              Baa    -0.0283   -15.083    -5.382    -5.031 -0.0000  0.8014 -0.5982
    11 H(1)   Bbb    -0.0039    -2.088    -0.745    -0.697  1.0000  0.0000  0.0000
              Bcc     0.0322    17.171     6.127     5.728 -0.0000  0.5982  0.8014
 

 ---------------------------------------------------------------------------------

 No NMR shielding tensors so no spin-rotation constants.
 Leave Link  601 at Thu Mar  5 13:00:56 2020, MaxMem=  6710886400 cpu:               3.0 elap:               0.2
 (Enter /opt/ohpc/pub/libs/gaussian/g16-A.03/sandybridge/g16/l9999.exe)

 Test job not archived.
 1\1\GINC-CNODE212\SP\ULC-wHPBE\6-31G\C5H6(1+,2)\SMGO234\05-Mar-2020\0\
 \#P uLC-wHPBE/6-31G iop(3/130=0101500000, 3/131=0101500000, 3/119=0898
 500000, 3/120=0898500000) scf=(conver=6,fermi,ndamp=35,noincfock,novar
 acc,vshift=500,xqc)\\H6 C5\\1,2\C,0,0.,0.878804,-0.931542\C,0,0.,1.128
 157,0.423457\C,0,0.,0.,1.240879\C,0,0.,-1.128157,0.423457\C,0,0.,-0.87
 8804,-0.931542\H,0,0.,0.,-1.732269\H,0,0.,1.6083,-1.734053\H,0,0.,2.15
 6626,0.76567\H,0,0.,0.,2.320778\H,0,0.,-2.156626,0.76567\H,0,0.,-1.608
 3,-1.734053\\Version=EM64L-G16RevA.03\State=2-B1\HF=-174.071699\S2=1.7
 56607\S2-1=0.\S2A=0.772055\RMSD=1.840e-08\Dipole=0.,0.,-0.6018757\Quad
 rupole=-6.8388673,2.5200551,4.3188122,0.,0.,0.\PG=C02V [C2(H1C1H1),SGV
 (C4H4)]\\@


 MOM AND DAD WENT TO ALPHA CENTAURI AND ALL
 I GOT WAS THIS DUMB T-SHIRT.
 Job cpu time:       0 days  0 hours 31 minutes 51.4 seconds.
 Elapsed time:       0 days  0 hours  2 minutes  4.0 seconds.
 File lengths (MBytes):  RWF=    272 Int=      0 D2E=      0 Chk=     32 Scr=     32
 Normal termination of Gaussian 16 at Thu Mar  5 13:00:56 2020.
