 Entering Gaussian System, Link 0=g16
 Input=a1b_tune_n3.gjf
 Output=a1b_tune_n3.log
 Initial command:
 /opt/ohpc/pub/libs/gaussian/g16-A.03/sandybridge/g16/l1.exe "/scratch/smgo234/Ocelot/test/a1b/tuning_a1b_acycle2/Gau-84734.inp" -scrdir="/scratch/smgo234/Ocelot/test/a1b/tuning_a1b_acycle2/"
 Entering Link 1 = /opt/ohpc/pub/libs/gaussian/g16-A.03/sandybridge/g16/l1.exe PID=     84735.
  
 Copyright (c) 1988,1990,1992,1993,1995,1998,2003,2009,2016,
            Gaussian, Inc.  All Rights Reserved.
  
 This is part of the Gaussian(R) 16 program.  It is based on
 the Gaussian(R) 09 system (copyright 2009, Gaussian, Inc.),
 the Gaussian(R) 03 system (copyright 2003, Gaussian, Inc.),
 the Gaussian(R) 98 system (copyright 1998, Gaussian, Inc.),
 the Gaussian(R) 94 system (copyright 1995, Gaussian, Inc.),
 the Gaussian 92(TM) system (copyright 1992, Gaussian, Inc.),
 the Gaussian 90(TM) system (copyright 1990, Gaussian, Inc.),
 the Gaussian 88(TM) system (copyright 1988, Gaussian, Inc.),
 the Gaussian 86(TM) system (copyright 1986, Carnegie Mellon
 University), and the Gaussian 82(TM) system (copyright 1983,
 Carnegie Mellon University). Gaussian is a federally registered
 trademark of Gaussian, Inc.
  
 This software contains proprietary and confidential information,
 including trade secrets, belonging to Gaussian, Inc.
  
 This software is provided under written license and may be
 used, copied, transmitted, or stored only in accord with that
 written license.
  
 The following legend is applicable only to US Government
 contracts under FAR:
  
                    RESTRICTED RIGHTS LEGEND
  
 Use, reproduction and disclosure by the US Government is
 subject to restrictions as set forth in subparagraphs (a)
 and (c) of the Commercial Computer Software - Restricted
 Rights clause in FAR 52.227-19.
  
 Gaussian, Inc.
 340 Quinnipiac St., Bldg. 40, Wallingford CT 06492
  
  
 ---------------------------------------------------------------
 Warning -- This program may not be used in any manner that
 competes with the business of Gaussian, Inc. or will provide
 assistance to any competitor of Gaussian, Inc.  The licensee
 of this program is prohibited from giving any competitor of
 Gaussian, Inc. access to this program.  By using this program,
 the user acknowledges that Gaussian, Inc. is engaged in the
 business of creating and licensing software in the field of
 computational chemistry and represents and warrants to the
 licensee that it is not a competitor of Gaussian, Inc. and that
 it will not use this program in any manner prohibited above.
 ---------------------------------------------------------------
  

 Cite this work as:
 Gaussian 16, Revision A.03,
 M. J. Frisch, G. W. Trucks, H. B. Schlegel, G. E. Scuseria, 
 M. A. Robb, J. R. Cheeseman, G. Scalmani, V. Barone, 
 G. A. Petersson, H. Nakatsuji, X. Li, M. Caricato, A. V. Marenich, 
 J. Bloino, B. G. Janesko, R. Gomperts, B. Mennucci, H. P. Hratchian, 
 J. V. Ortiz, A. F. Izmaylov, J. L. Sonnenberg, D. Williams-Young, 
 F. Ding, F. Lipparini, F. Egidi, J. Goings, B. Peng, A. Petrone, 
 T. Henderson, D. Ranasinghe, V. G. Zakrzewski, J. Gao, N. Rega, 
 G. Zheng, W. Liang, M. Hada, M. Ehara, K. Toyota, R. Fukuda, 
 J. Hasegawa, M. Ishida, T. Nakajima, Y. Honda, O. Kitao, H. Nakai, 
 T. Vreven, K. Throssell, J. A. Montgomery, Jr., J. E. Peralta, 
 F. Ogliaro, M. J. Bearpark, J. J. Heyd, E. N. Brothers, K. N. Kudin, 
 V. N. Staroverov, T. A. Keith, R. Kobayashi, J. Normand, 
 K. Raghavachari, A. P. Rendell, J. C. Burant, S. S. Iyengar, 
 J. Tomasi, M. Cossi, J. M. Millam, M. Klene, C. Adamo, R. Cammi, 
 J. W. Ochterski, R. L. Martin, K. Morokuma, O. Farkas, 
 J. B. Foresman, and D. J. Fox, Gaussian, Inc., Wallingford CT, 2016.
 
 ******************************************
 Gaussian 16:  EM64L-G16RevA.03 25-Dec-2016
                 5-Mar-2020 
 ******************************************
 %mem=50GB
 %nproc=16
 Will use up to   16 processors via shared memory.
 ----------------------------------------------------------------------
 #P uLC-wHPBE/6-31G iop(3/130=0101500000, 3/131=0101500000, 3/119=08985
 00000, 3/120=0898500000) scf=(conver=6,fermi,ndamp=35,noincfock,novara
 cc,vshift=500,xqc)
 ----------------------------------------------------------------------
 1/38=1,172=1/1;
 2/12=2,17=6,18=5,40=1/2;
 3/5=1,6=6,11=2,25=1,30=1,74=-71,116=2,119=898500000,120=898500000,130=101500000,131=101500000/1,2,3;
 4//1;
 5/5=100002,6=6,8=3,10=500,13=1,18=-1,22=13,38=1,93=35/2,8;
 6/7=2,8=2,9=2,10=2,28=1/1;
 99/5=1,9=1/99;
 Leave Link    1 at Thu Mar  5 12:54:17 2020, MaxMem=  6710886400 cpu:              19.1 elap:               1.3
 (Enter /opt/ohpc/pub/libs/gaussian/g16-A.03/sandybridge/g16/l101.exe)
 -----
 H6 C5
 -----
 Symbolic Z-matrix:
 Charge =  0 Multiplicity = 1
 C                     0.        0.8788   -0.93154 
 C                     0.        1.12816   0.42346 
 C                     0.        0.        1.24088 
 C                     0.       -1.12816   0.42346 
 C                     0.       -0.8788   -0.93154 
 H                     0.        0.       -1.73227 
 H                     0.        1.6083   -1.73405 
 H                     0.        2.15663   0.76567 
 H                     0.        0.        2.32078 
 H                     0.       -2.15663   0.76567 
 H                     0.       -1.6083   -1.73405 
 
 ITRead=  0  0  0  0  0  0  0  0  0  0  0
 MicOpt= -1 -1 -1 -1 -1 -1 -1 -1 -1 -1 -1
 NAtoms=     11 NQM=       11 NQMF=       0 NMMI=      0 NMMIF=      0
                NMic=       0 NMicF=      0.
                    Isotopes and Nuclear Properties:
 (Nuclear quadrupole moments (NQMom) in fm**2, nuclear magnetic moments (NMagM)
  in nuclear magnetons)

  Atom         1           2           3           4           5           6           7           8           9          10
 IAtWgt=          12          12          12          12          12           1           1           1           1           1
 AtmWgt=  12.0000000  12.0000000  12.0000000  12.0000000  12.0000000   1.0078250   1.0078250   1.0078250   1.0078250   1.0078250
 NucSpn=           0           0           0           0           0           1           1           1           1           1
 AtZEff=  -0.0000000  -0.0000000  -0.0000000  -0.0000000  -0.0000000  -0.0000000  -0.0000000  -0.0000000  -0.0000000  -0.0000000
 NQMom=    0.0000000   0.0000000   0.0000000   0.0000000   0.0000000   0.0000000   0.0000000   0.0000000   0.0000000   0.0000000
 NMagM=    0.0000000   0.0000000   0.0000000   0.0000000   0.0000000   2.7928460   2.7928460   2.7928460   2.7928460   2.7928460
 AtZNuc=   6.0000000   6.0000000   6.0000000   6.0000000   6.0000000   1.0000000   1.0000000   1.0000000   1.0000000   1.0000000

  Atom        11
 IAtWgt=           1
 AtmWgt=   1.0078250
 NucSpn=           1
 AtZEff=  -0.0000000
 NQMom=    0.0000000
 NMagM=    2.7928460
 AtZNuc=   1.0000000
 Leave Link  101 at Thu Mar  5 12:54:17 2020, MaxMem=  6710886400 cpu:               2.8 elap:               0.2
 (Enter /opt/ohpc/pub/libs/gaussian/g16-A.03/sandybridge/g16/l202.exe)
                          Input orientation:                          
 ---------------------------------------------------------------------
 Center     Atomic      Atomic             Coordinates (Angstroms)
 Number     Number       Type             X           Y           Z
 ---------------------------------------------------------------------
      1          6           0        0.000000    0.878804   -0.931542
      2          6           0        0.000000    1.128157    0.423457
      3          6           0        0.000000    0.000000    1.240879
      4          6           0        0.000000   -1.128157    0.423457
      5          6           0        0.000000   -0.878804   -0.931542
      6          1           0        0.000000    0.000000   -1.732269
      7          1           0        0.000000    1.608300   -1.734053
      8          1           0        0.000000    2.156626    0.765670
      9          1           0        0.000000    0.000000    2.320778
     10          1           0        0.000000   -2.156626    0.765670
     11          1           0        0.000000   -1.608300   -1.734053
 ---------------------------------------------------------------------
                    Distance matrix (angstroms):
                    1          2          3          4          5
     1  C    0.000000
     2  C    1.377752   0.000000
     3  C    2.343440   1.393168   0.000000
     4  C    2.421552   2.256314   1.393168   0.000000
     5  C    1.757608   2.421552   2.343440   1.377752   0.000000
     6  H    1.188890   2.433083   2.973148   2.433083   1.188890
     7  H    1.084522   2.210291   3.381841   3.484687   2.613371
     8  H    2.124466   1.083909   2.208361   3.302561   3.477695
     9  H    3.368959   2.207389   1.079899   2.207389   3.368959
    10  H    3.477695   3.302561   2.208361   1.083909   2.124466
    11  H    2.613371   3.484687   3.381841   2.210291   1.084522
                    6          7          8          9         10
     6  H    0.000000
     7  H    1.608301   0.000000
     8  H    3.300111   2.559155   0.000000
     9  H    4.053047   4.362142   2.658834   0.000000
    10  H    3.300111   4.519213   4.313252   2.658834   0.000000
    11  H    1.608301   3.216600   4.519213   4.362142   2.559155
                   11
    11  H    0.000000
 Stoichiometry    C5H6
 Framework group  C2V[C2(HCH),SGV(C4H4)]
 Deg. of freedom    10
 Full point group                 C2V     NOp   4
 Largest Abelian subgroup         C2V     NOp   4
 Largest concise Abelian subgroup C2      NOp   2
                         Standard orientation:                         
 ---------------------------------------------------------------------
 Center     Atomic      Atomic             Coordinates (Angstroms)
 Number     Number       Type             X           Y           Z
 ---------------------------------------------------------------------
      1          6           0        0.000000    0.878804   -0.931542
      2          6           0        0.000000    1.128157    0.423457
      3          6           0        0.000000   -0.000000    1.240879
      4          6           0       -0.000000   -1.128157    0.423457
      5          6           0       -0.000000   -0.878804   -0.931542
      6          1           0       -0.000000    0.000000   -1.732269
      7          1           0        0.000000    1.608300   -1.734053
      8          1           0        0.000000    2.156626    0.765670
      9          1           0        0.000000   -0.000000    2.320778
     10          1           0       -0.000000   -2.156626    0.765670
     11          1           0       -0.000000   -1.608300   -1.734053
 ---------------------------------------------------------------------
 Rotational constants (GHZ):           8.5259551           7.9375455           4.1106177
 Leave Link  202 at Thu Mar  5 12:54:17 2020, MaxMem=  6710886400 cpu:               0.6 elap:               0.1
 (Enter /opt/ohpc/pub/libs/gaussian/g16-A.03/sandybridge/g16/l301.exe)
 Standard basis: 6-31G (6D, 7F)
 Ernie: Thresh=  0.10000D-02 Tol=  0.10000D-05 Strict=F.
 There are    27 symmetry adapted cartesian basis functions of A1  symmetry.
 There are     4 symmetry adapted cartesian basis functions of A2  symmetry.
 There are     6 symmetry adapted cartesian basis functions of B1  symmetry.
 There are    20 symmetry adapted cartesian basis functions of B2  symmetry.
 There are    27 symmetry adapted basis functions of A1  symmetry.
 There are     4 symmetry adapted basis functions of A2  symmetry.
 There are     6 symmetry adapted basis functions of B1  symmetry.
 There are    20 symmetry adapted basis functions of B2  symmetry.
    57 basis functions,   134 primitive gaussians,    57 cartesian basis functions
    18 alpha electrons       18 beta electrons
       nuclear repulsion energy       156.0127424860 Hartrees.
 IExCor=33909 DFT=T Ex+Corr=LC-wHPBE ExCW=0 ScaHFX=  1.000000
 ScaDFX=  1.000000  1.000000  1.000000  1.000000 ScalE2=  1.000000  1.000000
 IRadAn=      5 IRanWt=     -1 IRanGd=            0 ICorTp=0 IEmpDi=  4
 HFx  wShort=  0.000000 wLong=  0.400000 cFull=  0.000000 cShort=  0.000000 cLong= -0.898500
 DFx  wShort=  0.000000 wLong=  0.400000 cFull=  0.000000 cShort=  1.000000 cLong= -0.898500
 NAtoms=   11 NActive=   11 NUniq=    7 SFac= 2.47D+00 NAtFMM=   60 NAOKFM=F Big=F
 Integral buffers will be    131072 words long.
 Raffenetti 2 integral format.
 Two-electron integral symmetry is turned on.
 Leave Link  301 at Thu Mar  5 12:54:17 2020, MaxMem=  6710886400 cpu:               0.8 elap:               0.1
 (Enter /opt/ohpc/pub/libs/gaussian/g16-A.03/sandybridge/g16/l302.exe)
 NPDir=0 NMtPBC=     1 NCelOv=     1 NCel=       1 NClECP=     1 NCelD=      1
         NCelK=      1 NCelE2=     1 NClLst=     1 CellRange=     0.0.
 One-electron integrals computed using PRISM.
 One-electron integral symmetry used in STVInt
 NBasis=    57 RedAO= T EigKep=  1.84D-03  NBF=    27     4     6    20
 NBsUse=    57 1.00D-06 EigRej= -1.00D+00 NBFU=    27     4     6    20
 Precomputing XC quadrature grid using
 IXCGrd= 4 IRadAn=           5 IRanWt=          -1 IRanGd=           0 AccXCQ= 0.00D+00.
 Generated NRdTot=       0 NPtTot=           0 NUsed=           0 NTot=          32
 NSgBfM=    57    57    57    57    57 MxSgAt=    11 MxSgA2=    11.
 Leave Link  302 at Thu Mar  5 12:54:17 2020, MaxMem=  6710886400 cpu:               2.0 elap:               0.1
 (Enter /opt/ohpc/pub/libs/gaussian/g16-A.03/sandybridge/g16/l303.exe)
 DipDrv:  MaxL=1.
 Leave Link  303 at Thu Mar  5 12:54:17 2020, MaxMem=  6710886400 cpu:               0.4 elap:               0.0
 (Enter /opt/ohpc/pub/libs/gaussian/g16-A.03/sandybridge/g16/l401.exe)
 ExpMin= 1.61D-01 ExpMax= 3.05D+03 ExpMxC= 4.57D+02 IAcc=3 IRadAn=         5 AccDes= 0.00D+00
 Harris functional with IExCor=33909 and IRadAn=       5 diagonalized for initial guess.
 HarFok:  IExCor=33909 AccDes= 0.00D+00 IRadAn=         5 IDoV= 1 UseB2=F ITyADJ=14
 ICtDFT=  3500011 ScaDFX=  1.000000  1.000000  1.000000  1.000000
 FoFCou: FMM=F IPFlag=           0 FMFlag=      100000 FMFlg1=           0
         NFxFlg=           0 DoJE=T BraDBF=F KetDBF=T FulRan=T
         wScrn=  0.000000 ICntrl=       500 IOpCl=  0 I1Cent=   200000004 NGrid=           0
         NMat0=    1 NMatS0=      1 NMatT0=    0 NMatD0=    1 NMtDS0=    0 NMtDT0=    0
 Petite list used in FoFCou.
 Harris En= -180.463018641287    
 JPrj=0 DoOrth=F DoCkMO=F.
 Initial guess orbital symmetries:
 Alpha Orbitals:
       Occupied  (A1) (B2) (A1) (B2) (A1) (A1) (A1) (B2) (A1) (B2)
                 (A1) (B2) (A1) (B2) (A1) (B1) (A2) (B1)
       Virtual   (A2) (B2) (B1) (A1) (A1) (B2) (A1) (B2) (A1) (A1)
                 (B2) (B2) (A1) (B1) (B2) (A2) (B1) (A1) (B2) (A1)
                 (A1) (A2) (B1) (B2) (B2) (A1) (B2) (A1) (A1) (B2)
                 (A1) (A1) (A1) (B2) (A1) (B2) (A1) (A1) (B2)
 Beta  Orbitals:
       Occupied  (A1) (B2) (A1) (B2) (A1) (A1) (A1) (B2) (A1) (B2)
                 (A1) (B2) (A1) (B2) (A1) (B1) (A2) (B1)
       Virtual   (A2) (B2) (B1) (A1) (A1) (B2) (A1) (B2) (A1) (A1)
                 (B2) (B2) (A1) (B1) (B2) (A2) (B1) (A1) (B2) (A1)
                 (A1) (A2) (B1) (B2) (B2) (A1) (B2) (A1) (A1) (B2)
                 (A1) (A1) (A1) (B2) (A1) (B2) (A1) (A1) (B2)
 The electronic state of the initial guess is 1-A1.
 Initial guess <Sx>= 0.0000 <Sy>= 0.0000 <Sz>= 0.0000 <S**2>=-0.0000 S=-0.0000
 Leave Link  401 at Thu Mar  5 12:54:18 2020, MaxMem=  6710886400 cpu:               3.5 elap:               0.3
 (Enter /opt/ohpc/pub/libs/gaussian/g16-A.03/sandybridge/g16/l502.exe)
 Keep R1 and R2 ints in memory in symmetry-blocked form, NReq=16815681.
 FoFCou: FMM=F IPFlag=           0 FMFlag=           0 FMFlg1=           0
         NFxFlg=           0 DoJE=F BraDBF=F KetDBF=F FulRan=T
         wScrn=  0.000000 ICntrl=       600 IOpCl=  0 I1Cent=           0 NGrid=           0
         NMat0=    1 NMatS0=   1653 NMatT0=    0 NMatD0=    1 NMtDS0=    0 NMtDT0=    0
 Petite list used in FoFCou.
 UHF open shell SCF:
 Using DIIS extrapolation, IDIIS=    10.
 NGot=  6710886400 LenX=  6710059561 LenY=  6710055871
 Requested convergence on RMS density matrix=1.00D-06 within  32 cycles.
 Requested convergence on MAX density matrix=1.00D-04.
 Requested convergence on             energy=1.00D-04.
 Virtual orbitals will be shifted by   0.500 hartree.
 No special actions if energy rises.
 Dynamic level shift is on during FON iterations.

 Cycle   1  Pass 1  IDiag  1:
 E= -173.940953655502    
 DIIS: error= 3.82D-02 at cycle   1 NSaved=   1.
 NSaved= 1 IEnMin= 1 EnMin= -173.940953655502     IErMin= 1 ErrMin= 3.82D-02
 ErrMax= 3.82D-02  0.00D+00 EMaxC= 1.00D+00 BMatC= 3.67D-01 BMatP= 3.67D-01
 IDIUse=1 WtCom= 1.00D+00 WtEn= 0.00D+00
 Coeff-Com:  0.100D+01
 Coeff:      0.100D+01
 Gap=    -0.071 Goal=   None    Shift=    0.500
 T= 1640. Gap= 0.385 NK=0 IS=   19 IE=   57 IFin=   18
          NO(<0.9)=   0  NV(>0.1)=   0     18.00e < EF      0.00e >EF  Err=0.0D+00
 Gap=    -0.071 Goal=   None    Shift=    0.500
 T= 1640. Gap= 0.385 NK=0 IS=   19 IE=   57 IFin=   18
          NO(<0.9)=   0  NV(>0.1)=   0     18.00e < EF      0.00e >EF  Err=0.0D+00
 GapD=   -0.071 DampG=0.250 DampE=0.500 DampFc=0.1250 IDamp=-1.
 Damping current iteration by 1.25D-01
 RMSDP=2.54D-01 MaxDP=5.68D+00              OVMax= 1.47D-01

 Cycle   2  Pass 1  IDiag  1:
 E= -174.008893156331     Delta-E=       -0.067939500829 Rises=F Damp=T
 DIIS: error= 2.63D-02 at cycle   2 NSaved=   2.
 NSaved= 2 IEnMin= 2 EnMin= -174.008893156331     IErMin= 2 ErrMin= 2.63D-02
 ErrMax= 2.63D-02  0.00D+00 EMaxC= 1.00D+00 BMatC= 1.48D-01 BMatP= 3.67D-01
 IDIUse=1 WtCom= 1.00D+00 WtEn= 0.00D+00
 Coeff-Com: -0.145D+01 0.245D+01
 Coeff:     -0.145D+01 0.245D+01
 Gap=     0.029 Goal=   None    Shift=    0.500
 T= 1575. Gap= 0.431 NK=0 IS=   19 IE=   57 IFin=   18
          NO(<0.9)=   0  NV(>0.1)=   0     18.00e < EF      0.00e >EF  Err=0.0D+00
 Gap=     0.029 Goal=   None    Shift=    0.500
 T= 1575. Gap= 0.431 NK=0 IS=   19 IE=   57 IFin=   18
          NO(<0.9)=   0  NV(>0.1)=   0     18.00e < EF      0.00e >EF  Err=0.0D+00
 GapD=    0.029 DampG=0.250 DampE=0.500 DampFc=0.1250 IDamp=-1.
 Damping current iteration by 1.25D-01
 RMSDP=4.22D-02 MaxDP=4.92D-01 DE=-6.79D-02 OVMax= 1.40D-01

 Cycle   3  Pass 1  IDiag  1:
 E= -173.995317823365     Delta-E=        0.013575332965 Rises=F Damp=T
 DIIS: error= 1.91D-02 at cycle   3 NSaved=   3.
 NSaved= 3 IEnMin= 2 EnMin= -174.008893156331     IErMin= 3 ErrMin= 1.91D-02
 ErrMax= 1.91D-02  0.00D+00 EMaxC= 1.00D+00 BMatC= 6.93D-02 BMatP= 1.48D-01
 IDIUse=1 WtCom= 1.00D+00 WtEn= 0.00D+00
 Coeff-Com: -0.119D+01 0.180D+01 0.396D+00
 Coeff:     -0.119D+01 0.180D+01 0.396D+00
 Gap=     0.004 Goal=   None    Shift=    0.000
 T= 1451. Gap= 0.028 NK=0 IS=    1 IE=   57 IFin=   21
          NO(<0.9)=   0  NV(>0.1)=   0     17.95e < EF      0.05e >EF  Err=7.1D-15
 Gap=     0.004 Goal=   None    Shift=    0.000
 T= 1451. Gap= 0.028 NK=0 IS=    1 IE=   57 IFin=   21
          NO(<0.9)=   0  NV(>0.1)=   0     17.95e < EF      0.05e >EF  Err=3.6D-15
 GapD=    0.004 DampG=0.250 DampE=0.500 DampFc=0.1250 IDamp=-1.
 Damping current iteration by 1.25D-01
 RMSDP=3.50D-02 MaxDP=6.29D-01 DE= 1.36D-02 OVMax= 5.95D-01

 Cycle   4  Pass 1  IDiag  1:
 E= -174.011659679570     Delta-E=       -0.016341856205 Rises=F Damp=T
 DIIS: error= 1.61D-02 at cycle   4 NSaved=   4.
 NSaved= 4 IEnMin= 4 EnMin= -174.011659679570     IErMin= 4 ErrMin= 1.61D-02
 ErrMax= 1.61D-02  0.00D+00 EMaxC= 1.00D+00 BMatC= 4.80D-02 BMatP= 6.93D-02
 IDIUse=1 WtCom= 1.00D+00 WtEn= 0.00D+00
 Coeff-Com: -0.797D+00 0.987D+00-0.165D+01 0.246D+01
 Coeff:     -0.797D+00 0.987D+00-0.165D+01 0.246D+01
 Gap=     0.000 Goal=   None    Shift=    0.500
 T= 1267. Gap= 0.500 NK=0 IS=   19 IE=   57 IFin=   18
          NO(<0.9)=   0  NV(>0.1)=   0     18.00e < EF      0.00e >EF  Err=0.0D+00
 Gap=     0.000 Goal=   None    Shift=    0.500
 T= 1267. Gap= 0.500 NK=0 IS=   19 IE=   57 IFin=   18
          NO(<0.9)=   0  NV(>0.1)=   0     18.00e < EF      0.00e >EF  Err=0.0D+00
 GapD=    0.000 DampG=0.250 DampE=0.500 DampFc=0.1250 IDamp=-1.
 Damping current iteration by 1.25D-01
 RMSDP=2.93D-02 MaxDP=5.47D-01 DE=-1.63D-02 OVMax= 2.95D-02

 Cycle   5  Pass 1  IDiag  1:
 E= -174.023041906812     Delta-E=       -0.011382227242 Rises=F Damp=T
 DIIS: error= 1.38D-02 at cycle   5 NSaved=   5.
 NSaved= 5 IEnMin= 5 EnMin= -174.023041906812     IErMin= 5 ErrMin= 1.38D-02
 ErrMax= 1.38D-02  0.00D+00 EMaxC= 1.00D+00 BMatC= 3.71D-02 BMatP= 4.80D-02
 IDIUse=1 WtCom= 1.00D+00 WtEn= 0.00D+00
 Coeff-Com: -0.582D+00 0.485D+00 0.178D+01-0.610D+01 0.541D+01
 Coeff:     -0.582D+00 0.485D+00 0.178D+01-0.610D+01 0.541D+01
 Gap=     0.016 Goal=   None    Shift=    0.500
 T= 1131. Gap= 0.514 NK=0 IS=   19 IE=   57 IFin=   18
          NO(<0.9)=   0  NV(>0.1)=   0     18.00e < EF      0.00e >EF  Err=0.0D+00
 Gap=     0.016 Goal=   None    Shift=    0.500
 T= 1131. Gap= 0.514 NK=0 IS=   19 IE=   57 IFin=   18
          NO(<0.9)=   0  NV(>0.1)=   0     18.00e < EF      0.00e >EF  Err=0.0D+00
 GapD=    0.016 DampG=0.250 DampE=0.500 DampFc=0.1250 IDamp=-1.
 Damping current iteration by 1.25D-01
 RMSDP=8.23D-02 MaxDP=9.23D-01 DE=-1.14D-02 OVMax= 1.59D-02

 Cycle   6  Pass 1  IDiag  1:
 E= -174.034929545879     Delta-E=       -0.011887639067 Rises=F Damp=T
 DIIS: error= 1.14D-02 at cycle   6 NSaved=   6.
 NSaved= 6 IEnMin= 6 EnMin= -174.034929545879     IErMin= 6 ErrMin= 1.14D-02
 ErrMax= 1.14D-02  0.00D+00 EMaxC= 1.00D+00 BMatC= 2.54D-02 BMatP= 3.71D-02
 IDIUse=1 WtCom= 1.00D+00 WtEn= 0.00D+00
 Coeff-Com: -0.546D+00 0.494D+00 0.187D+01-0.641D+01 0.527D+01 0.321D+00
 Coeff:     -0.546D+00 0.494D+00 0.187D+01-0.641D+01 0.527D+01 0.321D+00
 Gap=     0.006 Goal=   None    Shift=    0.500
 T= 1029. Gap= 0.506 NK=0 IS=   19 IE=   57 IFin=   18
          NO(<0.9)=   0  NV(>0.1)=   0     18.00e < EF      0.00e >EF  Err=0.0D+00
 Gap=     0.006 Goal=   None    Shift=    0.500
 T= 1029. Gap= 0.506 NK=0 IS=   19 IE=   57 IFin=   18
          NO(<0.9)=   0  NV(>0.1)=   0     18.00e < EF      0.00e >EF  Err=0.0D+00
 GapD=    0.006 DampG=0.250 DampE=0.500 DampFc=0.1250 IDamp=-1.
 Damping current iteration by 1.25D-01
 RMSDP=7.23D-02 MaxDP=8.05D-01 DE=-1.19D-02 OVMax= 1.14D-02

 Cycle   7  Pass 1  IDiag  1:
 E= -174.030611252044     Delta-E=        0.004318293835 Rises=F Damp=T
 DIIS: error= 9.64D-03 at cycle   7 NSaved=   7.
 NSaved= 7 IEnMin= 6 EnMin= -174.034929545879     IErMin= 7 ErrMin= 9.64D-03
 ErrMax= 9.64D-03  0.00D+00 EMaxC= 1.00D+00 BMatC= 2.18D-02 BMatP= 2.54D-02
 IDIUse=1 WtCom= 1.00D+00 WtEn= 0.00D+00
 Coeff-Com: -0.539D+00 0.469D+00 0.186D+01-0.643D+01 0.621D+01-0.157D+01
 Coeff-Com:  0.994D+00
 Coeff:     -0.539D+00 0.469D+00 0.186D+01-0.643D+01 0.621D+01-0.157D+01
 Coeff:      0.994D+00
 Gap=     0.006 Goal=   None    Shift=    0.000
 T=  927. Gap= 0.006 NK=0 IS=   17 IE=   57 IFin=   21
          NO(<0.9)=   1  NV(>0.1)=   1     17.70e < EF      0.30e >EF  Err=3.6D-15
 Gap=     0.006 Goal=   None    Shift=    0.000
 T=  927. Gap= 0.006 NK=0 IS=   17 IE=   57 IFin=   21
          NO(<0.9)=   1  NV(>0.1)=   1     17.70e < EF      0.30e >EF  Err=0.0D+00
 GapD=    0.006 DampG=0.250 DampE=1.000 DampFc=0.2500 IDamp=-1.
 Damping current iteration by 2.50D-01
 RMSDP=5.85D-02 MaxDP=6.44D-01 DE= 4.32D-03 OVMax= 1.85D-01

 Cycle   8  Pass 1  IDiag  1:
 E= -174.004718705704     Delta-E=        0.025892546340 Rises=F Damp=T
 DIIS: error= 9.54D-03 at cycle   8 NSaved=   8.
 NSaved= 8 IEnMin= 6 EnMin= -174.034929545879     IErMin= 8 ErrMin= 9.54D-03
 ErrMax= 9.54D-03  0.00D+00 EMaxC= 1.00D+00 BMatC= 2.36D-02 BMatP= 2.18D-02
 IDIUse=1 WtCom= 1.00D+00 WtEn= 0.00D+00
 Coeff-Com: -0.502D+00 0.432D+00 0.119D+01-0.484D+01 0.443D+01 0.138D+01
 Coeff-Com: -0.198D+01 0.893D+00
 Coeff:     -0.502D+00 0.432D+00 0.119D+01-0.484D+01 0.443D+01 0.138D+01
 Coeff:     -0.198D+01 0.893D+00
 Gap=     0.002 Goal=   None    Shift=    0.000
 T=  849. Gap= 0.002 NK=0 IS=   17 IE=   57 IFin=   22
          NO(<0.9)=   1  NV(>0.1)=   1     17.56e < EF      0.44e >EF  Err=7.1D-15
 Gap=     0.002 Goal=   None    Shift=    0.000
 T=  849. Gap= 0.002 NK=0 IS=   17 IE=   57 IFin=   22
          NO(<0.9)=   1  NV(>0.1)=   1     17.56e < EF      0.44e >EF  Err=3.6D-15
 GapD=    0.002 DampG=0.250 DampE=1.000 DampFc=0.2500 IDamp=-1.
 Damping current iteration by 2.50D-01
 RMSDP=1.89D-02 MaxDP=2.73D-01 DE= 2.59D-02 OVMax= 3.35D-01

 Cycle   9  Pass 1  IDiag  1:
 E= -173.993308034873     Delta-E=        0.011410670831 Rises=F Damp=T
 DIIS: error= 1.57D-02 at cycle   9 NSaved=   9.
 NSaved= 9 IEnMin= 6 EnMin= -174.034929545879     IErMin= 8 ErrMin= 9.54D-03
 ErrMax= 1.57D-02  0.00D+00 EMaxC= 1.00D+00 BMatC= 3.70D-02 BMatP= 2.18D-02
 IDIUse=1 WtCom= 1.00D+00 WtEn= 0.00D+00
 Large coefficients: NSaved=  9 BigCof=   12.02 CofMax=   10.00 Det=-2.57D-06
 Inversion failed.  Reducing to  8 matrices.
 Large coefficients: NSaved=  8 BigCof=   24.11 CofMax=   10.00 Det=-3.64D-06
 Inversion failed.  Reducing to  7 matrices.
 Large coefficients: NSaved=  7 BigCof=   18.61 CofMax=   10.00 Det=-3.81D-06
 Inversion failed.  Reducing to  6 matrices.
 Large coefficients: NSaved=  6 BigCof=   19.87 CofMax=   10.00 Det=-5.40D-06
 Inversion failed.  Reducing to  5 matrices.
 Large coefficients: NSaved=  5 BigCof=   30.91 CofMax=   10.00 Det=-5.80D-06
 Inversion failed.  Reducing to  4 matrices.
 Coeff-Com:  0.243D+01-0.325D+01 0.169D+01 0.136D+00
 Coeff:      0.243D+01-0.325D+01 0.169D+01 0.136D+00
 Gap=     0.019 Goal=   None    Shift=    0.000
 T=  600. Gap= 0.013 NK=0 IS=   18 IE=   57 IFin=   19
          NO(<0.9)=   0  NV(>0.1)=   0     17.97e < EF      0.03e >EF  Err=0.0D+00
 Gap=     0.019 Goal=   None    Shift=    0.000
 T=  600. Gap= 0.013 NK=0 IS=   18 IE=   57 IFin=   19
          NO(<0.9)=   0  NV(>0.1)=   0     17.97e < EF      0.03e >EF  Err=0.0D+00
 GapD=    0.019 DampG=0.250 DampE=0.500 DampFc=0.1250 IDamp=-1.
 Damping current iteration by 1.25D-01
 RMSDP=4.09D-02 MaxDP=4.27D-01 DE= 1.14D-02 OVMax= 3.50D-01

 Cycle  10  Pass 1  IDiag  1:
 E= -174.020372924530     Delta-E=       -0.027064889657 Rises=F Damp=T
 DIIS: error= 1.43D-02 at cycle  10 NSaved=   5.
 NSaved= 5 IEnMin= 1 EnMin= -174.034929545879     IErMin= 3 ErrMin= 9.54D-03
 ErrMax= 1.43D-02  0.00D+00 EMaxC= 1.00D+00 BMatC= 1.35D-02 BMatP= 2.18D-02
 IDIUse=1 WtCom= 1.00D+00 WtEn= 0.00D+00
 Coeff-Com:  0.893D+00-0.141D+01 0.152D+01-0.126D+01 0.126D+01
 Coeff:      0.893D+00-0.141D+01 0.152D+01-0.126D+01 0.126D+01
 Gap=     0.019 Goal=   None    Shift=    0.000
 T=  300. Gap= 0.020 NK=0 IS=   18 IE=   57 IFin=   19
          NO(<0.9)=   0  NV(>0.1)=   0     18.00e < EF      0.00e >EF  Err=0.0D+00
 Gap=     0.019 Goal=   None    Shift=    0.000
 T=  300. Gap= 0.020 NK=0 IS=   18 IE=   57 IFin=   19
          NO(<0.9)=   0  NV(>0.1)=   0     18.00e < EF      0.00e >EF  Err=0.0D+00
 GapD=    0.019 DampG=0.250 DampE=0.500 DampFc=0.1250 IDamp=-1.
 Damping current iteration by 1.25D-01
 RMSDP=3.36D-02 MaxDP=3.61D-01 DE=-2.71D-02 OVMax= 3.82D-01

 Cycle  11  Pass 1  IDiag  1:
 E= -174.038844191964     Delta-E=       -0.018471267434 Rises=F Damp=T
 DIIS: error= 1.29D-02 at cycle  11 NSaved=   6.
 NSaved= 6 IEnMin= 6 EnMin= -174.038844191964     IErMin= 3 ErrMin= 9.54D-03
 ErrMax= 1.29D-02  0.00D+00 EMaxC= 1.00D+00 BMatC= 8.66D-03 BMatP= 1.35D-02
 IDIUse=1 WtCom= 1.00D+00 WtEn= 0.00D+00
 Coeff-Com:  0.736D+00-0.160D+01 0.146D+01-0.882D+00-0.149D+01 0.277D+01
 Coeff:      0.736D+00-0.160D+01 0.146D+01-0.882D+00-0.149D+01 0.277D+01
 Gap=     0.010 Goal=   None    Shift=    0.500
 Gap=     0.010 Goal=   None    Shift=    0.500
 GapD=    0.010 DampG=0.250 DampE=0.500 DampFc=0.1250 IDamp=-1.
 Damping current iteration by 1.25D-01
 RMSDP=2.93D-02 MaxDP=3.17D-01 DE=-1.85D-02 OVMax= 1.10D-02

 Cycle  12  Pass 1  IDiag  1:
 E= -174.052119191561     Delta-E=       -0.013274999597 Rises=F Damp=T
 DIIS: error= 1.16D-02 at cycle  12 NSaved=   7.
 NSaved= 7 IEnMin= 7 EnMin= -174.052119191561     IErMin= 3 ErrMin= 9.54D-03
 ErrMax= 1.16D-02  0.00D+00 EMaxC= 1.00D+00 BMatC= 5.92D-03 BMatP= 8.66D-03
 IDIUse=1 WtCom= 1.00D+00 WtEn= 0.00D+00
 Coeff-Com:  0.433D+00-0.133D+01 0.149D+01-0.828D+00 0.799D+00-0.337D+01
 Coeff-Com:  0.380D+01
 Coeff:      0.433D+00-0.133D+01 0.149D+01-0.828D+00 0.799D+00-0.337D+01
 Coeff:      0.380D+01
 Gap=     0.006 Goal=   None    Shift=    0.500
 Gap=     0.006 Goal=   None    Shift=    0.500
 GapD=    0.006 DampG=0.250 DampE=0.500 DampFc=0.1250 IDamp=-1.
 Damping current iteration by 1.25D-01
 RMSDP=2.56D-02 MaxDP=2.77D-01 DE=-1.33D-02 OVMax= 1.18D-02

 Cycle  13  Pass 1  IDiag  1:
 E= -174.061585318737     Delta-E=       -0.009466127176 Rises=F Damp=T
 DIIS: error= 1.05D-02 at cycle  13 NSaved=   8.
 NSaved= 8 IEnMin= 8 EnMin= -174.061585318737     IErMin= 3 ErrMin= 9.54D-03
 ErrMax= 1.05D-02  0.00D+00 EMaxC= 1.00D+00 BMatC= 4.29D-03 BMatP= 5.92D-03
 IDIUse=1 WtCom= 1.00D+00 WtEn= 0.00D+00
 Large coefficients: NSaved=  8 BigCof=   32.08 CofMax=   10.00 Det=-1.07D-07
 Inversion failed.  Reducing to  7 matrices.
 Large coefficients: NSaved=  7 BigCof=   47.83 CofMax=   10.00 Det=-1.15D-07
 Inversion failed.  Reducing to  6 matrices.
 Large coefficients: NSaved=  6 BigCof=   87.96 CofMax=   10.00 Det=-1.40D-07
 Inversion failed.  Reducing to  5 matrices.
 Large coefficients: NSaved=  5 BigCof=   33.96 CofMax=   10.00 Det=-4.48D-07
 Inversion failed.  Reducing to  4 matrices.
 Coeff-Com: -0.124D+00 0.320D+01-0.933D+01 0.726D+01
 Coeff:     -0.124D+00 0.320D+01-0.933D+01 0.726D+01
 Gap=     0.002 Goal=   None    Shift=    0.500
 Gap=     0.002 Goal=   None    Shift=    0.500
 GapD=    0.002 DampG=0.250 DampE=0.500 DampFc=0.1250 IDamp=-1.
 Damping current iteration by 1.25D-01
 RMSDP=1.54D-01 MaxDP=1.02D+00 DE=-9.47D-03 OVMax= 8.18D-03

 Cycle  14  Pass 1  IDiag  1:
 E= -174.060727827546     Delta-E=        0.000857491191 Rises=F Damp=T
 DIIS: error= 7.96D-03 at cycle  14 NSaved=   5.
 NSaved= 5 IEnMin= 4 EnMin= -174.061585318737     IErMin= 5 ErrMin= 7.96D-03
 ErrMax= 7.96D-03  0.00D+00 EMaxC= 1.00D+00 BMatC= 3.82D-03 BMatP= 4.29D-03
 IDIUse=1 WtCom= 1.00D+00 WtEn= 0.00D+00
 Coeff-Com:  0.232D+00-0.442D+01 0.847D+01-0.426D+01 0.970D+00
 Coeff:      0.232D+00-0.442D+01 0.847D+01-0.426D+01 0.970D+00
 Gap=     0.006 Goal=   None    Shift=    0.000
 Gap=     0.006 Goal=   None    Shift=    0.000
 GapD=    0.006 DampG=0.250 DampE=1.000 DampFc=0.2500 IDamp=-1.
 Damping current iteration by 2.50D-01
 RMSDP=3.12D-02 MaxDP=2.81D-01 DE= 8.57D-04 OVMax= 4.86D-01

 Cycle  15  Pass 1  IDiag  1:
 E= -174.067645200327     Delta-E=       -0.006917372781 Rises=F Damp=T
 DIIS: error= 1.46D-02 at cycle  15 NSaved=   6.
 NSaved= 6 IEnMin= 6 EnMin= -174.067645200327     IErMin= 5 ErrMin= 7.96D-03
 ErrMax= 1.46D-02  0.00D+00 EMaxC= 1.00D+00 BMatC= 1.23D-02 BMatP= 3.82D-03
 IDIUse=1 WtCom= 1.00D+00 WtEn= 0.00D+00
 Coeff-Com: -0.563D-01-0.220D+01 0.498D+01-0.219D+01 0.979D-01 0.371D+00
 Coeff:     -0.563D-01-0.220D+01 0.498D+01-0.219D+01 0.979D-01 0.371D+00
 Gap=     0.011 Goal=   None    Shift=    0.500
 Gap=     0.011 Goal=   None    Shift=    0.500
 GapD=    0.011 DampG=0.250 DampE=0.500 DampFc=0.1250 IDamp=-1.
 Damping current iteration by 1.25D-01
 RMSDP=2.34D-02 MaxDP=2.13D-01 DE=-6.92D-03 OVMax= 1.08D-02

 Cycle  16  Pass 1  IDiag  1:
 E= -174.062699476536     Delta-E=        0.004945723790 Rises=F Damp=T
 DIIS: error= 2.24D-02 at cycle  16 NSaved=   7.
 NSaved= 7 IEnMin= 6 EnMin= -174.067645200327     IErMin= 5 ErrMin= 7.96D-03
 ErrMax= 2.24D-02  0.00D+00 EMaxC= 1.00D+00 BMatC= 2.62D-02 BMatP= 3.82D-03
 IDIUse=1 WtCom= 1.00D+00 WtEn= 0.00D+00
 Coeff-Com: -0.109D+00 0.796D+00-0.179D+01 0.175D+01-0.963D+00 0.398D+01
 Coeff-Com: -0.266D+01
 Coeff:     -0.109D+00 0.796D+00-0.179D+01 0.175D+01-0.963D+00 0.398D+01
 Coeff:     -0.266D+01
 Gap=     0.010 Goal=   None    Shift=    0.000
 Gap=     0.010 Goal=   None    Shift=    0.000
 GapD=    0.010 DampG=0.250 DampE=0.500 DampFc=0.1250 IDamp=-1.
 Damping current iteration by 1.25D-01
 RMSDP=2.15D-02 MaxDP=1.91D-01 DE= 4.95D-03 OVMax= 1.25D-01

 Cycle  17  Pass 1  IDiag  1:
 E= -174.054048530214     Delta-E=        0.008650946322 Rises=F Damp=T
 DIIS: error= 2.93D-02 at cycle  17 NSaved=   8.
 NSaved= 8 IEnMin= 6 EnMin= -174.067645200327     IErMin= 5 ErrMin= 7.96D-03
 ErrMax= 2.93D-02  0.00D+00 EMaxC= 1.00D+00 BMatC= 4.11D-02 BMatP= 3.82D-03
 IDIUse=1 WtCom= 1.00D+00 WtEn= 0.00D+00
 Coeff-Com: -0.156D+00 0.305D+01-0.679D+01 0.468D+01-0.115D+01 0.470D+01
 Coeff-Com: -0.397D+01 0.655D+00
 Coeff:     -0.156D+00 0.305D+01-0.679D+01 0.468D+01-0.115D+01 0.470D+01
 Coeff:     -0.397D+01 0.655D+00
 Gap=     0.007 Goal=   None    Shift=    0.000
 Gap=     0.007 Goal=   None    Shift=    0.000
 GapD=    0.007 DampG=0.250 DampE=0.500 DampFc=0.1250 IDamp=-1.
 Damping current iteration by 1.25D-01
 RMSDP=1.80D-02 MaxDP=1.64D-01 DE= 8.65D-03 OVMax= 1.23D-01

 Cycle  18  Pass 1  IDiag  1:
 E= -174.046846207432     Delta-E=        0.007202322783 Rises=F Damp=T
 DIIS: error= 3.41D-02 at cycle  18 NSaved=   9.
 NSaved= 9 IEnMin= 6 EnMin= -174.067645200327     IErMin= 5 ErrMin= 7.96D-03
 ErrMax= 3.41D-02  0.00D+00 EMaxC= 1.00D+00 BMatC= 5.39D-02 BMatP= 3.82D-03
 IDIUse=1 WtCom= 1.00D+00 WtEn= 0.00D+00
 Coeff-Com: -0.150D+00 0.265D+01-0.585D+01 0.412D+01-0.121D+01 0.497D+01
 Coeff-Com: -0.382D+01-0.275D+00 0.572D+00
 Coeff:     -0.150D+00 0.265D+01-0.585D+01 0.412D+01-0.121D+01 0.497D+01
 Coeff:     -0.382D+01-0.275D+00 0.572D+00
 Gap=     0.006 Goal=   None    Shift=    0.000
 Gap=     0.006 Goal=   None    Shift=    0.000
 RMSDP=1.64D-02 MaxDP=1.44D-01 DE= 7.20D-03 OVMax= 1.08D-01

 Cycle  19  Pass 1  IDiag  1:
 E= -173.890010009872     Delta-E=        0.156836197560 Rises=F Damp=F
 DIIS: error= 6.56D-02 at cycle  19 NSaved=  10.
 NSaved=10 IEnMin= 6 EnMin= -174.067645200327     IErMin= 5 ErrMin= 7.96D-03
 ErrMax= 6.56D-02  0.00D+00 EMaxC= 1.00D+00 BMatC= 2.29D-01 BMatP= 3.82D-03
 IDIUse=1 WtCom= 1.00D+00 WtEn= 0.00D+00
 Coeff-Com: -0.178D+00 0.333D+01-0.753D+01 0.519D+01-0.415D+00 0.173D+01
 Coeff-Com: -0.320D+01 0.261D+01-0.342D+00-0.188D+00
 Coeff:     -0.178D+00 0.333D+01-0.753D+01 0.519D+01-0.415D+00 0.173D+01
 Coeff:     -0.320D+01 0.261D+01-0.342D+00-0.188D+00
 Gap=     0.008 Goal=   None    Shift=    0.000
 Gap=     0.008 Goal=   None    Shift=    0.000
 RMSDP=1.98D-03 MaxDP=2.63D-02 DE= 1.57D-01 OVMax= 6.54D-02

 Cycle  20  Pass 1  IDiag  1:
 E= -173.912104346780     Delta-E=       -0.022094336908 Rises=F Damp=F
 DIIS: error= 6.77D-02 at cycle  20 NSaved=  11.
 NSaved=11 IEnMin= 6 EnMin= -174.067645200327     IErMin= 5 ErrMin= 7.96D-03
 ErrMax= 6.77D-02  0.00D+00 EMaxC= 1.00D+00 BMatC= 2.45D-01 BMatP= 3.82D-03
 IDIUse=1 WtCom= 1.00D+00 WtEn= 0.00D+00
 Coeff-Com: -0.136D+00 0.176D+01-0.352D+01 0.245D+01-0.782D-02-0.607D+00
 Coeff-Com:  0.350D+01-0.720D+01 0.511D+01 0.397D+00-0.759D+00
 Coeff:     -0.136D+00 0.176D+01-0.352D+01 0.245D+01-0.782D-02-0.607D+00
 Coeff:      0.350D+01-0.720D+01 0.511D+01 0.397D+00-0.759D+00
 Gap=     0.001 Goal=   None    Shift=    0.000
 Gap=     0.001 Goal=   None    Shift=    0.000
 RMSDP=1.56D-02 MaxDP=1.89D-01 DE=-2.21D-02 OVMax= 5.94D-01

 Cycle  21  Pass 1  IDiag  1:
 E= -173.723499274237     Delta-E=        0.188605072544 Rises=F Damp=F
 DIIS: error= 2.72D-02 at cycle  21 NSaved=  12.
 NSaved=12 IEnMin= 6 EnMin= -174.067645200327     IErMin= 5 ErrMin= 7.96D-03
 ErrMax= 2.72D-02  0.00D+00 EMaxC= 1.00D+00 BMatC= 1.08D-01 BMatP= 3.82D-03
 IDIUse=1 WtCom= 1.00D+00 WtEn= 0.00D+00
 Large coefficients: NSaved= 12 BigCof=   11.25 CofMax=   10.00 Det=-1.76D-07
 Inversion failed.  Reducing to 11 matrices.
 Coeff-Com: -0.146D+00 0.736D+00-0.804D+00 0.835D+00 0.157D+00-0.111D+01
 Coeff-Com:  0.291D+01-0.762D+01 0.656D+01-0.592D+00 0.751D-01
 Coeff:     -0.146D+00 0.736D+00-0.804D+00 0.835D+00 0.157D+00-0.111D+01
 Coeff:      0.291D+01-0.762D+01 0.656D+01-0.592D+00 0.751D-01
 Gap=    -0.010 Goal=   None    Shift=    0.000
 Gap=    -0.010 Goal=   None    Shift=    0.000
 RMSDP=2.32D-02 MaxDP=2.50D-01 DE= 1.89D-01 OVMax= 9.48D-01

 Cycle  22  Pass 1  IDiag  1:
 E= -174.044157541968     Delta-E=       -0.320658267732 Rises=F Damp=F
 DIIS: error= 3.96D-02 at cycle  22 NSaved=  12.
 NSaved=12 IEnMin= 6 EnMin= -174.067645200327     IErMin= 5 ErrMin= 7.96D-03
 ErrMax= 3.96D-02  0.00D+00 EMaxC= 1.00D+00 BMatC= 5.26D-02 BMatP= 3.82D-03
 IDIUse=1 WtCom= 1.00D+00 WtEn= 0.00D+00
 Coeff-Com: -0.122D+00-0.279D+01 0.825D+01-0.507D+01 0.270D+00-0.762D+00
 Coeff-Com: -0.338D+01 0.706D+01-0.247D+01-0.225D+00-0.522D-01 0.294D+00
 Coeff:     -0.122D+00-0.279D+01 0.825D+01-0.507D+01 0.270D+00-0.762D+00
 Coeff:     -0.338D+01 0.706D+01-0.247D+01-0.225D+00-0.522D-01 0.294D+00
 Gap=     0.020 Goal=   None    Shift=    0.000
 Gap=     0.020 Goal=   None    Shift=    0.000
 RMSDP=4.52D-03 MaxDP=6.17D-02 DE=-3.21D-01 OVMax= 1.94D-01

 Cycle  23  Pass 1  IDiag  1:
 E= -174.060892159922     Delta-E=       -0.016734617954 Rises=F Damp=F
 DIIS: error= 2.56D-02 at cycle  23 NSaved=  13.
 NSaved=13 IEnMin= 6 EnMin= -174.067645200327     IErMin= 5 ErrMin= 7.96D-03
 ErrMax= 2.56D-02  0.00D+00 EMaxC= 1.00D+00 BMatC= 3.92D-02 BMatP= 3.82D-03
 IDIUse=1 WtCom= 1.00D+00 WtEn= 0.00D+00
 Coeff-Com: -0.109D+00-0.140D+01 0.448D+01-0.256D+01 0.299D+00-0.149D+01
 Coeff-Com:  0.182D+01-0.389D+01 0.419D+01-0.365D+00-0.139D-01 0.267D+00
 Coeff-Com: -0.228D+00
 Coeff:     -0.109D+00-0.140D+01 0.448D+01-0.256D+01 0.299D+00-0.149D+01
 Coeff:      0.182D+01-0.389D+01 0.419D+01-0.365D+00-0.139D-01 0.267D+00
 Coeff:     -0.228D+00
 Gap=     0.011 Goal=   None    Shift=    0.000
 Gap=     0.011 Goal=   None    Shift=    0.000
 RMSDP=1.96D-03 MaxDP=2.54D-02 DE=-1.67D-02 OVMax= 8.38D-02

 Cycle  24  Pass 1  IDiag  1:
 E= -174.065234800701     Delta-E=       -0.004342640779 Rises=F Damp=F
 DIIS: error= 1.57D-02 at cycle  24 NSaved=  14.
 NSaved=14 IEnMin= 6 EnMin= -174.067645200327     IErMin= 5 ErrMin= 7.96D-03
 ErrMax= 1.57D-02  0.00D+00 EMaxC= 1.00D+00 BMatC= 2.13D-02 BMatP= 3.82D-03
 IDIUse=1 WtCom= 1.00D+00 WtEn= 0.00D+00
 Coeff-Com: -0.113D+00-0.158D+01 0.471D+01-0.259D+01 0.221D+00-0.429D+00
 Coeff-Com: -0.219D+01 0.348D+01-0.366D+00-0.301D+00-0.171D-01 0.458D+00
 Coeff-Com:  0.454D+00-0.738D+00
 Coeff:     -0.113D+00-0.158D+01 0.471D+01-0.259D+01 0.221D+00-0.429D+00
 Coeff:     -0.219D+01 0.348D+01-0.366D+00-0.301D+00-0.171D-01 0.458D+00
 Coeff:      0.454D+00-0.738D+00
 Gap=     0.020 Goal=   None    Shift=    0.000
 Gap=     0.020 Goal=   None    Shift=    0.000
 RMSDP=2.58D-03 MaxDP=3.16D-02 DE=-4.34D-03 OVMax= 1.13D-01

 Cycle  25  Pass 1  IDiag  1:
 E= -174.057054403936     Delta-E=        0.008180396765 Rises=F Damp=F
 DIIS: error= 2.71D-02 at cycle  25 NSaved=  15.
 NSaved=15 IEnMin= 6 EnMin= -174.067645200327     IErMin= 5 ErrMin= 7.96D-03
 ErrMax= 2.71D-02  0.00D+00 EMaxC= 1.00D+00 BMatC= 4.91D-02 BMatP= 3.82D-03
 IDIUse=1 WtCom= 1.00D+00 WtEn= 0.00D+00
 Coeff-Com: -0.116D+00-0.175D+01 0.530D+01-0.306D+01 0.306D+00-0.833D+00
 Coeff-Com: -0.202D+01 0.390D+01-0.603D+00-0.255D+00-0.387D-01 0.272D+00
 Coeff-Com:  0.472D+00-0.208D+00-0.361D+00
 Coeff:     -0.116D+00-0.175D+01 0.530D+01-0.306D+01 0.306D+00-0.833D+00
 Coeff:     -0.202D+01 0.390D+01-0.603D+00-0.255D+00-0.387D-01 0.272D+00
 Coeff:      0.472D+00-0.208D+00-0.361D+00
 Gap=     0.017 Goal=   None    Shift=    0.000
 Gap=     0.017 Goal=   None    Shift=    0.000
 RMSDP=1.98D-04 MaxDP=2.13D-03 DE= 8.18D-03 OVMax= 7.29D-03

 Cycle  26  Pass 1  IDiag  1:
 E= -174.056615548095     Delta-E=        0.000438855841 Rises=F Damp=F
 DIIS: error= 2.68D-02 at cycle  26 NSaved=  16.
 NSaved=16 IEnMin= 6 EnMin= -174.067645200327     IErMin= 5 ErrMin= 7.96D-03
 ErrMax= 2.68D-02  0.00D+00 EMaxC= 1.00D+00 BMatC= 5.00D-02 BMatP= 3.82D-03
 IDIUse=1 WtCom= 1.00D+00 WtEn= 0.00D+00
 Large coefficients: NSaved= 16 BigCof=   14.58 CofMax=   10.00 Det=-8.93D-08
 Inversion failed.  Reducing to 15 matrices.
 Coeff-Com: -0.102D+00-0.211D+01 0.477D+01-0.211D+01 0.668D+00-0.223D+01
 Coeff-Com:  0.952D+00 0.201D+01-0.771D+00-0.189D+00 0.136D+00 0.142D+01
 Coeff-Com: -0.369D+00-0.683D+01 0.574D+01
 Coeff:     -0.102D+00-0.211D+01 0.477D+01-0.211D+01 0.668D+00-0.223D+01
 Coeff:      0.952D+00 0.201D+01-0.771D+00-0.189D+00 0.136D+00 0.142D+01
 Coeff:     -0.369D+00-0.683D+01 0.574D+01
 Gap=     0.013 Goal=   None    Shift=    0.000
 Gap=     0.013 Goal=   None    Shift=    0.000
 GapD=    0.013 DampG=0.250 DampE=0.500 DampFc=0.1250 IDamp=-1.
 Damping current iteration by 1.25D-01
 RMSDP=6.86D-04 MaxDP=6.36D-03 DE= 4.39D-04 OVMax= 1.92D-02

 Cycle  27  Pass 1  IDiag  1:
 E= -174.057140305435     Delta-E=       -0.000524757340 Rises=F Damp=T
 DIIS: error= 2.65D-02 at cycle  27 NSaved=  16.
 NSaved=16 IEnMin= 6 EnMin= -174.067645200327     IErMin= 5 ErrMin= 7.96D-03
 ErrMax= 2.65D-02  0.00D+00 EMaxC= 1.00D+00 BMatC= 4.88D-02 BMatP= 3.82D-03
 IDIUse=1 WtCom= 1.00D+00 WtEn= 0.00D+00
 Large coefficients: NSaved= 16 BigCof=   13.84 CofMax=   10.00 Det=-7.30D-08
 Inversion failed.  Reducing to 15 matrices.
 Large coefficients: NSaved= 15 BigCof=   14.09 CofMax=   10.00 Det=-8.58D-08
 Inversion failed.  Reducing to 14 matrices.
 Large coefficients: NSaved= 14 BigCof=   16.82 CofMax=   10.00 Det=-9.10D-08
 Inversion failed.  Reducing to 13 matrices.
 Large coefficients: NSaved= 13 BigCof=   10.36 CofMax=   10.00 Det=-9.89D-08
 Inversion failed.  Reducing to 12 matrices.
 Large coefficients: NSaved= 12 BigCof=   11.18 CofMax=   10.00 Det=-1.74D-07
 Inversion failed.  Reducing to 11 matrices.
 Large coefficients: NSaved= 11 BigCof=   11.21 CofMax=   10.00 Det=-1.08D-06
 Inversion failed.  Reducing to 10 matrices.
 Coeff-Com:  0.409D+00-0.372D-01 0.121D+01-0.506D+00-0.909D-01 0.119D+01
 Coeff-Com: -0.377D-01-0.634D+01 0.483D+01 0.372D+00
 Coeff:      0.409D+00-0.372D-01 0.121D+01-0.506D+00-0.909D-01 0.119D+01
 Coeff:     -0.377D-01-0.634D+01 0.483D+01 0.372D+00
 Gap=     0.013 Goal=   None    Shift=    0.000
 Gap=     0.013 Goal=   None    Shift=    0.000
 GapD=    0.013 DampG=0.250 DampE=0.500 DampFc=0.1250 IDamp=-1.
 Damping current iteration by 1.25D-01
 RMSDP=1.30D-03 MaxDP=1.83D-02 DE=-5.25D-04 OVMax= 3.26D-02

 Cycle  28  Pass 1  IDiag  1:
 E= -174.058853968861     Delta-E=       -0.001713663426 Rises=F Damp=T
 DIIS: error= 2.50D-02 at cycle  28 NSaved=  11.
 NSaved=11 IEnMin= 3 EnMin= -174.067645200327     IErMin= 2 ErrMin= 7.96D-03
 ErrMax= 2.50D-02  0.00D+00 EMaxC= 1.00D+00 BMatC= 4.46D-02 BMatP= 3.82D-03
 IDIUse=1 WtCom= 1.00D+00 WtEn= 0.00D+00
 Coeff-Com:  0.571D-01 0.840D+00-0.234D+01 0.384D+01-0.155D+01 0.154D+01
 Coeff-Com: -0.207D+00-0.925D+01 0.640D+01-0.425D+01 0.593D+01
 Coeff:      0.571D-01 0.840D+00-0.234D+01 0.384D+01-0.155D+01 0.154D+01
 Coeff:     -0.207D+00-0.925D+01 0.640D+01-0.425D+01 0.593D+01
 Gap=     0.006 Goal=   None    Shift=    0.000
 Gap=     0.006 Goal=   None    Shift=    0.000
 GapD=    0.006 DampG=0.250 DampE=0.500 DampFc=0.1250 IDamp=-1.
 Damping current iteration by 1.25D-01
 RMSDP=2.44D-03 MaxDP=2.93D-02 DE=-1.71D-03 OVMax= 1.31D-01

 Cycle  29  Pass 1  IDiag  1:
 E= -174.057677160842     Delta-E=        0.001176808019 Rises=F Damp=T
 DIIS: error= 2.48D-02 at cycle  29 NSaved=  12.
 NSaved=12 IEnMin= 3 EnMin= -174.067645200327     IErMin= 2 ErrMin= 7.96D-03
 ErrMax= 2.48D-02  0.00D+00 EMaxC= 1.00D+00 BMatC= 4.75D-02 BMatP= 3.82D-03
 IDIUse=1 WtCom= 1.00D+00 WtEn= 0.00D+00
 Coeff-Com: -0.432D-01 0.964D+00-0.274D+01 0.458D+01-0.197D+01 0.146D+01
 Coeff-Com: -0.263D-01-0.856D+01 0.640D+01-0.487D+01 0.368D+01 0.212D+01
 Coeff:     -0.432D-01 0.964D+00-0.274D+01 0.458D+01-0.197D+01 0.146D+01
 Coeff:     -0.263D-01-0.856D+01 0.640D+01-0.487D+01 0.368D+01 0.212D+01
 Gap=     0.002 Goal=   None    Shift=    0.000
 Gap=     0.002 Goal=   None    Shift=    0.000
 GapD=    0.002 DampG=0.250 DampE=0.500 DampFc=0.1250 IDamp=-1.
 Damping current iteration by 1.25D-01
 RMSDP=4.34D-03 MaxDP=5.45D-02 DE= 1.18D-03 OVMax= 1.04D-01

 Cycle  30  Pass 1  IDiag  1:
 E= -174.054434357327     Delta-E=        0.003242803515 Rises=F Damp=T
 DIIS: error= 2.64D-02 at cycle  30 NSaved=  13.
 NSaved=13 IEnMin= 3 EnMin= -174.067645200327     IErMin= 2 ErrMin= 7.96D-03
 ErrMax= 2.64D-02  0.00D+00 EMaxC= 1.00D+00 BMatC= 5.48D-02 BMatP= 3.82D-03
 IDIUse=1 WtCom= 1.00D+00 WtEn= 0.00D+00
 Coeff-Com: -0.975D-01 0.668D+00-0.138D+01 0.408D+01-0.261D+01 0.137D+01
 Coeff-Com:  0.336D+00-0.755D+01 0.591D+01-0.520D+01 0.880D+01-0.964D+01
 Coeff-Com:  0.632D+01
 Coeff:     -0.975D-01 0.668D+00-0.138D+01 0.408D+01-0.261D+01 0.137D+01
 Coeff:      0.336D+00-0.755D+01 0.591D+01-0.520D+01 0.880D+01-0.964D+01
 Coeff:      0.632D+01
 Gap=     0.002 Goal=   None    Shift=    0.000
 Gap=     0.002 Goal=   None    Shift=    0.000
 GapD=    0.002 DampG=0.250 DampE=0.500 DampFc=0.1250 IDamp=-1.
 Damping current iteration by 1.25D-01
 RMSDP=4.02D-03 MaxDP=5.64D-02 DE= 3.24D-03 OVMax= 2.98D-02

 Cycle  31  Pass 1  IDiag  1:
 E= -174.050870598395     Delta-E=        0.003563758932 Rises=F Damp=T
 DIIS: error= 3.07D-02 at cycle  31 NSaved=  14.
 NSaved=14 IEnMin= 3 EnMin= -174.067645200327     IErMin= 2 ErrMin= 7.96D-03
 ErrMax= 3.07D-02  0.00D+00 EMaxC= 1.00D+00 BMatC= 6.20D-02 BMatP= 3.82D-03
 IDIUse=1 WtCom= 1.00D+00 WtEn= 0.00D+00
 Coeff-Com: -0.102D+00 0.638D+00-0.124D+01 0.402D+01-0.267D+01 0.140D+01
 Coeff-Com:  0.316D+00-0.777D+01 0.594D+01-0.500D+01 0.938D+01-0.968D+01
 Coeff-Com:  0.485D+01 0.943D+00
 Coeff:     -0.102D+00 0.638D+00-0.124D+01 0.402D+01-0.267D+01 0.140D+01
 Coeff:      0.316D+00-0.777D+01 0.594D+01-0.500D+01 0.938D+01-0.968D+01
 Coeff:      0.485D+01 0.943D+00
 Gap=     0.002 Goal=   None    Shift=    0.000
 Gap=     0.002 Goal=   None    Shift=    0.000
 GapD=    0.002 DampG=0.250 DampE=0.500 DampFc=0.1250 IDamp=-1.
 Damping current iteration by 1.25D-01
 RMSDP=4.04D-03 MaxDP=5.71D-02 DE= 3.56D-03 OVMax= 6.67D-02

 Cycle  32  Pass 1  IDiag  1:
 E= -174.046485233308     Delta-E=        0.004385365088 Rises=F Damp=T
 DIIS: error= 3.45D-02 at cycle  32 NSaved=  15.
 NSaved=15 IEnMin= 3 EnMin= -174.067645200327     IErMin= 2 ErrMin= 7.96D-03
 ErrMax= 3.45D-02  0.00D+00 EMaxC= 1.00D+00 BMatC= 7.02D-02 BMatP= 3.82D-03
 IDIUse=1 WtCom= 1.00D+00 WtEn= 0.00D+00
 Coeff-Com: -0.102D+00 0.641D+00-0.126D+01 0.402D+01-0.266D+01 0.139D+01
 Coeff-Com:  0.326D+00-0.771D+01 0.592D+01-0.504D+01 0.934D+01-0.984D+01
 Coeff-Com:  0.508D+01 0.989D+00-0.104D+00
 Coeff:     -0.102D+00 0.641D+00-0.126D+01 0.402D+01-0.266D+01 0.139D+01
 Coeff:      0.326D+00-0.771D+01 0.592D+01-0.504D+01 0.934D+01-0.984D+01
 Coeff:      0.508D+01 0.989D+00-0.104D+00
 Gap=     0.002 Goal=   None    Shift=    0.000
 Gap=     0.002 Goal=   None    Shift=    0.000
 RMSDP=3.44D-03 MaxDP=4.92D-02 DE= 4.39D-03 OVMax= 5.95D-03

 >>>>>>>>>> Convergence criterion not met.
 SCF Done:  E(ULC-wHPBE) =  -174.046485233     A.U. after   33 cycles
            NFock= 32  Conv=0.34D-02     -V/T= 1.9100
 <Sx>= 0.0000 <Sy>= 0.0000 <Sz>= 0.0000 <S**2>= 0.0022 S= 0.0022
 <L.S>= 0.000000000000E+00
 KE= 1.912615932893D+02 PE=-7.568894307020D+02 EE= 2.355686096934D+02
 Annihilation of the first spin contaminant:
 S**2 before annihilation     0.0022,   after     0.0000
 Leave Link  502 at Thu Mar  5 12:54:21 2020, MaxMem=  6710886400 cpu:              55.9 elap:               3.8
 (Enter /opt/ohpc/pub/libs/gaussian/g16-A.03/sandybridge/g16/l508.exe)
 Keep R1 and R2 ints in memory in symmetry-blocked form, NReq=16816081.
 FoFCou: FMM=F IPFlag=           0 FMFlag=           0 FMFlg1=           0
         NFxFlg=           0 DoJE=F BraDBF=F KetDBF=F FulRan=T
         wScrn=  0.000000 ICntrl=       600 IOpCl=  0 I1Cent=           0 NGrid=           0
         NMat0=    1 NMatS0=   1653 NMatT0=    0 NMatD0=    1 NMtDS0=    0 NMtDT0=    0
 Petite list used in FoFCou.
 Tight linear equation convergence will be used.
 ULC-wHPBE wavefunction.
 Quadratic Convergence SCF Method.
 Line search only if initial step raises energy.
 Iteration   1 EE= -173.994384207783                                    Grad=2.734D-01 Max rot=    6.6109 deg.
 Gradient too large for Newton-Raphson -- use scaled steepest descent instead.
     ILin= 1 X=0.000D+00 Y=-1.739943842078D+02 DE= 0.00D+00 F= -1.61D-01
     ILin= 2 X=3.000D-01 Y=-1.740310346015D+02 DE=-3.67D-02 F= -8.35D-02
     ILin= 3 X=5.000D-01 Y=-1.740425615483D+02 DE=-4.82D-02 F= -3.17D-02
     ILin= 4 X=7.000D-01 Y=-1.740436980906D+02 DE=-4.93D-02 F=  2.03D-02
     Accept linear search using points  3 and  4.
     An  expanding polynomial of degree  4 produced  0.5956
 Iteration   2 EE= -174.044402890618     Delta-E=       -0.050018682835 Grad=1.123D-01 Max rot=    3.6253 deg.
 Gradient too large for Newton-Raphson -- use scaled steepest descent instead.
     ILin= 1 X=0.000D+00 Y=-1.740444028906D+02 DE= 0.00D+00 F= -2.41D-02
     ILin= 2 X=4.000D-01 Y=-1.740528864461D+02 DE=-8.48D-03 F= -1.83D-02
     ILin= 3 X=7.000D-01 Y=-1.740577159894D+02 DE=-1.33D-02 F= -1.39D-02
     ILin= 4 X=1.200D+00 Y=-1.740628258402D+02 DE=-1.84D-02 F= -6.53D-03
     ILin= 5 X=2.100D+00 Y=-1.740626890922D+02 DE=-1.83D-02 F=  6.86D-03
     An  expanding polynomial of degree  5 produced  1.6402
 Iteration   3 EE= -174.064264493293     Delta-E=       -0.019861602675 Grad=1.064D-01 Max rot=    2.5419 deg.
 Gradient too large for Newton-Raphson -- use scaled steepest descent instead.
     ILin= 1 X=0.000D+00 Y=-1.740642644933D+02 DE= 0.00D+00 F= -2.08D-02
     ILin= 2 X=1.000D+00 Y=-1.740687828596D+02 DE=-4.52D-03 F=  1.18D-02
     Accept linear search using points  1 and  2.
     An  expanding polynomial of degree  2 produced  0.6391
 Iteration   4 EE= -174.070905730224     Delta-E=       -0.006641236931 Grad=4.482D-02 Max rot=    1.3564 deg.
 Gradient too large for Newton-Raphson -- use scaled steepest descent instead.
     ILin= 1 X=0.000D+00 Y=-1.740709057302D+02 DE= 0.00D+00 F= -4.52D-03
     ILin= 2 X=1.000D+00 Y=-1.740735774259D+02 DE=-2.67D-03 F= -8.21D-04
     Reject lnstep minimum 1.222D+00 FVal=-1.740736685191D+02 Lims=  0.00D+00  1.00D+00
     ILin= 3 X=2.000D+00 Y=-1.740725495730D+02 DE=-1.64D-03 F=  2.88D-03
     An  expanding polynomial of degree  3 produced  1.2222
 Iteration   5 EE= -174.073668527292     Delta-E=       -0.002762797068 Grad=4.622D-02 Max rot=    1.4077 deg.
 Gradient too large for Newton-Raphson -- use scaled steepest descent instead.
     ILin= 1 X=0.000D+00 Y=-1.740736685273D+02 DE= 0.00D+00 F= -4.31D-03
     ILin= 2 X=9.000D-01 Y=-1.740748508459D+02 DE=-1.18D-03 F=  1.68D-03
     Accept linear search using points  1 and  2.
     An  expanding polynomial of degree  2 produced  0.6224
 Iteration   6 EE= -174.075061223443     Delta-E=       -0.001392696151 Grad=2.289D-02 Max rot=    0.7907 deg.
 Gradient too large for Newton-Raphson -- use scaled steepest descent instead.
     ILin= 1 X=0.000D+00 Y=-1.740750612234D+02 DE= 0.00D+00 F= -1.13D-03
     ILin= 2 X=9.000D-01 Y=-1.740757480387D+02 DE=-6.87D-04 F= -3.96D-04
     Reject lnstep minimum 3.125D+00 FVal=-1.740763735660D+02 Lims=  0.00D+00  9.00D-01
     ILin= 3 X=1.700D+00 Y=-1.740758030950D+02 DE=-7.42D-04 F=  2.58D-04
     Accept linear search using points  2 and  3.
     An  expanding polynomial of degree  3 produced  1.3596
 Iteration   7 EE= -174.075843604790     Delta-E=       -0.000782381347 Grad=2.491D-02 Max rot=    0.6991 deg.
 Gradient too large for Newton-Raphson -- use scaled steepest descent instead.
     ILin= 1 X=0.000D+00 Y=-1.740758436048D+02 DE= 0.00D+00 F= -1.25D-03
     ILin= 2 X=9.000D-01 Y=-1.740761289109D+02 DE=-2.85D-04 F=  6.13D-04
     Accept linear search using points  1 and  2.
     An  expanding polynomial of degree  2 produced  0.5824
 Iteration   8 EE= -174.076219419811     Delta-E=       -0.000375815021 Grad=1.106D-02 Max rot=    0.4183 deg.
 Gradient too large for Newton-Raphson -- use scaled steepest descent instead.
     ILin= 1 X=0.000D+00 Y=-1.740762194198D+02 DE= 0.00D+00 F= -2.68D-04
     ILin= 2 X=9.000D-01 Y=-1.740763908633D+02 DE=-1.71D-04 F= -1.13D-04
     Reject lnstep minimum 2.963D+00 FVal=-1.740765813826D+02 Lims=  0.00D+00  9.00D-01
     ILin= 3 X=1.800D+00 Y=-1.740764221693D+02 DE=-2.03D-04 F=  4.31D-05
     Accept linear search using points  2 and  3.
     An  expanding polynomial of degree  3 produced  1.5256
 Iteration   9 EE= -174.076427482677     Delta-E=       -0.000208062866 Grad=1.272D-02 Max rot=    0.3326 deg.
 Gradient too large for Newton-Raphson -- use scaled steepest descent instead.
     ILin= 1 X=0.000D+00 Y=-1.740764274827D+02 DE= 0.00D+00 F= -3.30D-04
     ILin= 2 X=9.000D-01 Y=-1.740764896425D+02 DE=-6.22D-05 F=  1.92D-04
     Accept linear search using points  1 and  2.
     An  expanding polynomial of degree  2 produced  0.5523
 Iteration  10 EE= -174.076521258155     Delta-E=       -0.000093775478 Grad=5.077D-03 Max rot=    0.2101 deg.
 QCNR:  CnvC1=5.08D-08 CnvC2=5.08D-07
 LinEq1:  Iter=  0 NonCon=     1 RMS=1.87D-02 Max=5.18D-01 NDo=     1
 AX will form     1 AO Fock derivatives at one time.
 LinEq1:  Iter=  1 NonCon=     1 RMS=1.55D+00 Max=4.84D+01 NDo=     1
 LinEq1:  Iter=  2 NonCon=     1 RMS=1.05D+01 Max=1.79D+02 NDo=     1
 LinEq1:  Iter=  3 NonCon=     1 RMS=6.35D+02 Max=1.52D+04 NDo=     1
 LinEq1:  Iter=  4 NonCon=     1 RMS=7.17D+03 Max=1.75D+05 NDo=     1
 LinEq1:  Iter=  5 NonCon=     1 RMS=1.48D+04 Max=2.74D+05 NDo=     1
 LinEq1:  Iter=  6 NonCon=     1 RMS=1.28D+04 Max=1.49D+05 NDo=     1
 LinEq1:  Iter=  7 NonCon=     1 RMS=1.60D+04 Max=1.58D+05 NDo=     1
 LinEq1:  Iter=  8 NonCon=     1 RMS=2.36D+04 Max=2.77D+05 NDo=     1
 LinEq1:  Iter=  9 NonCon=     1 RMS=1.98D+04 Max=2.39D+05 NDo=     1
 LinEq1:  Iter= 10 NonCon=     1 RMS=1.71D+04 Max=2.63D+05 NDo=     1
 LinEq1:  Iter= 11 NonCon=     1 RMS=1.13D+04 Max=1.11D+05 NDo=     1
 LinEq1:  Iter= 12 NonCon=     1 RMS=8.31D+03 Max=1.16D+05 NDo=     1
 LinEq1:  Iter= 13 NonCon=     1 RMS=1.12D+05 Max=4.06D+06 NDo=     1
 LinEq1:  Iter= 14 NonCon=     1 RMS=6.34D+05 Max=1.15D+07 NDo=     1
 LinEq1:  Iter= 15 NonCon=     1 RMS=1.04D+07 Max=3.63D+08 NDo=     1
 LinEq1:  Iter= 16 NonCon=     1 RMS=1.12D+08 Max=2.60D+09 NDo=     1
 LinEq1:  Iter= 17 NonCon=     1 RMS=8.74D+08 Max=1.04D+10 NDo=     1
 LinEq1:  Iter= 18 NonCon=     1 RMS=6.73D+08 Max=7.99D+09 NDo=     1
 LinEq1:  Iter= 19 NonCon=     1 RMS=6.81D+08 Max=8.91D+09 NDo=     1
 LinEq1:  Iter= 20 NonCon=     1 RMS=2.80D+09 Max=6.77D+10 NDo=     1
 LinEq1:  Iter= 21 NonCon=     1 RMS=6.79D+09 Max=8.31D+10 NDo=     1
 LinEq1:  Iter= 22 NonCon=     1 RMS=1.28D+10 Max=2.72D+11 NDo=     1
 LinEq1:  Iter= 23 NonCon=     1 RMS=5.91D+10 Max=9.06D+11 NDo=     1
 LinEq1:  Iter= 24 NonCon=     1 RMS=5.38D+10 Max=5.71D+11 NDo=     1
 LinEq1:  Iter= 25 NonCon=     1 RMS=1.52D+11 Max=3.25D+12 NDo=     1
 LinEq1:  Iter= 26 NonCon=     1 RMS=2.93D+11 Max=3.00D+12 NDo=     1
 LinEq1:  Iter= 27 NonCon=     1 RMS=9.29D+11 Max=1.76D+13 NDo=     1
 LinEq1:  Iter= 28 NonCon=     1 RMS=6.95D+12 Max=1.71D+14 NDo=     1
 LinEq1:  Iter= 29 NonCon=     1 RMS=1.40D+13 Max=1.22D+14 NDo=     1
 LinEq1:  Iter= 30 NonCon=     1 RMS=3.32D+13 Max=1.01D+15 NDo=     1
 LinEq1:  Iter= 31 NonCon=     1 RMS=5.28D+13 Max=5.35D+14 NDo=     1
 LinEq1:  Iter= 32 NonCon=     1 RMS=1.38D+14 Max=3.16D+15 NDo=     1
 LinEq1:  Iter= 33 NonCon=     1 RMS=9.35D+14 Max=2.25D+16 NDo=     1
 LinEq1:  Iter= 34 NonCon=     1 RMS=1.32D+15 Max=1.87D+16 NDo=     1
 LinEq1:  Iter= 35 NonCon=     1 RMS=5.71D+15 Max=1.55D+17 NDo=     1
 LinEq1:  Iter= 36 NonCon=     1 RMS=2.76D+16 Max=4.65D+17 NDo=     1
 LinEq1:  Iter= 37 NonCon=     1 RMS=3.11D+16 Max=5.32D+17 NDo=     1
 LinEq1:  Iter= 38 NonCon=     1 RMS=9.32D+16 Max=1.30D+18 NDo=     1
 LinEq1:  Iter= 39 NonCon=     1 RMS=1.50D+17 Max=2.62D+18 NDo=     1
 LinEq1:  Iter= 40 NonCon=     1 RMS=5.77D+17 Max=9.18D+18 NDo=     1
 LinEq1:  Iter= 41 NonCon=     1 RMS=2.03D+18 Max=4.22D+19 NDo=     1
 LinEq1:  Iter= 42 NonCon=     1 RMS=5.16D+18 Max=8.78D+19 NDo=     1
 LinEq1:  Iter= 43 NonCon=     1 RMS=8.57D+18 Max=9.28D+19 NDo=     1
 LinEq1:  Iter= 44 NonCon=     1 RMS=2.18D+19 Max=3.62D+20 NDo=     1
 LinEq1:  Iter= 45 NonCon=     1 RMS=8.08D+19 Max=1.40D+21 NDo=     1
 LinEq1:  Iter= 46 NonCon=     1 RMS=1.18D+20 Max=1.85D+21 NDo=     1
 LinEq1:  Iter= 47 NonCon=     1 RMS=2.22D+20 Max=4.58D+21 NDo=     1
 LinEq1:  Iter= 48 NonCon=     1 RMS=5.79D+20 Max=9.49D+21 NDo=     1
 LinEq1:  Iter= 49 NonCon=     1 RMS=1.36D+21 Max=1.92D+22 NDo=     1
 LinEq1:  Iter= 50 NonCon=     1 RMS=1.55D+21 Max=2.71D+22 NDo=     1
 LinEq1:  Iter= 51 NonCon=     1 RMS=6.32D+21 Max=1.16D+23 NDo=     1
 LinEq1:  Iter= 52 NonCon=     1 RMS=1.35D+22 Max=1.36D+23 NDo=     1
 LinEq1:  Iter= 53 NonCon=     1 RMS=1.31D+22 Max=2.40D+23 NDo=     1
 LinEq1:  Iter= 54 NonCon=     1 RMS=3.14D+22 Max=7.65D+23 NDo=     1
 LinEq1:  Iter= 55 NonCon=     1 RMS=9.54D+22 Max=1.58D+24 NDo=     1
 LinEq1:  Iter= 56 NonCon=     1 RMS=8.85D+22 Max=1.20D+24 NDo=     1
 LinEq1:  Iter= 57 NonCon=     1 RMS=1.83D+23 Max=3.44D+24 NDo=     1
 LinEq1:  Iter= 58 NonCon=     1 RMS=6.08D+23 Max=9.36D+24 NDo=     1
 LinEq1:  Iter= 59 NonCon=     1 RMS=7.87D+23 Max=8.29D+24 NDo=     1
 LinEq1:  Iter= 60 NonCon=     1 RMS=1.16D+24 Max=2.47D+25 NDo=     1
 LinEq1:  Iter= 61 NonCon=     1 RMS=3.94D+24 Max=9.50D+25 NDo=     1
 LinEq1:  Iter= 62 NonCon=     1 RMS=4.23D+24 Max=3.81D+25 NDo=     1
 LinEq1:  Iter= 63 NonCon=     1 RMS=2.02D+24 Max=2.34D+25 NDo=     1
 LinEq1:  Iter= 64 NonCon=     1 RMS=3.85D+24 Max=6.06D+25 NDo=     1
 LinEq1:  Iter= 65 NonCon=     1 RMS=2.93D+24 Max=2.64D+25 NDo=     1
 LinEq1:  Iter= 66 NonCon=     1 RMS=3.50D+24 Max=6.15D+25 NDo=     1
 LinEq1:  Iter= 67 NonCon=     1 RMS=3.81D+24 Max=3.73D+25 NDo=     1
 LinEq1:  Iter= 68 NonCon=     1 RMS=2.09D+24 Max=3.00D+25 NDo=     1
 LinEq1:  Iter= 69 NonCon=     1 RMS=2.04D+24 Max=3.07D+25 NDo=     1
 LinEq1:  Iter= 70 NonCon=     1 RMS=2.56D+24 Max=4.03D+25 NDo=     1
 LinEq1:  Iter= 71 NonCon=     1 RMS=1.85D+24 Max=2.56D+25 NDo=     1
 LinEq1:  Iter= 72 NonCon=     1 RMS=9.54D+23 Max=1.15D+25 NDo=     1
 LinEq1:  Iter= 73 NonCon=     1 RMS=1.53D+24 Max=1.91D+25 NDo=     1
 LinEq1:  Iter= 74 NonCon=     1 RMS=1.04D+24 Max=1.59D+25 NDo=     1
 LinEq1:  Iter= 75 NonCon=     1 RMS=1.69D+24 Max=2.07D+25 NDo=     1
 LinEq1:  Iter= 76 NonCon=     1 RMS=1.05D+24 Max=1.20D+25 NDo=     1
 LinEq1:  Iter= 77 NonCon=     1 RMS=7.98D+23 Max=1.32D+25 NDo=     1
 LinEq1:  Iter= 78 NonCon=     1 RMS=9.54D+23 Max=1.11D+25 NDo=     1
 LinEq1:  Iter= 79 NonCon=     1 RMS=5.07D+23 Max=4.82D+24 NDo=     1
 LinEq1:  Iter= 80 NonCon=     1 RMS=3.01D+23 Max=5.62D+24 NDo=     1
 LinEq1:  Iter= 81 NonCon=     1 RMS=4.29D+23 Max=6.19D+24 NDo=     1
 LinEq1:  Iter= 82 NonCon=     1 RMS=2.11D+23 Max=2.96D+24 NDo=     1
 LinEq1:  Iter= 83 NonCon=     1 RMS=2.57D+23 Max=4.86D+24 NDo=     1
 LinEq1:  Iter= 84 NonCon=     1 RMS=1.42D+23 Max=1.20D+24 NDo=     1
 LinEq1:  Iter= 85 NonCon=     1 RMS=6.86D+22 Max=8.55D+23 NDo=     1
 LinEq1:  Iter= 86 NonCon=     1 RMS=8.70D+22 Max=1.15D+24 NDo=     1
 LinEq1:  Iter= 87 NonCon=     1 RMS=4.87D+22 Max=3.70D+23 NDo=     1
 LinEq1:  Iter= 88 NonCon=     1 RMS=3.36D+22 Max=5.33D+23 NDo=     1
 LinEq1:  Iter= 89 NonCon=     1 RMS=3.55D+22 Max=2.95D+23 NDo=     1
 LinEq1:  Iter= 90 NonCon=     1 RMS=1.60D+22 Max=2.38D+23 NDo=     1
 LinEq1:  Iter= 91 NonCon=     1 RMS=1.95D+22 Max=3.19D+23 NDo=     1
 LinEq1:  Iter= 92 NonCon=     1 RMS=8.65D+21 Max=9.28D+22 NDo=     1
 LinEq1:  Iter= 93 NonCon=     1 RMS=3.84D+21 Max=6.18D+22 NDo=     1
 LinEq1:  Iter= 94 NonCon=     1 RMS=4.48D+21 Max=7.38D+22 NDo=     1
 LinEq1:  Iter= 95 NonCon=     1 RMS=2.04D+21 Max=2.24D+22 NDo=     1
 LinEq1:  Iter= 96 NonCon=     1 RMS=1.25D+21 Max=1.69D+22 NDo=     1
 LinEq1:  Iter= 97 NonCon=     1 RMS=1.18D+21 Max=1.26D+22 NDo=     1
 LinEq1:  Iter= 98 NonCon=     1 RMS=6.32D+20 Max=1.04D+22 NDo=     1
 LinEq1:  Iter= 99 NonCon=     1 RMS=6.56D+20 Max=5.50D+21 NDo=     1
 LinEq1:  Iter=100 NonCon=     1 RMS=3.24D+20 Max=4.24D+21 NDo=     1
 LinEq1:  Iter=101 NonCon=     1 RMS=2.99D+20 Max=4.56D+21 NDo=     1
 LinEq1:  Iter=102 NonCon=     1 RMS=1.86D+20 Max=1.62D+21 NDo=     1
 LinEq1:  Iter=103 NonCon=     1 RMS=1.25D+20 Max=1.58D+21 NDo=     1
 LinEq1:  Iter=104 NonCon=     1 RMS=8.95D+19 Max=7.14D+20 NDo=     1
 LinEq1:  Iter=105 NonCon=     1 RMS=4.57D+19 Max=6.61D+20 NDo=     1
 LinEq1:  Iter=106 NonCon=     1 RMS=3.83D+19 Max=7.07D+20 NDo=     1
 LinEq1:  Iter=107 NonCon=     1 RMS=2.74D+19 Max=2.89D+20 NDo=     1
 LinEq1:  Iter=108 NonCon=     1 RMS=1.78D+19 Max=4.29D+20 NDo=     1
 LinEq1:  Iter=109 NonCon=     1 RMS=1.54D+19 Max=2.14D+20 NDo=     1
 LinEq1:  Iter=110 NonCon=     1 RMS=5.30D+18 Max=5.09D+19 NDo=     1
 LinEq1:  Iter=111 NonCon=     1 RMS=4.99D+18 Max=7.59D+19 NDo=     1
 LinEq1:  Iter=112 NonCon=     1 RMS=2.57D+18 Max=2.22D+19 NDo=     1
 LinEq1:  Iter=113 NonCon=     1 RMS=1.83D+18 Max=3.12D+19 NDo=     1
 LinEq1:  Iter=114 NonCon=     1 RMS=1.27D+18 Max=1.05D+19 NDo=     1
 LinEq1:  Iter=115 NonCon=     1 RMS=4.98D+17 Max=6.27D+18 NDo=     1
 LinEq1:  Iter=116 NonCon=     1 RMS=3.87D+17 Max=7.04D+18 NDo=     1
 LinEq1:  Iter=117 NonCon=     1 RMS=1.55D+17 Max=1.52D+18 NDo=     1
 LinEq1:  Iter=118 NonCon=     1 RMS=5.44D+16 Max=8.63D+17 NDo=     1
 LinEq1:  Iter=119 NonCon=     1 RMS=1.88D+16 Max=1.51D+17 NDo=     1
 LinEq1:  Iter=120 NonCon=     1 RMS=1.44D+16 Max=1.73D+17 NDo=     1
 LinEq1:  Iter=121 NonCon=     1 RMS=7.22D+15 Max=5.21D+16 NDo=     1
 LinEq1:  Iter=122 NonCon=     1 RMS=3.18D+15 Max=3.46D+16 NDo=     1
 LinEq1:  Iter=123 NonCon=     1 RMS=2.58D+15 Max=2.40D+16 NDo=     1
 LinEq1:  Iter=124 NonCon=     1 RMS=7.56D+14 Max=7.01D+15 NDo=     1
 LinEq1:  Iter=125 NonCon=     1 RMS=2.67D+14 Max=2.68D+15 NDo=     1
 LinEq1:  Iter=126 NonCon=     1 RMS=1.23D+14 Max=1.62D+15 NDo=     1
 LinEq1:  Iter=127 NonCon=     1 RMS=8.78D+13 Max=7.49D+14 NDo=     1
 LinEq1:  Iter=128 NonCon=     1 RMS=3.37D+13 Max=3.56D+14 NDo=     1
 LinEq1:  Iter=129 NonCon=     1 RMS=2.59D+13 Max=2.24D+14 NDo=     1
 LinEq1:  Iter=130 NonCon=     1 RMS=9.89D+12 Max=9.22D+13 NDo=     1
 LinEq1:  Iter=131 NonCon=     1 RMS=4.71D+12 Max=6.30D+13 NDo=     1
 LinEq1:  Iter=132 NonCon=     1 RMS=2.70D+12 Max=2.89D+13 NDo=     1
 LinEq1:  Iter=133 NonCon=     1 RMS=1.50D+12 Max=3.02D+13 NDo=     1
 LinEq1:  Iter=134 NonCon=     1 RMS=1.12D+12 Max=1.30D+13 NDo=     1
 LinEq1:  Iter=135 NonCon=     1 RMS=3.98D+11 Max=3.67D+12 NDo=     1
 LinEq1:  Iter=136 NonCon=     1 RMS=1.73D+11 Max=2.35D+12 NDo=     1
 LinEq1:  Iter=137 NonCon=     1 RMS=1.09D+11 Max=1.16D+12 NDo=     1
 LinEq1:  Iter=138 NonCon=     1 RMS=4.54D+10 Max=6.91D+11 NDo=     1
 LinEq1:  Iter=139 NonCon=     1 RMS=3.31D+10 Max=5.57D+11 NDo=     1
 LinEq1:  Iter=140 NonCon=     1 RMS=1.40D+10 Max=1.35D+11 NDo=     1
 LinEq1:  Iter=141 NonCon=     1 RMS=4.50D+09 Max=7.14D+10 NDo=     1
 LinEq1:  Iter=142 NonCon=     1 RMS=2.75D+09 Max=5.19D+10 NDo=     1
 LinEq1:  Iter=143 NonCon=     1 RMS=1.08D+09 Max=9.89D+09 NDo=     1
 LinEq1:  Iter=144 NonCon=     1 RMS=3.68D+08 Max=5.16D+09 NDo=     1
 LinEq1:  Iter=145 NonCon=     1 RMS=3.03D+08 Max=4.03D+09 NDo=     1
 LinEq1:  Iter=146 NonCon=     1 RMS=1.23D+08 Max=1.30D+09 NDo=     1
 LinEq1:  Iter=147 NonCon=     1 RMS=7.19D+07 Max=8.75D+08 NDo=     1
 LinEq1:  Iter=148 NonCon=     1 RMS=3.06D+07 Max=3.55D+08 NDo=     1
 LinEq1:  Iter=149 NonCon=     1 RMS=1.19D+07 Max=1.20D+08 NDo=     1
 LinEq1:  Iter=150 NonCon=     1 RMS=6.87D+06 Max=6.30D+07 NDo=     1
 LinEq1:  Iter=151 NonCon=     1 RMS=1.90D+06 Max=1.63D+07 NDo=     1
 LinEq1:  Iter=152 NonCon=     1 RMS=7.84D+05 Max=1.68D+07 NDo=     1
 LinEq1:  Iter=153 NonCon=     1 RMS=4.44D+05 Max=4.97D+06 NDo=     1
 LinEq1:  Iter=154 NonCon=     1 RMS=1.07D+05 Max=9.93D+05 NDo=     1
 LinEq1:  Iter=155 NonCon=     1 RMS=5.97D+04 Max=9.91D+05 NDo=     1
 LinEq1:  Iter=156 NonCon=     1 RMS=2.54D+04 Max=2.14D+05 NDo=     1
 LinEq1:  Iter=157 NonCon=     1 RMS=7.11D+03 Max=6.39D+04 NDo=     1
 LinEq1:  Iter=158 NonCon=     1 RMS=4.06D+03 Max=5.59D+04 NDo=     1
 LinEq1:  Iter=159 NonCon=     1 RMS=1.24D+03 Max=7.90D+03 NDo=     1
 LinEq1:  Iter=160 NonCon=     1 RMS=2.70D+02 Max=1.61D+03 NDo=     1
 LinEq1:  Iter=161 NonCon=     1 RMS=1.16D+02 Max=1.25D+03 NDo=     1
 LinEq1:  Iter=162 NonCon=     1 RMS=4.66D+01 Max=3.60D+02 NDo=     1
 LinEq1:  Iter=163 NonCon=     1 RMS=1.20D+01 Max=8.24D+01 NDo=     1
 LinEq1:  Iter=164 NonCon=     1 RMS=4.98D+00 Max=4.40D+01 NDo=     1
 LinEq1:  Iter=165 NonCon=     1 RMS=2.28D+00 Max=1.53D+01 NDo=     1
 LinEq1:  Iter=166 NonCon=     1 RMS=7.74D-01 Max=6.73D+00 NDo=     1
 LinEq1:  Iter=167 NonCon=     1 RMS=4.15D-01 Max=3.13D+00 NDo=     1
 LinEq1:  Iter=168 NonCon=     1 RMS=1.31D-01 Max=9.95D-01 NDo=     1
 LinEq1:  Iter=169 NonCon=     1 RMS=3.41D-02 Max=2.56D-01 NDo=     1
 LinEq1:  Iter=170 NonCon=     1 RMS=1.61D-02 Max=1.68D-01 NDo=     1
 LinEq1:  Iter=171 NonCon=     1 RMS=6.41D-03 Max=5.16D-02 NDo=     1
 LinEq1:  Iter=172 NonCon=     1 RMS=2.09D-03 Max=2.47D-02 NDo=     1
 LinEq1:  Iter=173 NonCon=     1 RMS=1.15D-03 Max=1.35D-02 NDo=     1
 LinEq1:  Iter=174 NonCon=     1 RMS=3.00D-04 Max=1.99D-03 NDo=     1
 LinEq1:  Iter=175 NonCon=     1 RMS=1.07D-04 Max=1.59D-03 NDo=     1
 LinEq1:  Iter=176 NonCon=     1 RMS=4.24D-05 Max=3.32D-04 NDo=     1
 LinEq1:  Iter=177 NonCon=     1 RMS=1.20D-05 Max=1.68D-04 NDo=     1
 LinEq1:  Iter=178 NonCon=     1 RMS=5.26D-06 Max=8.84D-05 NDo=     1
 LinEq1:  Iter=179 NonCon=     1 RMS=1.55D-06 Max=1.15D-05 NDo=     1
 LinEq1:  Iter=180 NonCon=     1 RMS=3.25D-07 Max=1.99D-06 NDo=     1
 LinEq1:  Iter=181 NonCon=     1 RMS=1.53D-07 Max=1.29D-06 NDo=     1
 LinEq1:  Iter=182 NonCon=     1 RMS=5.24D-08 Max=4.28D-07 NDo=     1
 LinEq1:  Iter=183 NonCon=     0 RMS=2.35D-08 Max=3.01D-07 NDo=     1
 Linear equations converged to 5.077D-08 5.077D-07 after   183 iterations.
 Angle between quadratic step and gradient=  52.56 degrees.
     ILin= 1 X=0.000D+00 Y=-1.740765212582D+02 DE= 0.00D+00 F= -1.72D-04
     ILin= 2 X=1.000D+00 Y=-1.740724264755D+02 DE= 4.09D-03 F=  8.36D-03
     Reject lnstep minimum 2.019D-02 FVal=-1.740765229965D+02 Lims=  0.00D+00  1.00D+00
     ILin= 3 X=2.019D-02 Y=-1.740765229966D+02 DE=-1.74D-06 F= -9.83D-10
     A contracting polynomial of degree  3 produced  0.0202
     Minimum is close to point  3 DX= -9.55D-07 DF= -5.68D-14 DXR=  4.73D-05 DFR=  3.27D-08 which will be used.
 Iteration  11 EE= -174.076522996553     Delta-E=       -0.000001738398 Grad=6.500D-03 Max rot=    0.2059 deg.
 QCNR:  CnvC1=6.50D-08 CnvC2=6.50D-07
 LinEq1:  Iter=  0 NonCon=     1 RMS=1.85D-02 Max=5.11D-01 NDo=     1
 LinEq1:  Iter=  1 NonCon=     1 RMS=1.53D+00 Max=4.78D+01 NDo=     1
 LinEq1:  Iter=  2 NonCon=     1 RMS=1.05D+01 Max=1.77D+02 NDo=     1
 LinEq1:  Iter=  3 NonCon=     1 RMS=6.51D+02 Max=1.53D+04 NDo=     1
 LinEq1:  Iter=  4 NonCon=     1 RMS=7.13D+03 Max=1.74D+05 NDo=     1
 LinEq1:  Iter=  5 NonCon=     1 RMS=1.47D+04 Max=2.72D+05 NDo=     1
 LinEq1:  Iter=  6 NonCon=     1 RMS=3.54D+04 Max=1.05D+06 NDo=     1
 LinEq1:  Iter=  7 NonCon=     1 RMS=7.05D+05 Max=8.45D+06 NDo=     1
 LinEq1:  Iter=  8 NonCon=     1 RMS=1.45D+06 Max=3.48D+07 NDo=     1
 LinEq1:  Iter=  9 NonCon=     1 RMS=4.49D+07 Max=9.60D+08 NDo=     1
 LinEq1:  Iter= 10 NonCon=     1 RMS=1.09D+08 Max=1.44D+09 NDo=     1
 LinEq1:  Iter= 11 NonCon=     1 RMS=7.72D+08 Max=1.42D+10 NDo=     1
 LinEq1:  Iter= 12 NonCon=     1 RMS=8.73D+09 Max=1.91D+11 NDo=     1
 LinEq1:  Iter= 13 NonCon=     1 RMS=4.02D+10 Max=6.76D+11 NDo=     1
 LinEq1:  Iter= 14 NonCon=     1 RMS=2.70D+11 Max=6.72D+12 NDo=     1
 LinEq1:  Iter= 15 NonCon=     1 RMS=1.37D+12 Max=1.79D+13 NDo=     1
 LinEq1:  Iter= 16 NonCon=     1 RMS=3.51D+12 Max=6.00D+13 NDo=     1
 LinEq1:  Iter= 17 NonCon=     1 RMS=2.06D+13 Max=5.01D+14 NDo=     1
 LinEq1:  Iter= 18 NonCon=     1 RMS=7.93D+13 Max=9.88D+14 NDo=     1
 LinEq1:  Iter= 19 NonCon=     1 RMS=1.68D+14 Max=2.59D+15 NDo=     1
 LinEq1:  Iter= 20 NonCon=     1 RMS=7.90D+14 Max=1.16D+16 NDo=     1
 LinEq1:  Iter= 21 NonCon=     1 RMS=4.32D+15 Max=7.76D+16 NDo=     1
 LinEq1:  Iter= 22 NonCon=     1 RMS=2.14D+16 Max=3.11D+17 NDo=     1
 LinEq1:  Iter= 23 NonCon=     1 RMS=9.87D+16 Max=1.37D+18 NDo=     1
 LinEq1:  Iter= 24 NonCon=     1 RMS=3.89D+17 Max=7.71D+18 NDo=     1
 LinEq1:  Iter= 25 NonCon=     1 RMS=1.91D+18 Max=2.91D+19 NDo=     1
 LinEq1:  Iter= 26 NonCon=     1 RMS=4.42D+18 Max=6.74D+19 NDo=     1
 LinEq1:  Iter= 27 NonCon=     1 RMS=2.01D+19 Max=4.71D+20 NDo=     1
 LinEq1:  Iter= 28 NonCon=     1 RMS=1.02D+20 Max=2.40D+21 NDo=     1
 LinEq1:  Iter= 29 NonCon=     1 RMS=2.00D+20 Max=3.13D+21 NDo=     1
 LinEq1:  Iter= 30 NonCon=     1 RMS=5.61D+20 Max=1.02D+22 NDo=     1
 LinEq1:  Iter= 31 NonCon=     1 RMS=1.39D+21 Max=1.52D+22 NDo=     1
 LinEq1:  Iter= 32 NonCon=     1 RMS=2.96D+21 Max=4.23D+22 NDo=     1
 LinEq1:  Iter= 33 NonCon=     1 RMS=1.25D+22 Max=1.93D+23 NDo=     1
 LinEq1:  Iter= 34 NonCon=     1 RMS=2.82D+22 Max=4.30D+23 NDo=     1
 LinEq1:  Iter= 35 NonCon=     1 RMS=1.11D+23 Max=1.73D+24 NDo=     1
 LinEq1:  Iter= 36 NonCon=     1 RMS=4.22D+23 Max=4.75D+24 NDo=     1
 LinEq1:  Iter= 37 NonCon=     1 RMS=6.58D+23 Max=8.32D+24 NDo=     1
 LinEq1:  Iter= 38 NonCon=     1 RMS=1.07D+24 Max=2.33D+25 NDo=     1
 LinEq1:  Iter= 39 NonCon=     1 RMS=3.32D+24 Max=5.48D+25 NDo=     1
 LinEq1:  Iter= 40 NonCon=     1 RMS=6.50D+24 Max=1.50D+26 NDo=     1
 LinEq1:  Iter= 41 NonCon=     1 RMS=1.60D+25 Max=2.53D+26 NDo=     1
 LinEq1:  Iter= 42 NonCon=     1 RMS=4.82D+25 Max=7.02D+26 NDo=     1
 LinEq1:  Iter= 43 NonCon=     1 RMS=8.42D+25 Max=1.49D+27 NDo=     1
 LinEq1:  Iter= 44 NonCon=     1 RMS=1.47D+26 Max=2.10D+27 NDo=     1
 LinEq1:  Iter= 45 NonCon=     1 RMS=3.15D+26 Max=6.42D+27 NDo=     1
 LinEq1:  Iter= 46 NonCon=     1 RMS=7.77D+26 Max=1.40D+28 NDo=     1
 LinEq1:  Iter= 47 NonCon=     1 RMS=1.60D+27 Max=2.33D+28 NDo=     1
 LinEq1:  Iter= 48 NonCon=     1 RMS=1.79D+27 Max=2.80D+28 NDo=     1
 LinEq1:  Iter= 49 NonCon=     1 RMS=3.89D+27 Max=7.21D+28 NDo=     1
 LinEq1:  Iter= 50 NonCon=     1 RMS=8.52D+27 Max=1.58D+29 NDo=     1
 LinEq1:  Iter= 51 NonCon=     1 RMS=9.22D+27 Max=8.63D+28 NDo=     1
 LinEq1:  Iter= 52 NonCon=     1 RMS=1.24D+28 Max=2.40D+29 NDo=     1
 LinEq1:  Iter= 53 NonCon=     1 RMS=1.40D+28 Max=1.37D+29 NDo=     1
 LinEq1:  Iter= 54 NonCon=     1 RMS=1.46D+28 Max=3.41D+29 NDo=     1
 LinEq1:  Iter= 55 NonCon=     1 RMS=2.19D+28 Max=2.78D+29 NDo=     1
 LinEq1:  Iter= 56 NonCon=     1 RMS=1.84D+28 Max=3.25D+29 NDo=     1
 LinEq1:  Iter= 57 NonCon=     1 RMS=2.46D+28 Max=3.80D+29 NDo=     1
 LinEq1:  Iter= 58 NonCon=     1 RMS=2.37D+28 Max=2.97D+29 NDo=     1
 LinEq1:  Iter= 59 NonCon=     1 RMS=2.91D+28 Max=4.77D+29 NDo=     1
 LinEq1:  Iter= 60 NonCon=     1 RMS=2.83D+28 Max=3.20D+29 NDo=     1
 LinEq1:  Iter= 61 NonCon=     1 RMS=3.30D+28 Max=4.74D+29 NDo=     1
 LinEq1:  Iter= 62 NonCon=     1 RMS=2.66D+28 Max=2.07D+29 NDo=     1
 LinEq1:  Iter= 63 NonCon=     1 RMS=2.69D+28 Max=3.02D+29 NDo=     1
 LinEq1:  Iter= 64 NonCon=     1 RMS=2.83D+28 Max=2.64D+29 NDo=     1
 LinEq1:  Iter= 65 NonCon=     1 RMS=2.93D+28 Max=2.59D+29 NDo=     1
 LinEq1:  Iter= 66 NonCon=     1 RMS=2.70D+28 Max=4.18D+29 NDo=     1
 LinEq1:  Iter= 67 NonCon=     1 RMS=2.35D+28 Max=2.33D+29 NDo=     1
 LinEq1:  Iter= 68 NonCon=     1 RMS=2.13D+28 Max=1.85D+29 NDo=     1
 LinEq1:  Iter= 69 NonCon=     1 RMS=2.28D+28 Max=2.16D+29 NDo=     1
 LinEq1:  Iter= 70 NonCon=     1 RMS=2.07D+28 Max=1.65D+29 NDo=     1
 LinEq1:  Iter= 71 NonCon=     1 RMS=1.89D+28 Max=2.57D+29 NDo=     1
 LinEq1:  Iter= 72 NonCon=     1 RMS=1.57D+28 Max=2.17D+29 NDo=     1
 LinEq1:  Iter= 73 NonCon=     1 RMS=1.32D+28 Max=1.48D+29 NDo=     1
 LinEq1:  Iter= 74 NonCon=     1 RMS=8.45D+27 Max=9.43D+28 NDo=     1
 LinEq1:  Iter= 75 NonCon=     1 RMS=7.93D+27 Max=7.99D+28 NDo=     1
 LinEq1:  Iter= 76 NonCon=     1 RMS=5.79D+27 Max=7.62D+28 NDo=     1
 LinEq1:  Iter= 77 NonCon=     1 RMS=6.13D+27 Max=8.99D+28 NDo=     1
 LinEq1:  Iter= 78 NonCon=     1 RMS=4.38D+27 Max=4.12D+28 NDo=     1
 LinEq1:  Iter= 79 NonCon=     1 RMS=2.84D+27 Max=4.10D+28 NDo=     1
 LinEq1:  Iter= 80 NonCon=     1 RMS=3.32D+27 Max=4.83D+28 NDo=     1
 LinEq1:  Iter= 81 NonCon=     1 RMS=2.04D+27 Max=2.12D+28 NDo=     1
 LinEq1:  Iter= 82 NonCon=     1 RMS=1.22D+27 Max=1.61D+28 NDo=     1
 LinEq1:  Iter= 83 NonCon=     1 RMS=1.31D+27 Max=1.46D+28 NDo=     1
 LinEq1:  Iter= 84 NonCon=     1 RMS=6.98D+26 Max=7.96D+27 NDo=     1
 LinEq1:  Iter= 85 NonCon=     1 RMS=6.04D+26 Max=6.13D+27 NDo=     1
 LinEq1:  Iter= 86 NonCon=     1 RMS=4.75D+26 Max=5.01D+27 NDo=     1
 LinEq1:  Iter= 87 NonCon=     1 RMS=3.81D+26 Max=3.21D+27 NDo=     1
 LinEq1:  Iter= 88 NonCon=     1 RMS=2.71D+26 Max=2.54D+27 NDo=     1
 LinEq1:  Iter= 89 NonCon=     1 RMS=2.18D+26 Max=2.64D+27 NDo=     1
 LinEq1:  Iter= 90 NonCon=     1 RMS=1.80D+26 Max=2.64D+27 NDo=     1
 LinEq1:  Iter= 91 NonCon=     1 RMS=1.56D+26 Max=1.55D+27 NDo=     1
 LinEq1:  Iter= 92 NonCon=     1 RMS=1.08D+26 Max=1.05D+27 NDo=     1
 LinEq1:  Iter= 93 NonCon=     1 RMS=6.62D+25 Max=7.64D+26 NDo=     1
 LinEq1:  Iter= 94 NonCon=     1 RMS=4.97D+25 Max=5.76D+26 NDo=     1
 LinEq1:  Iter= 95 NonCon=     1 RMS=3.15D+25 Max=3.01D+26 NDo=     1
 LinEq1:  Iter= 96 NonCon=     1 RMS=2.03D+25 Max=3.32D+26 NDo=     1
 LinEq1:  Iter= 97 NonCon=     1 RMS=1.57D+25 Max=1.89D+26 NDo=     1
 LinEq1:  Iter= 98 NonCon=     1 RMS=9.41D+24 Max=9.38D+25 NDo=     1
 LinEq1:  Iter= 99 NonCon=     1 RMS=7.02D+24 Max=5.86D+25 NDo=     1
 LinEq1:  Iter=100 NonCon=     1 RMS=3.56D+24 Max=3.40D+25 NDo=     1
 LinEq1:  Iter=101 NonCon=     1 RMS=2.44D+24 Max=3.04D+25 NDo=     1
 LinEq1:  Iter=102 NonCon=     1 RMS=1.88D+24 Max=2.05D+25 NDo=     1
 LinEq1:  Iter=103 NonCon=     1 RMS=1.21D+24 Max=2.04D+25 NDo=     1
 LinEq1:  Iter=104 NonCon=     1 RMS=1.11D+24 Max=1.45D+25 NDo=     1
 LinEq1:  Iter=105 NonCon=     1 RMS=6.02D+23 Max=7.40D+24 NDo=     1
 LinEq1:  Iter=106 NonCon=     1 RMS=3.65D+23 Max=5.05D+24 NDo=     1
 LinEq1:  Iter=107 NonCon=     1 RMS=1.75D+23 Max=1.86D+24 NDo=     1
 LinEq1:  Iter=108 NonCon=     1 RMS=1.32D+23 Max=1.66D+24 NDo=     1
 LinEq1:  Iter=109 NonCon=     1 RMS=6.70D+22 Max=9.39D+23 NDo=     1
 LinEq1:  Iter=110 NonCon=     1 RMS=3.18D+22 Max=3.53D+23 NDo=     1
 LinEq1:  Iter=111 NonCon=     1 RMS=2.45D+22 Max=2.90D+23 NDo=     1
 LinEq1:  Iter=112 NonCon=     1 RMS=1.18D+22 Max=1.14D+23 NDo=     1
 LinEq1:  Iter=113 NonCon=     1 RMS=7.38D+21 Max=6.50D+22 NDo=     1
 LinEq1:  Iter=114 NonCon=     1 RMS=2.66D+21 Max=2.91D+22 NDo=     1
 LinEq1:  Iter=115 NonCon=     1 RMS=1.54D+21 Max=2.09D+22 NDo=     1
 LinEq1:  Iter=116 NonCon=     1 RMS=6.93D+20 Max=6.92D+21 NDo=     1
 LinEq1:  Iter=117 NonCon=     1 RMS=3.57D+20 Max=4.19D+21 NDo=     1
 LinEq1:  Iter=118 NonCon=     1 RMS=1.88D+20 Max=4.01D+21 NDo=     1
 LinEq1:  Iter=119 NonCon=     1 RMS=1.35D+20 Max=2.34D+21 NDo=     1
 LinEq1:  Iter=120 NonCon=     1 RMS=6.10D+19 Max=9.11D+20 NDo=     1
 LinEq1:  Iter=121 NonCon=     1 RMS=4.61D+19 Max=9.72D+20 NDo=     1
 LinEq1:  Iter=122 NonCon=     1 RMS=2.68D+19 Max=4.10D+20 NDo=     1
 LinEq1:  Iter=123 NonCon=     1 RMS=1.44D+19 Max=1.71D+20 NDo=     1
 LinEq1:  Iter=124 NonCon=     1 RMS=9.04D+18 Max=7.41D+19 NDo=     1
 LinEq1:  Iter=125 NonCon=     1 RMS=4.17D+18 Max=3.22D+19 NDo=     1
 LinEq1:  Iter=126 NonCon=     1 RMS=2.29D+18 Max=2.92D+19 NDo=     1
 LinEq1:  Iter=127 NonCon=     1 RMS=1.14D+18 Max=1.07D+19 NDo=     1
 LinEq1:  Iter=128 NonCon=     1 RMS=7.58D+17 Max=7.35D+18 NDo=     1
 LinEq1:  Iter=129 NonCon=     1 RMS=3.41D+17 Max=3.58D+18 NDo=     1
 LinEq1:  Iter=130 NonCon=     1 RMS=1.72D+17 Max=1.92D+18 NDo=     1
 LinEq1:  Iter=131 NonCon=     1 RMS=7.99D+16 Max=7.41D+17 NDo=     1
 LinEq1:  Iter=132 NonCon=     1 RMS=3.81D+16 Max=3.80D+17 NDo=     1
 LinEq1:  Iter=133 NonCon=     1 RMS=2.17D+16 Max=1.91D+17 NDo=     1
 LinEq1:  Iter=134 NonCon=     1 RMS=1.06D+16 Max=1.01D+17 NDo=     1
 LinEq1:  Iter=135 NonCon=     1 RMS=7.02D+15 Max=9.15D+16 NDo=     1
 LinEq1:  Iter=136 NonCon=     1 RMS=4.24D+15 Max=3.53D+16 NDo=     1
 LinEq1:  Iter=137 NonCon=     1 RMS=1.60D+15 Max=2.06D+16 NDo=     1
 LinEq1:  Iter=138 NonCon=     1 RMS=7.31D+14 Max=7.55D+15 NDo=     1
 LinEq1:  Iter=139 NonCon=     1 RMS=2.65D+14 Max=2.35D+15 NDo=     1
 LinEq1:  Iter=140 NonCon=     1 RMS=1.02D+14 Max=8.09D+14 NDo=     1
 LinEq1:  Iter=141 NonCon=     1 RMS=4.47D+13 Max=4.93D+14 NDo=     1
 LinEq1:  Iter=142 NonCon=     1 RMS=2.29D+13 Max=2.49D+14 NDo=     1
 LinEq1:  Iter=143 NonCon=     1 RMS=9.78D+12 Max=9.20D+13 NDo=     1
 LinEq1:  Iter=144 NonCon=     1 RMS=4.03D+12 Max=3.56D+13 NDo=     1
 LinEq1:  Iter=145 NonCon=     1 RMS=1.85D+12 Max=1.98D+13 NDo=     1
 LinEq1:  Iter=146 NonCon=     1 RMS=9.61D+11 Max=8.50D+12 NDo=     1
 LinEq1:  Iter=147 NonCon=     1 RMS=3.67D+11 Max=3.59D+12 NDo=     1
 LinEq1:  Iter=148 NonCon=     1 RMS=1.55D+11 Max=1.29D+12 NDo=     1
 LinEq1:  Iter=149 NonCon=     1 RMS=6.38D+10 Max=6.17D+11 NDo=     1
 LinEq1:  Iter=150 NonCon=     1 RMS=2.77D+10 Max=2.63D+11 NDo=     1
 LinEq1:  Iter=151 NonCon=     1 RMS=1.13D+10 Max=9.07D+10 NDo=     1
 LinEq1:  Iter=152 NonCon=     1 RMS=4.21D+09 Max=3.36D+10 NDo=     1
 LinEq1:  Iter=153 NonCon=     1 RMS=1.64D+09 Max=1.18D+10 NDo=     1
 LinEq1:  Iter=154 NonCon=     1 RMS=6.76D+08 Max=5.93D+09 NDo=     1
 LinEq1:  Iter=155 NonCon=     1 RMS=2.79D+08 Max=2.12D+09 NDo=     1
 LinEq1:  Iter=156 NonCon=     1 RMS=9.14D+07 Max=1.01D+09 NDo=     1
 LinEq1:  Iter=157 NonCon=     1 RMS=3.27D+07 Max=4.13D+08 NDo=     1
 LinEq1:  Iter=158 NonCon=     1 RMS=1.42D+07 Max=1.75D+08 NDo=     1
 LinEq1:  Iter=159 NonCon=     1 RMS=6.06D+06 Max=5.53D+07 NDo=     1
 LinEq1:  Iter=160 NonCon=     1 RMS=2.50D+06 Max=2.41D+07 NDo=     1
 LinEq1:  Iter=161 NonCon=     1 RMS=9.12D+05 Max=8.39D+06 NDo=     1
 LinEq1:  Iter=162 NonCon=     1 RMS=3.60D+05 Max=4.05D+06 NDo=     1
 LinEq1:  Iter=163 NonCon=     1 RMS=1.78D+05 Max=1.46D+06 NDo=     1
 LinEq1:  Iter=164 NonCon=     1 RMS=6.73D+04 Max=8.59D+05 NDo=     1
 LinEq1:  Iter=165 NonCon=     1 RMS=2.42D+04 Max=2.55D+05 NDo=     1
 LinEq1:  Iter=166 NonCon=     1 RMS=8.16D+03 Max=9.16D+04 NDo=     1
 LinEq1:  Iter=167 NonCon=     1 RMS=3.03D+03 Max=2.54D+04 NDo=     1
 LinEq1:  Iter=168 NonCon=     1 RMS=1.25D+03 Max=1.47D+04 NDo=     1
 LinEq1:  Iter=169 NonCon=     1 RMS=5.86D+02 Max=5.55D+03 NDo=     1
 LinEq1:  Iter=170 NonCon=     1 RMS=2.19D+02 Max=2.07D+03 NDo=     1
 LinEq1:  Iter=171 NonCon=     1 RMS=6.63D+01 Max=5.70D+02 NDo=     1
 LinEq1:  Iter=172 NonCon=     1 RMS=1.83D+01 Max=1.46D+02 NDo=     1
 LinEq1:  Iter=173 NonCon=     1 RMS=7.33D+00 Max=8.15D+01 NDo=     1
 LinEq1:  Iter=174 NonCon=     1 RMS=2.67D+00 Max=1.77D+01 NDo=     1
 LinEq1:  Iter=175 NonCon=     1 RMS=7.03D-01 Max=5.45D+00 NDo=     1
 LinEq1:  Iter=176 NonCon=     1 RMS=2.85D-01 Max=2.86D+00 NDo=     1
 LinEq1:  Iter=177 NonCon=     1 RMS=9.95D-02 Max=7.84D-01 NDo=     1
 LinEq1:  Iter=178 NonCon=     1 RMS=2.26D-02 Max=1.62D-01 NDo=     1
 LinEq1:  Iter=179 NonCon=     1 RMS=8.07D-03 Max=7.10D-02 NDo=     1
 LinEq1:  Iter=180 NonCon=     1 RMS=3.38D-03 Max=2.47D-02 NDo=     1
 LinEq1:  Iter=181 NonCon=     1 RMS=7.90D-04 Max=4.75D-03 NDo=     1
 LinEq1:  Iter=182 NonCon=     1 RMS=2.27D-04 Max=1.84D-03 NDo=     1
 LinEq1:  Iter=183 NonCon=     1 RMS=9.10D-05 Max=8.25D-04 NDo=     1
 LinEq1:  Iter=184 NonCon=     1 RMS=3.27D-05 Max=2.41D-04 NDo=     1
 LinEq1:  Iter=185 NonCon=     1 RMS=7.69D-06 Max=8.72D-05 NDo=     1
 LinEq1:  Iter=186 NonCon=     1 RMS=3.35D-06 Max=4.29D-05 NDo=     1
 LinEq1:  Iter=187 NonCon=     1 RMS=9.63D-07 Max=8.62D-06 NDo=     1
 LinEq1:  Iter=188 NonCon=     1 RMS=2.68D-07 Max=1.95D-06 NDo=     1
 LinEq1:  Iter=189 NonCon=     1 RMS=7.05D-08 Max=4.42D-07 NDo=     1
[...]
 LinEq1:  Iter=168 NonCon=     1 RMS=4.45D+02 Max=4.90D+03 NDo=     1
 LinEq1:  Iter=169 NonCon=     1 RMS=2.02D+02 Max=1.88D+03 NDo=     1
 LinEq1:  Iter=170 NonCon=     1 RMS=7.61D+01 Max=6.42D+02 NDo=     1
 LinEq1:  Iter=171 NonCon=     1 RMS=3.16D+01 Max=2.88D+02 NDo=     1
 LinEq1:  Iter=172 NonCon=     1 RMS=1.12D+01 Max=9.98D+01 NDo=     1
 LinEq1:  Iter=173 NonCon=     1 RMS=3.45D+00 Max=2.25D+01 NDo=     1
 LinEq1:  Iter=174 NonCon=     1 RMS=1.13D+00 Max=7.90D+00 NDo=     1
 LinEq1:  Iter=175 NonCon=     1 RMS=3.87D-01 Max=2.86D+00 NDo=     1
 LinEq1:  Iter=176 NonCon=     1 RMS=1.47D-01 Max=1.13D+00 NDo=     1
 LinEq1:  Iter=177 NonCon=     1 RMS=5.19D-02 Max=3.68D-01 NDo=     1
 LinEq1:  Iter=178 NonCon=     1 RMS=1.87D-02 Max=1.55D-01 NDo=     1
 LinEq1:  Iter=179 NonCon=     1 RMS=6.26D-03 Max=5.02D-02 NDo=     1
 LinEq1:  Iter=180 NonCon=     1 RMS=2.03D-03 Max=1.18D-02 NDo=     1
 LinEq1:  Iter=181 NonCon=     1 RMS=7.13D-04 Max=5.12D-03 NDo=     1
 LinEq1:  Iter=182 NonCon=     1 RMS=2.38D-04 Max=1.48D-03 NDo=     1
 LinEq1:  Iter=183 NonCon=     1 RMS=7.49D-05 Max=5.52D-04 NDo=     1
 LinEq1:  Iter=184 NonCon=     1 RMS=2.58D-05 Max=1.90D-04 NDo=     1
 LinEq1:  Iter=185 NonCon=     1 RMS=8.96D-06 Max=7.41D-05 NDo=     1
 LinEq1:  Iter=186 NonCon=     1 RMS=3.31D-06 Max=3.21D-05 NDo=     1
 LinEq1:  Iter=187 NonCon=     1 RMS=1.04D-06 Max=6.50D-06 NDo=     1
 LinEq1:  Iter=188 NonCon=     1 RMS=3.27D-07 Max=2.39D-06 NDo=     1
 LinEq1:  Iter=189 NonCon=     1 RMS=1.33D-07 Max=9.96D-07 NDo=     1
 LinEq1:  Iter=190 NonCon=     1 RMS=4.44D-08 Max=2.49D-07 NDo=     1
 LinEq1:  Iter=191 NonCon=     1 RMS=1.56D-08 Max=1.59D-07 NDo=     1
 LinEq1:  Iter=192 NonCon=     0 RMS=5.16D-09 Max=3.79D-08 NDo=     1
 Linear equations converged to 9.710D-09 9.710D-08 after   192 iterations.
 Angle between quadratic step and gradient=  34.31 degrees.
     ILin= 1 X=0.000D+00 Y=-1.740766073876D+02 DE= 0.00D+00 F= -1.95D-07
     ILin= 2 X=1.000D+00 Y=-1.740766074849D+02 DE=-9.74D-08
 Iteration  14 EE= -174.076607484941     Delta-E=       -0.000000097386 Grad=3.211D-08 Max rot=    0.0000 deg.
 Rotation gradient small -- convergence achieved.
 Orbital symmetries in SymMO:
    1=4    2=1    3=1    4=4    5=1    6=1    7=1    8=4    9=1   10=4
   11=1   12=4   13=1   14=1   15=4   16=3   17=2   18=3   19=4   20=1
   21=1   22=2   23=3   24=4   25=1   26=4   27=1   28=1   29=4   30=1
   31=4   32=4   33=3   34=2   35=3   36=1   37=1   38=4   39=2   40=1
   41=3   42=4   43=4   44=1   45=4   46=1   47=1   48=4   49=1   50=1
   51=1   52=4   53=1   54=4   55=1   56=1   57=4
 Orbital symmetries in SymMO:
    1=4    2=1    3=1    4=4    5=1    6=1    7=1    8=4    9=1   10=4
   11=1   12=4   13=1   14=1   15=4   16=3   17=2   18=3   19=4   20=1
   21=1   22=2   23=3   24=4   25=1   26=4   27=1   28=1   29=4   30=1
   31=4   32=4   33=3   34=2   35=3   36=1   37=1   38=4   39=2   40=1
   41=3   42=4   43=4   44=1   45=4   46=1   47=1   48=4   49=1   50=1
   51=1   52=4   53=1   54=4   55=1   56=1   57=4
 SCF Done:  E(ULC-wHPBE) =  -174.076607485     a.u. after   14 cycles
            Convg  =    0.3211D-07                   789 Fock formations.
              S**2 =  0.0000                  -V/T =  1.9111
 <Sx>= 0.0000 <Sy>= 0.0000 <Sz>= 0.0000 <S**2>= 0.0000 S= 0.0000
 <L.S>= 0.000000000000E+00
 Annihilation of the first spin contaminant:
 S**2 before annihilation     0.0000,   after     0.0000
 Leave Link  508 at Thu Mar  5 12:58:51 2020, MaxMem=  6710886400 cpu:            4179.9 elap:             269.4
 (Enter /opt/ohpc/pub/libs/gaussian/g16-A.03/sandybridge/g16/l601.exe)
 Copying SCF densities to generalized density rwf, IOpCl= 1 IROHF=0.

 **********************************************************************

            Population analysis using the SCF density.

 **********************************************************************

 Orbital symmetries:
 Alpha Orbitals:
       Occupied  (B2) (A1) (A1) (B2) (A1) (A1) (A1) (B2) (A1) (B2)
                 (A1) (B2) (A1) (A1) (B2) (B1) (A2) (B1)
       Virtual   (B2) (A1) (A1) (A2) (B1) (B2) (A1) (B2) (A1) (A1)
                 (B2) (A1) (B2) (B2) (B1) (A2) (B1) (A1) (A1) (B2)
                 (A2) (A1) (B1) (B2) (B2) (A1) (B2) (A1) (A1) (B2)
                 (A1) (A1) (A1) (B2) (A1) (B2) (A1) (A1) (B2)
 Beta  Orbitals:
       Occupied  (B2) (A1) (A1) (B2) (A1) (A1) (A1) (B2) (A1) (B2)
                 (A1) (B2) (A1) (A1) (B2) (B1) (A2) (B1)
       Virtual   (B2) (A1) (A1) (A2) (B1) (B2) (A1) (B2) (A1) (A1)
                 (B2) (A1) (B2) (B2) (B1) (A2) (B1) (A1) (A1) (B2)
                 (A2) (A1) (B1) (B2) (B2) (A1) (B2) (A1) (A1) (B2)
                 (A1) (A1) (A1) (B2) (A1) (B2) (A1) (A1) (B2)
 The electronic state is 1-A1.
 Alpha  occ. eigenvalues --   -9.24012  -9.24001  -9.19440  -9.19437  -9.17766
 Alpha  occ. eigenvalues --   -0.12787  -0.01732   0.01619   0.11970   0.13604
 Alpha  occ. eigenvalues --    0.15727   0.23927   0.23935   0.27343   0.28409
 Alpha  occ. eigenvalues --    0.29770   0.38730   0.40439
 Alpha virt. eigenvalues --    0.32825   0.35209   0.35944   0.36465   0.40544
 Alpha virt. eigenvalues --    0.40702   0.42132   0.43473   0.44292   0.57426
 Alpha virt. eigenvalues --    0.58877   0.68650   0.69472   0.76980   0.77387
 Alpha virt. eigenvalues --    0.84183   0.84802   0.86904   0.88958   0.90074
 Alpha virt. eigenvalues --    0.90256   0.91217   0.92447   1.02488   1.05999
 Alpha virt. eigenvalues --    1.08576   1.10953   1.11167   1.13121   1.19770
 Alpha virt. eigenvalues --    1.20531   1.24819   1.28615   1.34666   1.42745
 Alpha virt. eigenvalues --    1.44743   1.51231   1.71961   1.73228
  Beta  occ. eigenvalues --   -9.24012  -9.24001  -9.19440  -9.19437  -9.17766
  Beta  occ. eigenvalues --   -0.12787  -0.01732   0.01619   0.11970   0.13604
  Beta  occ. eigenvalues --    0.15727   0.23927   0.23935   0.27343   0.28409
  Beta  occ. eigenvalues --    0.29770   0.38730   0.40439
  Beta virt. eigenvalues --    0.32825   0.35209   0.35944   0.36465   0.40544
  Beta virt. eigenvalues --    0.40702   0.42132   0.43473   0.44292   0.57426
  Beta virt. eigenvalues --    0.58877   0.68650   0.69472   0.76980   0.77387
  Beta virt. eigenvalues --    0.84183   0.84802   0.86904   0.88958   0.90074
  Beta virt. eigenvalues --    0.90256   0.91217   0.92447   1.02488   1.05999
  Beta virt. eigenvalues --    1.08576   1.10953   1.11167   1.13121   1.19770
  Beta virt. eigenvalues --    1.20531   1.24819   1.28615   1.34666   1.42745
  Beta virt. eigenvalues --    1.44743   1.51231   1.71961   1.73228
          Condensed to atoms (all electrons):
               1          2          3          4          5          6
     1  C    5.558622   0.402622  -0.002027  -0.132185   0.215621   0.058994
     2  C    0.402622   5.018961   0.498039   0.059748  -0.132185  -0.000933
     3  C   -0.002027   0.498039   4.724864   0.498039  -0.002027  -0.012031
     4  C   -0.132185   0.059748   0.498039   5.018961   0.402622  -0.000933
     5  C    0.215621  -0.132185  -0.002027   0.402622   5.558622   0.058994
     6  H    0.058994  -0.000933  -0.012031  -0.000933   0.058994   0.651441
     7  H    0.220596  -0.033944   0.011289   0.007686  -0.069051   0.032748
     8  H   -0.071058   0.255880  -0.045942   0.014452   0.009466   0.003950
     9  H    0.019097  -0.089362   0.295138  -0.089362   0.019097  -0.001549
    10  H    0.009466   0.014452  -0.045942   0.255880  -0.071058   0.003950
    11  H   -0.069051   0.007686   0.011289  -0.033944   0.220596   0.032748
               7          8          9         10         11
     1  C    0.220596  -0.071058   0.019097   0.009466  -0.069051
     2  C   -0.033944   0.255880  -0.089362   0.014452   0.007686
     3  C    0.011289  -0.045942   0.295138  -0.045942   0.011289
     4  C    0.007686   0.014452  -0.089362   0.255880  -0.033944
     5  C   -0.069051   0.009466   0.019097  -0.071058   0.220596
     6  H    0.032748   0.003950  -0.001549   0.003950   0.032748
     7  H    0.756982  -0.005384  -0.000432  -0.000274   0.002308
     8  H   -0.005384   0.827266  -0.012133  -0.000839  -0.000274
     9  H   -0.000432  -0.012133   0.894878  -0.012133  -0.000432
    10  H   -0.000274  -0.000839  -0.012133   0.827266  -0.005384
    11  H    0.002308  -0.000274  -0.000432  -0.005384   0.756982
          Atomic-Atomic Spin Densities.
               1          2          3          4          5          6
     1  C   -0.000000   0.000000   0.000000  -0.000000   0.000000   0.000000
     2  C    0.000000  -0.000000  -0.000000   0.000000  -0.000000  -0.000000
     3  C    0.000000  -0.000000   0.000000  -0.000000   0.000000   0.000000
     4  C   -0.000000   0.000000  -0.000000  -0.000000   0.000000  -0.000000
     5  C    0.000000  -0.000000   0.000000   0.000000  -0.000000   0.000000
     6  H    0.000000  -0.000000   0.000000  -0.000000   0.000000   0.000000
     7  H   -0.000000  -0.000000   0.000000  -0.000000   0.000000   0.000000
     8  H    0.000000  -0.000000  -0.000000   0.000000  -0.000000  -0.000000
     9  H   -0.000000   0.000000  -0.000000   0.000000  -0.000000  -0.000000
    10  H   -0.000000   0.000000  -0.000000  -0.000000   0.000000  -0.000000
    11  H    0.000000  -0.000000   0.000000  -0.000000  -0.000000   0.000000
               7          8          9         10         11
     1  C   -0.000000   0.000000  -0.000000  -0.000000   0.000000
     2  C   -0.000000  -0.000000   0.000000   0.000000  -0.000000
     3  C    0.000000  -0.000000  -0.000000  -0.000000   0.000000
     4  C   -0.000000   0.000000   0.000000  -0.000000  -0.000000
     5  C    0.000000  -0.000000  -0.000000   0.000000  -0.000000
     6  H    0.000000  -0.000000  -0.000000  -0.000000   0.000000
     7  H    0.000000  -0.000000   0.000000  -0.000000   0.000000
     8  H   -0.000000  -0.000000   0.000000  -0.000000  -0.000000
     9  H    0.000000   0.000000  -0.000000   0.000000   0.000000
    10  H   -0.000000  -0.000000   0.000000  -0.000000  -0.000000
    11  H    0.000000  -0.000000   0.000000  -0.000000   0.000000
 Mulliken charges and spin densities:
               1          2
     1  C   -0.210696   0.000000
     2  C   -0.000962  -0.000000
     3  C    0.069311   0.000000
     4  C   -0.000962  -0.000000
     5  C   -0.210696   0.000000
     6  H    0.172620   0.000000
     7  H    0.077478   0.000000
     8  H    0.024618  -0.000000
     9  H   -0.022804  -0.000000
    10  H    0.024618  -0.000000
    11  H    0.077478   0.000000
 Sum of Mulliken charges =   0.00000   0.00000
 Mulliken charges and spin densities with hydrogens summed into heavy atoms:
               1          2
     1  C    0.039402   0.000000
     2  C    0.023655  -0.000000
     3  C    0.046506   0.000000
     4  C    0.023655  -0.000000
     5  C   -0.133219   0.000000
 Electronic spatial extent (au):  <R**2>=            347.5408
 Charge=              0.0000 electrons
 Dipole moment (field-independent basis, Debye):
    X=             -0.0000    Y=             -0.0000    Z=             -1.7608  Tot=              1.7608
 Quadrupole moment (field-independent basis, Debye-Ang):
   XX=            -38.8472   YY=            -31.8694   ZZ=            -29.8084
   XY=              0.0000   XZ=              0.0000   YZ=             -0.0000
 Traceless Quadrupole moment (field-independent basis, Debye-Ang):
   XX=             -5.3389   YY=              1.6389   ZZ=              3.7000
   XY=              0.0000   XZ=              0.0000   YZ=             -0.0000
 Octapole moment (field-independent basis, Debye-Ang**2):
  XXX=              0.0000  YYY=              0.0000  ZZZ=             -7.1595  XYY=              0.0000
  XXY=              0.0000  XXZ=              0.8967  XZZ=              0.0000  YZZ=              0.0000
  YYZ=             -1.4504  XYZ=             -0.0000
 Hexadecapole moment (field-independent basis, Debye-Ang**3):
 XXXX=            -45.1684 YYYY=           -245.7370 ZZZZ=           -231.9712 XXXY=             -0.0000
 XXXZ=             -0.0000 YYYX=             -0.0000 YYYZ=             -0.0000 ZZZX=             -0.0000
 ZZZY=             -0.0000 XXYY=            -55.0362 XXZZ=            -53.3861 YYZZ=            -78.0410
 XXYZ=              0.0000 YYXZ=             -0.0000 ZZXY=             -0.0000
 N-N= 1.560127424860D+02 E-N=-7.560200600336D+02  KE= 1.910529173282D+02
 Symmetry A1   KE= 1.103272319425D+02
 Symmetry A2   KE= 2.186030373135D+00
 Symmetry B1   KE= 3.735075349206D+00
 Symmetry B2   KE= 7.480457966337D+01
 Symmetry A1   SP=-1.642185941149D-18
 Symmetry A2   SP= 1.110802635480D-16
 Symmetry B1   SP= 8.272237505390D-17
 Symmetry B2   SP= 1.335601844066D-15
                          Isotropic Fermi Contact Couplings
        Atom                 a.u.       MegaHertz       Gauss      10(-4) cm-1
     1  C(13)              0.00000       0.00000       0.00000       0.00000
     2  C(13)             -0.00000      -0.00000      -0.00000      -0.00000
     3  C(13)              0.00000       0.00001       0.00000       0.00000
     4  C(13)             -0.00000      -0.00000      -0.00000      -0.00000
     5  C(13)              0.00000       0.00000       0.00000       0.00000
     6  H(1)              -0.00000      -0.00000      -0.00000      -0.00000
     7  H(1)              -0.00000      -0.00000      -0.00000      -0.00000
     8  H(1)              -0.00000      -0.00000      -0.00000      -0.00000
     9  H(1)              -0.00000      -0.00000      -0.00000      -0.00000
    10  H(1)              -0.00000      -0.00000      -0.00000      -0.00000
    11  H(1)              -0.00000      -0.00000      -0.00000      -0.00000
 --------------------------------------------------------
       Center         ----  Spin Dipole Couplings  ----
                      3XX-RR        3YY-RR        3ZZ-RR
 --------------------------------------------------------
     1   Atom        0.000000     -0.000000     -0.000000
     2   Atom        0.000000     -0.000000     -0.000000
     3   Atom        0.000000     -0.000000      0.000000
     4   Atom        0.000000     -0.000000     -0.000000
     5   Atom        0.000000     -0.000000     -0.000000
     6   Atom       -0.000000     -0.000000      0.000000
     7   Atom       -0.000000      0.000000      0.000000
     8   Atom        0.000000     -0.000000      0.000000
     9   Atom        0.000000      0.000000     -0.000000
    10   Atom        0.000000     -0.000000      0.000000
    11   Atom       -0.000000      0.000000      0.000000
 --------------------------------------------------------
                        XY            XZ            YZ
 --------------------------------------------------------
     1   Atom        0.000000      0.000000      0.000000
     2   Atom       -0.000000      0.000000     -0.000000
     3   Atom       -0.000000     -0.000000      0.000000
     4   Atom       -0.000000      0.000000      0.000000
     5   Atom        0.000000     -0.000000     -0.000000
     6   Atom       -0.000000      0.000000     -0.000000
     7   Atom       -0.000000      0.000000     -0.000000
     8   Atom       -0.000000     -0.000000     -0.000000
     9   Atom        0.000000      0.000000      0.000000
    10   Atom        0.000000     -0.000000      0.000000
    11   Atom        0.000000      0.000000      0.000000
 --------------------------------------------------------


 ---------------------------------------------------------------------------------
              Anisotropic Spin Dipole Couplings in Principal Axis System
 ---------------------------------------------------------------------------------

       Atom             a.u.   MegaHertz   Gauss  10(-4) cm-1        Axes

              Baa    -0.0000    -0.000    -0.000    -0.000 -0.0000 -0.3493  0.9370
     1 C(13)  Bbb     0.0000     0.000     0.000     0.000 -0.0000  0.9370  0.3493
              Bcc     0.0000     0.000     0.000     0.000  1.0000  0.0000  0.0000
 
              Baa    -0.0000    -0.000    -0.000    -0.000  0.0000  0.8110  0.5850
     2 C(13)  Bbb    -0.0000    -0.000    -0.000    -0.000 -0.0000 -0.5850  0.8110
              Bcc     0.0000     0.000     0.000     0.000  1.0000 -0.0000  0.0000
 
              Baa    -0.0000    -0.000    -0.000    -0.000  0.0000  1.0000 -0.0000
     3 C(13)  Bbb     0.0000     0.000     0.000     0.000  0.0000  0.0000  1.0000
              Bcc     0.0000     0.000     0.000     0.000  1.0000 -0.0000 -0.0000
 
              Baa    -0.0000    -0.000    -0.000    -0.000  0.0000  0.8110 -0.5850
     4 C(13)  Bbb    -0.0000    -0.000    -0.000    -0.000 -0.0000  0.5850  0.8110
              Bcc     0.0000     0.000     0.000     0.000  1.0000 -0.0000  0.0000
 
              Baa    -0.0000    -0.000    -0.000    -0.000  0.0000  0.3493  0.9370
     5 C(13)  Bbb     0.0000     0.000     0.000     0.000 -0.0000  0.9370 -0.3493
              Bcc     0.0000     0.000     0.000     0.000  1.0000  0.0000 -0.0000
 
              Baa    -0.0000    -0.000    -0.000    -0.000  1.0000  0.0000 -0.0000
     6 H(1)   Bbb    -0.0000    -0.000    -0.000    -0.000 -0.0000  1.0000  0.0000
              Bcc     0.0000     0.000     0.000     0.000  0.0000 -0.0000  1.0000
 
              Baa    -0.0000    -0.000    -0.000    -0.000  1.0000  0.0000  0.0000
     7 H(1)   Bbb    -0.0000    -0.000    -0.000    -0.000 -0.0000  0.7579  0.6523
              Bcc     0.0000     0.000     0.000     0.000  0.0000 -0.6523  0.7579
 
              Baa    -0.0000    -0.000    -0.000    -0.000  0.0000  0.9463  0.3234
     8 H(1)   Bbb     0.0000     0.000     0.000     0.000  1.0000 -0.0000  0.0000
              Bcc     0.0000     0.000     0.000     0.000 -0.0000 -0.3234  0.9463
 
              Baa    -0.0000    -0.000    -0.000    -0.000 -0.0000 -0.0000  1.0000
     9 H(1)   Bbb     0.0000     0.000     0.000     0.000  1.0000 -0.0000  0.0000
              Bcc     0.0000     0.000     0.000     0.000  0.0000  1.0000  0.0000
 
              Baa    -0.0000    -0.000    -0.000    -0.000 -0.0000  0.9463 -0.3234
    10 H(1)   Bbb     0.0000     0.000     0.000     0.000  1.0000  0.0000  0.0000
              Bcc     0.0000     0.000     0.000     0.000 -0.0000  0.3234  0.9463
 
              Baa    -0.0000    -0.000    -0.000    -0.000  1.0000 -0.0000  0.0000
    11 H(1)   Bbb    -0.0000    -0.000    -0.000    -0.000  0.0000  0.7579 -0.6523
              Bcc     0.0000     0.000     0.000     0.000  0.0000  0.6523  0.7579
 

 ---------------------------------------------------------------------------------

 No NMR shielding tensors so no spin-rotation constants.
 Leave Link  601 at Thu Mar  5 12:58:51 2020, MaxMem=  6710886400 cpu:               3.0 elap:               0.2
 (Enter /opt/ohpc/pub/libs/gaussian/g16-A.03/sandybridge/g16/l9999.exe)

 Test job not archived.
 1\1\GINC-CNODE212\SP\ULC-wHPBE\6-31G\C5H6\SMGO234\05-Mar-2020\0\\#P uL
 C-wHPBE/6-31G iop(3/130=0101500000, 3/131=0101500000, 3/119=0898500000
 , 3/120=0898500000) scf=(conver=6,fermi,ndamp=35,noincfock,novaracc,vs
 hift=500,xqc)\\H6 C5\\0,1\C,0,0.,0.878804,-0.931542\C,0,0.,1.128157,0.
 423457\C,0,0.,0.,1.240879\C,0,0.,-1.128157,0.423457\C,0,0.,-0.878804,-
 0.931542\H,0,0.,0.,-1.732269\H,0,0.,1.6083,-1.734053\H,0,0.,2.156626,0
 .76567\H,0,0.,0.,2.320778\H,0,0.,-2.156626,0.76567\H,0,0.,-1.6083,-1.7
 34053\\Version=EM64L-G16RevA.03\State=1-A1\HF=-174.0766075\S2=0.\S2-1=
 0.\S2A=0.\RMSD=8.569e-10\Dipole=0.,0.,-0.6927465\Quadrupole=-3.9693543
 ,1.2185139,2.7508403,0.,0.,0.\PG=C02V [C2(H1C1H1),SGV(C4H4)]\\@


 STEINBACH'S GUIDELINES FOR SYSTEMS PROGRAMMING:
 NEVER TEST FOR AN ERROR CONDITION YOU DON'T KNOW HOW
 TO HANDLE.
 Job cpu time:       0 days  1 hours 11 minutes  8.5 seconds.
 Elapsed time:       0 days  0 hours  4 minutes 35.5 seconds.
 File lengths (MBytes):  RWF=    272 Int=      0 D2E=      0 Chk=     32 Scr=     32
 Normal termination of Gaussian 16 at Thu Mar  5 12:58:51 2020.
