 Entering Gaussian System, Link 0=g16
 Input=a1b_tune_c4.gjf
 Output=a1b_tune_c4.log
 Initial command:
 /opt/ohpc/pub/libs/gaussian/g16-A.03/sandybridge/g16/l1.exe "/scratch/smgo234/Ocelot/test/a1b/tuning_a1b_acycle2/Gau-85608.inp" -scrdir="/scratch/smgo234/Ocelot/test/a1b/tuning_a1b_acycle2/"
 Entering Link 1 = /opt/ohpc/pub/libs/gaussian/g16-A.03/sandybridge/g16/l1.exe PID=     85609.
  
 Copyright (c) 1988,1990,1992,1993,1995,1998,2003,2009,2016,
            Gaussian, Inc.  All Rights Reserved.
  
 This is part of the Gaussian(R) 16 program.  It is based on
 the Gaussian(R) 09 system (copyright 2009, Gaussian, Inc.),
 the Gaussian(R) 03 system (copyright 2003, Gaussian, Inc.),
 the Gaussian(R) 98 system (copyright 1998, Gaussian, Inc.),
 the Gaussian(R) 94 system (copyright 1995, Gaussian, Inc.),
 the Gaussian 92(TM) system (copyright 1992, Gaussian, Inc.),
 the Gaussian 90(TM) system (copyright 1990, Gaussian, Inc.),
 the Gaussian 88(TM) system (copyright 1988, Gaussian, Inc.),
 the Gaussian 86(TM) system (copyright 1986, Carnegie Mellon
 University), and the Gaussian 82(TM) system (copyright 1983,
 Carnegie Mellon University). Gaussian is a federally registered
 trademark of Gaussian, Inc.
  
 This software contains proprietary and confidential information,
 including trade secrets, belonging to Gaussian, Inc.
  
 This software is provided under written license and may be
 used, copied, transmitted, or stored only in accord with that
 written license.
  
 The following legend is applicable only to US Government
 contracts under FAR:
  
                    RESTRICTED RIGHTS LEGEND
  
 Use, reproduction and disclosure by the US Government is
 subject to restrictions as set forth in subparagraphs (a)
 and (c) of the Commercial Computer Software - Restricted
 Rights clause in FAR 52.227-19.
  
 Gaussian, Inc.
 340 Quinnipiac St., Bldg. 40, Wallingford CT 06492
  
  
 ---------------------------------------------------------------
 Warning -- This program may not be used in any manner that
 competes with the business of Gaussian, Inc. or will provide
 assistance to any competitor of Gaussian, Inc.  The licensee
 of this program is prohibited from giving any competitor of
 Gaussian, Inc. access to this program.  By using this program,
 the user acknowledges that Gaussian, Inc. is engaged in the
 business of creating and licensing software in the field of
 computational chemistry and represents and warrants to the
 licensee that it is not a competitor of Gaussian, Inc. and that
 it will not use this program in any manner prohibited above.
 ---------------------------------------------------------------
  

 Cite this work as:
 Gaussian 16, Revision A.03,
 M. J. Frisch, G. W. Trucks, H. B. Schlegel, G. E. Scuseria, 
 M. A. Robb, J. R. Cheeseman, G. Scalmani, V. Barone, 
 G. A. Petersson, H. Nakatsuji, X. Li, M. Caricato, A. V. Marenich, 
 J. Bloino, B. G. Janesko, R. Gomperts, B. Mennucci, H. P. Hratchian, 
 J. V. Ortiz, A. F. Izmaylov, J. L. Sonnenberg, D. Williams-Young, 
 F. Ding, F. Lipparini, F. Egidi, J. Goings, B. Peng, A. Petrone, 
 T. Henderson, D. Ranasinghe, V. G. Zakrzewski, J. Gao, N. Rega, 
 G. Zheng, W. Liang, M. Hada, M. Ehara, K. Toyota, R. Fukuda, 
 J. Hasegawa, M. Ishida, T. Nakajima, Y. Honda, O. Kitao, H. Nakai, 
 T. Vreven, K. Throssell, J. A. Montgomery, Jr., J. E. Peralta, 
 F. Ogliaro, M. J. Bearpark, J. J. Heyd, E. N. Brothers, K. N. Kudin, 
 V. N. Staroverov, T. A. Keith, R. Kobayashi, J. Normand, 
 K. Raghavachari, A. P. Rendell, J. C. Burant, S. S. Iyengar, 
 J. Tomasi, M. Cossi, J. M. Millam, M. Klene, C. Adamo, R. Cammi, 
 J. W. Ochterski, R. L. Martin, K. Morokuma, O. Farkas, 
 J. B. Foresman, and D. J. Fox, Gaussian, Inc., Wallingford CT, 2016.
 
 ******************************************
 Gaussian 16:  EM64L-G16RevA.03 25-Dec-2016
                 5-Mar-2020 
 ******************************************
 %mem=50GB
 %nproc=16
 Will use up to   16 processors via shared memory.
 ----------------------------------------------------------------------
 #P uLC-wHPBE/6-31G iop(3/130=0159800000, 3/131=0159800000, 3/119=08402
 00000, 3/120=0840200000) scf=(conver=6,fermi,ndamp=35,noincfock,novara
 cc,vshift=500,xqc)
 ----------------------------------------------------------------------
 1/38=1,172=1/1;
 2/12=2,17=6,18=5,40=1/2;
 3/5=1,6=6,11=2,25=1,30=1,74=-71,116=2,119=840200000,120=840200000,130=159800000,131=159800000/1,2,3;
 4//1;
 5/5=100002,6=6,8=3,10=500,13=1,18=-1,22=13,38=1,93=35/2,8;
 6/7=2,8=2,9=2,10=2,28=1/1;
 99/5=1,9=1/99;
 Leave Link    1 at Thu Mar  5 13:01:02 2020, MaxMem=  6710886400 cpu:              17.8 elap:               1.2
 (Enter /opt/ohpc/pub/libs/gaussian/g16-A.03/sandybridge/g16/l101.exe)
 -----
 H6 C5
 -----
 Symbolic Z-matrix:
 Charge =  1 Multiplicity = 2
 C                     0.        0.8788   -0.93154 
 C                     0.        1.12816   0.42346 
 C                     0.        0.        1.24088 
 C                     0.       -1.12816   0.42346 
 C                     0.       -0.8788   -0.93154 
 H                     0.        0.       -1.73227 
 H                     0.        1.6083   -1.73405 
 H                     0.        2.15663   0.76567 
 H                     0.        0.        2.32078 
 H                     0.       -2.15663   0.76567 
 H                     0.       -1.6083   -1.73405 
 
 ITRead=  0  0  0  0  0  0  0  0  0  0  0
 MicOpt= -1 -1 -1 -1 -1 -1 -1 -1 -1 -1 -1
 NAtoms=     11 NQM=       11 NQMF=       0 NMMI=      0 NMMIF=      0
                NMic=       0 NMicF=      0.
                    Isotopes and Nuclear Properties:
 (Nuclear quadrupole moments (NQMom) in fm**2, nuclear magnetic moments (NMagM)
  in nuclear magnetons)

  Atom         1           2           3           4           5           6           7           8           9          10
 IAtWgt=          12          12          12          12          12           1           1           1           1           1
 AtmWgt=  12.0000000  12.0000000  12.0000000  12.0000000  12.0000000   1.0078250   1.0078250   1.0078250   1.0078250   1.0078250
 NucSpn=           0           0           0           0           0           1           1           1           1           1
 AtZEff=  -0.0000000  -0.0000000  -0.0000000  -0.0000000  -0.0000000  -0.0000000  -0.0000000  -0.0000000  -0.0000000  -0.0000000
 NQMom=    0.0000000   0.0000000   0.0000000   0.0000000   0.0000000   0.0000000   0.0000000   0.0000000   0.0000000   0.0000000
 NMagM=    0.0000000   0.0000000   0.0000000   0.0000000   0.0000000   2.7928460   2.7928460   2.7928460   2.7928460   2.7928460
 AtZNuc=   6.0000000   6.0000000   6.0000000   6.0000000   6.0000000   1.0000000   1.0000000   1.0000000   1.0000000   1.0000000

  Atom        11
 IAtWgt=           1
 AtmWgt=   1.0078250
 NucSpn=           1
 AtZEff=  -0.0000000
 NQMom=    0.0000000
 NMagM=    2.7928460
 AtZNuc=   1.0000000
 Leave Link  101 at Thu Mar  5 13:01:02 2020, MaxMem=  6710886400 cpu:               3.2 elap:               0.2
 (Enter /opt/ohpc/pub/libs/gaussian/g16-A.03/sandybridge/g16/l202.exe)
                          Input orientation:                          
 ---------------------------------------------------------------------
 Center     Atomic      Atomic             Coordinates (Angstroms)
 Number     Number       Type             X           Y           Z
 ---------------------------------------------------------------------
      1          6           0        0.000000    0.878804   -0.931542
      2          6           0        0.000000    1.128157    0.423457
      3          6           0        0.000000    0.000000    1.240879
      4          6           0        0.000000   -1.128157    0.423457
      5          6           0        0.000000   -0.878804   -0.931542
      6          1           0        0.000000    0.000000   -1.732269
      7          1           0        0.000000    1.608300   -1.734053
      8          1           0        0.000000    2.156626    0.765670
      9          1           0        0.000000    0.000000    2.320778
     10          1           0        0.000000   -2.156626    0.765670
     11          1           0        0.000000   -1.608300   -1.734053
 ---------------------------------------------------------------------
                    Distance matrix (angstroms):
                    1          2          3          4          5
     1  C    0.000000
     2  C    1.377752   0.000000
     3  C    2.343440   1.393168   0.000000
     4  C    2.421552   2.256314   1.393168   0.000000
     5  C    1.757608   2.421552   2.343440   1.377752   0.000000
     6  H    1.188890   2.433083   2.973148   2.433083   1.188890
     7  H    1.084522   2.210291   3.381841   3.484687   2.613371
     8  H    2.124466   1.083909   2.208361   3.302561   3.477695
     9  H    3.368959   2.207389   1.079899   2.207389   3.368959
    10  H    3.477695   3.302561   2.208361   1.083909   2.124466
    11  H    2.613371   3.484687   3.381841   2.210291   1.084522
                    6          7          8          9         10
     6  H    0.000000
     7  H    1.608301   0.000000
     8  H    3.300111   2.559155   0.000000
     9  H    4.053047   4.362142   2.658834   0.000000
    10  H    3.300111   4.519213   4.313252   2.658834   0.000000
    11  H    1.608301   3.216600   4.519213   4.362142   2.559155
                   11
    11  H    0.000000
 Stoichiometry    C5H6(1+,2)
 Framework group  C2V[C2(HCH),SGV(C4H4)]
 Deg. of freedom    10
 Full point group                 C2V     NOp   4
 Largest Abelian subgroup         C2V     NOp   4
 Largest concise Abelian subgroup C2      NOp   2
                         Standard orientation:                         
 ---------------------------------------------------------------------
 Center     Atomic      Atomic             Coordinates (Angstroms)
 Number     Number       Type             X           Y           Z
 ---------------------------------------------------------------------
      1          6           0        0.000000    0.878804   -0.931542
      2          6           0        0.000000    1.128157    0.423457
      3          6           0        0.000000   -0.000000    1.240879
      4          6           0       -0.000000   -1.128157    0.423457
      5          6           0       -0.000000   -0.878804   -0.931542
      6          1           0       -0.000000    0.000000   -1.732269
      7          1           0        0.000000    1.608300   -1.734053
      8          1           0        0.000000    2.156626    0.765670
      9          1           0        0.000000   -0.000000    2.320778
     10          1           0       -0.000000   -2.156626    0.765670
     11          1           0       -0.000000   -1.608300   -1.734053
 ---------------------------------------------------------------------
 Rotational constants (GHZ):           8.5259551           7.9375455           4.1106177
 Leave Link  202 at Thu Mar  5 13:01:02 2020, MaxMem=  6710886400 cpu:               0.6 elap:               0.1
 (Enter /opt/ohpc/pub/libs/gaussian/g16-A.03/sandybridge/g16/l301.exe)
 Standard basis: 6-31G (6D, 7F)
 Ernie: Thresh=  0.10000D-02 Tol=  0.10000D-05 Strict=F.
 There are    27 symmetry adapted cartesian basis functions of A1  symmetry.
 There are     4 symmetry adapted cartesian basis functions of A2  symmetry.
 There are     6 symmetry adapted cartesian basis functions of B1  symmetry.
 There are    20 symmetry adapted cartesian basis functions of B2  symmetry.
 There are    27 symmetry adapted basis functions of A1  symmetry.
 There are     4 symmetry adapted basis functions of A2  symmetry.
 There are     6 symmetry adapted basis functions of B1  symmetry.
 There are    20 symmetry adapted basis functions of B2  symmetry.
    57 basis functions,   134 primitive gaussians,    57 cartesian basis functions
    18 alpha electrons       17 beta electrons
       nuclear repulsion energy       156.0127424860 Hartrees.
 IExCor=33909 DFT=T Ex+Corr=LC-wHPBE ExCW=0 ScaHFX=  1.000000
 ScaDFX=  1.000000  1.000000  1.000000  1.000000 ScalE2=  1.000000  1.000000
 IRadAn=      5 IRanWt=     -1 IRanGd=            0 ICorTp=0 IEmpDi=  4
 HFx  wShort=  0.000000 wLong=  0.400000 cFull=  0.000000 cShort=  0.000000 cLong=  0.840200
 DFx  wShort=  0.000000 wLong=  0.400000 cFull=  0.000000 cShort=  1.000000 cLong=  0.840200
 NAtoms=   11 NActive=   11 NUniq=    7 SFac= 2.47D+00 NAtFMM=   60 NAOKFM=F Big=F
 Integral buffers will be    131072 words long.
 Raffenetti 2 integral format.
 Two-electron integral symmetry is turned on.
 Leave Link  301 at Thu Mar  5 13:01:02 2020, MaxMem=  6710886400 cpu:               2.5 elap:               0.2
 (Enter /opt/ohpc/pub/libs/gaussian/g16-A.03/sandybridge/g16/l302.exe)
 NPDir=0 NMtPBC=     1 NCelOv=     1 NCel=       1 NClECP=     1 NCelD=      1
         NCelK=      1 NCelE2=     1 NClLst=     1 CellRange=     0.0.
 One-electron integrals computed using PRISM.
 One-electron integral symmetry used in STVInt
 NBasis=    57 RedAO= T EigKep=  1.84D-03  NBF=    27     4     6    20
 NBsUse=    57 1.00D-06 EigRej= -1.00D+00 NBFU=    27     4     6    20
 Precomputing XC quadrature grid using
 IXCGrd= 4 IRadAn=           5 IRanWt=          -1 IRanGd=           0 AccXCQ= 0.00D+00.
 Generated NRdTot=       0 NPtTot=           0 NUsed=           0 NTot=          32
 NSgBfM=    57    57    57    57    57 MxSgAt=    11 MxSgA2=    11.
 Leave Link  302 at Thu Mar  5 13:01:02 2020, MaxMem=  6710886400 cpu:               2.3 elap:               0.2
 (Enter /opt/ohpc/pub/libs/gaussian/g16-A.03/sandybridge/g16/l303.exe)
 DipDrv:  MaxL=1.
 Leave Link  303 at Thu Mar  5 13:01:03 2020, MaxMem=  6710886400 cpu:               0.5 elap:               0.1
 (Enter /opt/ohpc/pub/libs/gaussian/g16-A.03/sandybridge/g16/l401.exe)
 ExpMin= 1.61D-01 ExpMax= 3.05D+03 ExpMxC= 4.57D+02 IAcc=3 IRadAn=         5 AccDes= 0.00D+00
 Harris functional with IExCor=33909 and IRadAn=       5 diagonalized for initial guess.
 HarFok:  IExCor=33909 AccDes= 0.00D+00 IRadAn=         5 IDoV= 1 UseB2=F ITyADJ=14
 ICtDFT=  3500011 ScaDFX=  1.000000  1.000000  1.000000  1.000000
 FoFCou: FMM=F IPFlag=           0 FMFlag=      100000 FMFlg1=           0
         NFxFlg=           0 DoJE=T BraDBF=F KetDBF=T FulRan=T
         wScrn=  0.000000 ICntrl=       500 IOpCl=  0 I1Cent=   200000004 NGrid=           0
         NMat0=    1 NMatS0=      1 NMatT0=    0 NMatD0=    1 NMtDS0=    0 NMtDT0=    0
 Petite list used in FoFCou.
 Harris En= -192.397933805868    
 JPrj=0 DoOrth=F DoCkMO=F.
 Initial guess orbital symmetries:
 Alpha Orbitals:
       Occupied  (A1) (B2) (A1) (B2) (A1) (A1) (A1) (B2) (A1) (B2)
                 (A1) (B2) (A1) (B2) (A1) (B1) (A2) (B1)
       Virtual   (A2) (B2) (B1) (A1) (A1) (B2) (A1) (B2) (A1) (B2)
                 (A1) (B2) (A1) (B2) (B1) (A1) (A2) (B1) (B2) (A1)
                 (A1) (A2) (B1) (B2) (B2) (A1) (B2) (A1) (A1) (B2)
                 (A1) (A1) (A1) (B2) (A1) (B2) (A1) (A1) (B2)
 Beta  Orbitals:
       Occupied  (A1) (B2) (A1) (B2) (A1) (A1) (A1) (B2) (A1) (B2)
                 (A1) (B2) (A1) (B2) (A1) (B1) (A2)
       Virtual   (B1) (A2) (B2) (B1) (A1) (A1) (B2) (A1) (B2) (A1)
                 (B2) (A1) (B2) (A1) (B2) (B1) (A1) (A2) (B1) (B2)
                 (A1) (A1) (A2) (B1) (B2) (B2) (A1) (B2) (A1) (A1)
                 (B2) (A1) (A1) (A1) (B2) (A1) (B2) (A1) (A1) (B2)
 The electronic state of the initial guess is 2-B1.
 Initial guess <Sx>= 0.0000 <Sy>= 0.0000 <Sz>= 0.5000 <S**2>= 0.7500 S= 0.5000
 Leave Link  401 at Thu Mar  5 13:01:03 2020, MaxMem=  6710886400 cpu:               3.1 elap:               0.2
 (Enter /opt/ohpc/pub/libs/gaussian/g16-A.03/sandybridge/g16/l502.exe)
 Keep R1 and R2 ints in memory in symmetry-blocked form, NReq=16815681.
 FoFCou: FMM=F IPFlag=           0 FMFlag=           0 FMFlg1=           0
         NFxFlg=           0 DoJE=F BraDBF=F KetDBF=F FulRan=T
         wScrn=  0.000000 ICntrl=       600 IOpCl=  0 I1Cent=           0 NGrid=           0
         NMat0=    1 NMatS0=   1653 NMatT0=    0 NMatD0=    1 NMtDS0=    0 NMtDT0=    0
 Petite list used in FoFCou.
 UHF open shell SCF:
 Using DIIS extrapolation, IDIIS=    10.
 NGot=  6710886400 LenX=  6710059561 LenY=  6710055871
 Requested convergence on RMS density matrix=1.00D-06 within  32 cycles.
 Requested convergence on MAX density matrix=1.00D-04.
 Requested convergence on             energy=1.00D-04.
 Virtual orbitals will be shifted by   0.500 hartree.
 No special actions if energy rises.
 Dynamic level shift is on during FON iterations.

 Cycle   1  Pass 1  IDiag  1:
 E= -198.061077939814    
 DIIS: error= 4.88D-02 at cycle   1 NSaved=   1.
 NSaved= 1 IEnMin= 1 EnMin= -198.061077939814     IErMin= 1 ErrMin= 4.88D-02
 ErrMax= 4.88D-02  0.00D+00 EMaxC= 1.00D+00 BMatC= 1.96D-01 BMatP= 1.96D-01
 IDIUse=1 WtCom= 1.00D+00 WtEn= 0.00D+00
 Coeff-Com:  0.100D+01
 Coeff:      0.100D+01
 Gap=     0.350 Goal=   None    Shift=    0.500
 T= 1788. Gap= 0.823 NK=0 IS=   19 IE=   57 IFin=   18
          NO(<0.9)=   0  NV(>0.1)=   0     18.00e < EF      0.00e >EF  Err=0.0D+00
 Gap=     0.226 Goal=   None    Shift=    0.500
 T= 1788. Gap= 0.728 NK=0 IS=   18 IE=   57 IFin=   17
          NO(<0.9)=   0  NV(>0.1)=   0     17.00e < EF      0.00e >EF  Err=0.0D+00
 GapD=    0.226 DampG=1.000 DampE=0.500 DampFc=0.5000 IDamp=-1.
 Damping current iteration by 5.00D-01
 RMSDP=6.99D-03 MaxDP=5.35D-02              OVMax= 1.04D-01

 Cycle   2  Pass 1  IDiag  1:
 E= -198.098546322576     Delta-E=       -0.037468382762 Rises=F Damp=T
 DIIS: error= 2.38D-02 at cycle   2 NSaved=   2.
 NSaved= 2 IEnMin= 2 EnMin= -198.098546322576     IErMin= 2 ErrMin= 2.38D-02
 ErrMax= 2.38D-02  0.00D+00 EMaxC= 1.00D+00 BMatC= 3.54D-02 BMatP= 1.96D-01
 IDIUse=1 WtCom= 1.00D+00 WtEn= 0.00D+00
 Coeff-Com: -0.557D+00 0.156D+01
 Coeff:     -0.557D+00 0.156D+01
 Gap=     0.418 Goal=   None    Shift=    0.500
 T= 1676. Gap= 0.904 NK=4 IS=   19 IE=   23 IFin=   18
          NO(<0.9)=   0  NV(>0.1)=   0     18.00e < EF      0.00e >EF  Err=0.0D+00
 Gap=     0.254 Goal=   None    Shift=    0.500
 T= 1676. Gap= 0.752 NK=4 IS=   18 IE=   23 IFin=   17
          NO(<0.9)=   0  NV(>0.1)=   0     17.00e < EF      0.00e >EF  Err=0.0D+00
 GapD=    0.254 DampG=1.000 DampE=0.500 DampFc=0.5000 IDamp=-1.
 Damping current iteration by 5.00D-01
 RMSDP=4.32D-03 MaxDP=3.34D-02 DE=-3.75D-02 OVMax= 1.81D-02

 Cycle   3  Pass 1  IDiag  1:
 E= -198.112154839168     Delta-E=       -0.013608516592 Rises=F Damp=T
 DIIS: error= 1.40D-02 at cycle   3 NSaved=   3.
 NSaved= 3 IEnMin= 3 EnMin= -198.112154839168     IErMin= 3 ErrMin= 1.40D-02
 ErrMax= 1.40D-02  0.00D+00 EMaxC= 1.00D+00 BMatC= 8.66D-03 BMatP= 3.54D-02
 IDIUse=1 WtCom= 1.00D+00 WtEn= 0.00D+00
 Coeff-Com:  0.325D+00-0.184D+01 0.251D+01
 Coeff:      0.325D+00-0.184D+01 0.251D+01
 Gap=     0.407 Goal=   None    Shift=    0.500
 T= 1473. Gap= 0.908 NK=0 IS=   19 IE=   57 IFin=   18
          NO(<0.9)=   0  NV(>0.1)=   0     18.00e < EF      0.00e >EF  Err=0.0D+00
 Gap=     0.259 Goal=   None    Shift=    0.500
 T= 1473. Gap= 0.759 NK=0 IS=   18 IE=   57 IFin=   17
          NO(<0.9)=   0  NV(>0.1)=   0     17.00e < EF      0.00e >EF  Err=0.0D+00
 GapD=    0.259 DampG=1.000 DampE=0.500 DampFc=0.5000 IDamp=-1.
 Damping current iteration by 5.00D-01
 RMSDP=2.47D-03 MaxDP=1.99D-02 DE=-1.36D-02 OVMax= 1.69D-02

 Cycle   4  Pass 1  IDiag  1:
 E= -198.118749588809     Delta-E=       -0.006594749641 Rises=F Damp=T
 DIIS: error= 9.14D-03 at cycle   4 NSaved=   4.
 NSaved= 4 IEnMin= 4 EnMin= -198.118749588809     IErMin= 4 ErrMin= 9.14D-03
 ErrMax= 9.14D-03  0.00D+00 EMaxC= 1.00D+00 BMatC= 3.08D-03 BMatP= 8.66D-03
 IDIUse=1 WtCom= 1.00D+00 WtEn= 0.00D+00
 Coeff-Com:  0.162D-01 0.795D+00-0.373D+01 0.391D+01
 Coeff:      0.162D-01 0.795D+00-0.373D+01 0.391D+01
 Gap=     0.413 Goal=   None    Shift=    0.500
 T= 1105. Gap= 0.913 NK=0 IS=   19 IE=   57 IFin=   18
          NO(<0.9)=   0  NV(>0.1)=   0     18.00e < EF      0.00e >EF  Err=0.0D+00
 Gap=     0.265 Goal=   None    Shift=    0.500
 T= 1105. Gap= 0.765 NK=0 IS=   18 IE=   57 IFin=   17
          NO(<0.9)=   0  NV(>0.1)=   0     17.00e < EF      0.00e >EF  Err=0.0D+00
 GapD=    0.265 DampG=1.000 DampE=1.000 DampFc=1.0000 IDamp=-1.
 RMSDP=1.59D-03 MaxDP=1.66D-02 DE=-6.59D-03 OVMax= 1.63D-02

 Cycle   5  Pass 1  IDiag  1:
 E= -198.126683517887     Delta-E=       -0.007933929078 Rises=F Damp=F
 DIIS: error= 4.45D-03 at cycle   5 NSaved=   5.
 NSaved= 5 IEnMin= 5 EnMin= -198.126683517887     IErMin= 5 ErrMin= 4.45D-03
 ErrMax= 4.45D-03  0.00D+00 EMaxC= 1.00D+00 BMatC= 5.14D-04 BMatP= 3.08D-03
 IDIUse=1 WtCom= 1.00D+00 WtEn= 0.00D+00
 Coeff-Com: -0.190D+00 0.950D+00-0.753D+00-0.956D+00 0.195D+01
 Coeff:     -0.190D+00 0.950D+00-0.753D+00-0.956D+00 0.195D+01
 Gap=     0.416 Goal=   None    Shift=    0.500
 T=  786. Gap= 0.916 NK=0 IS=   19 IE=   57 IFin=   18
          NO(<0.9)=   0  NV(>0.1)=   0     18.00e < EF      0.00e >EF  Err=0.0D+00
 Gap=     0.269 Goal=   None    Shift=    0.500
 T=  786. Gap= 0.769 NK=0 IS=   18 IE=   57 IFin=   17
          NO(<0.9)=   0  NV(>0.1)=   0     17.00e < EF      0.00e >EF  Err=0.0D+00
 GapD=    0.269 DampG=1.000 DampE=1.000 DampFc=1.0000 IDamp=-1.
 RMSDP=4.77D-04 MaxDP=7.67D-03 DE=-7.93D-03 OVMax= 1.67D-02

 Cycle   6  Pass 1  IDiag  1:
 E= -198.127442483520     Delta-E=       -0.000758965633 Rises=F Damp=F
 DIIS: error= 3.50D-03 at cycle   6 NSaved=   6.
 NSaved= 6 IEnMin= 6 EnMin= -198.127442483520     IErMin= 6 ErrMin= 3.50D-03
 ErrMax= 3.50D-03  0.00D+00 EMaxC= 1.00D+00 BMatC= 2.41D-04 BMatP= 5.14D-04
 IDIUse=1 WtCom= 1.00D+00 WtEn= 0.00D+00
 Coeff-Com:  0.206D-02-0.282D+00 0.834D+00-0.553D+00-0.170D+01 0.270D+01
 Coeff:      0.206D-02-0.282D+00 0.834D+00-0.553D+00-0.170D+01 0.270D+01
 Gap=     0.419 Goal=   None    Shift=    0.500
 T=  499. Gap= 0.919 NK=0 IS=   19 IE=   57 IFin=   18
          NO(<0.9)=   0  NV(>0.1)=   0     18.00e < EF      0.00e >EF  Err=0.0D+00
 Gap=     0.272 Goal=   None    Shift=    0.500
 T=  499. Gap= 0.772 NK=0 IS=   18 IE=   57 IFin=   17
          NO(<0.9)=   0  NV(>0.1)=   0     17.00e < EF      0.00e >EF  Err=0.0D+00
 GapD=    0.272 DampG=1.000 DampE=1.000 DampFc=1.0000 IDamp=-1.
 RMSDP=3.87D-04 MaxDP=6.24D-03 DE=-7.59D-04 OVMax= 1.52D-02

 Cycle   7  Pass 1  IDiag  1:
 E= -198.127882209769     Delta-E=       -0.000439726249 Rises=F Damp=F
 DIIS: error= 2.59D-03 at cycle   7 NSaved=   7.
 NSaved= 7 IEnMin= 7 EnMin= -198.127882209769     IErMin= 7 ErrMin= 2.59D-03
 ErrMax= 2.59D-03  0.00D+00 EMaxC= 1.00D+00 BMatC= 1.11D-04 BMatP= 2.41D-04
 IDIUse=1 WtCom= 1.00D+00 WtEn= 0.00D+00
 Coeff-Com:  0.188D-01-0.738D-01-0.130D+00 0.415D+00-0.337D+00-0.121D+01
 Coeff-Com:  0.232D+01
 Coeff:      0.188D-01-0.738D-01-0.130D+00 0.415D+00-0.337D+00-0.121D+01
 Coeff:      0.232D+01
 Gap=     0.420 Goal=   None    Shift=    0.500
 T=  209. Gap= 0.920 NK=0 IS=   19 IE=   57 IFin=   18
          NO(<0.9)=   0  NV(>0.1)=   0     18.00e < EF      0.00e >EF  Err=0.0D+00
 Gap=     0.273 Goal=   None    Shift=    0.500
 T=  209. Gap= 0.773 NK=0 IS=   18 IE=   57 IFin=   17
          NO(<0.9)=   0  NV(>0.1)=   0     17.00e < EF      0.00e >EF  Err=0.0D+00
 GapD=    0.273 DampG=1.000 DampE=1.000 DampFc=1.0000 IDamp=-1.
 RMSDP=2.69D-04 MaxDP=4.01D-03 DE=-4.40D-04 OVMax= 1.15D-02

 Cycle   8  Pass 1  IDiag  1:
 E= -198.128087115884     Delta-E=       -0.000204906115 Rises=F Damp=F
 DIIS: error= 1.89D-03 at cycle   8 NSaved=   8.
 NSaved= 8 IEnMin= 8 EnMin= -198.128087115884     IErMin= 8 ErrMin= 1.89D-03
 ErrMax= 1.89D-03  0.00D+00 EMaxC= 1.00D+00 BMatC= 5.63D-05 BMatP= 1.11D-04
 IDIUse=1 WtCom= 1.00D+00 WtEn= 0.00D+00
 Coeff-Com: -0.131D-01 0.286D+00-0.808D+00 0.554D+00 0.136D+01-0.271D+01
 Coeff-Com: -0.854D-01 0.242D+01
 Coeff:     -0.131D-01 0.286D+00-0.808D+00 0.554D+00 0.136D+01-0.271D+01
 Coeff:     -0.854D-01 0.242D+01
 Gap=     0.421 Goal=   None    Shift=    0.500
 T=   42. Gap= 0.921 NK=0 IS=   19 IE=   57 IFin=   18
          NO(<0.9)=   0  NV(>0.1)=   0     18.00e < EF      0.00e >EF  Err=0.0D+00
 Gap=     0.274 Goal=   None    Shift=    0.500
 T=   42. Gap= 0.774 NK=0 IS=   18 IE=   57 IFin=   17
          NO(<0.9)=   0  NV(>0.1)=   0     17.00e < EF      0.00e >EF  Err=0.0D+00
 GapD=    0.274 DampG=1.000 DampE=1.000 DampFc=1.0000 IDamp=-1.
 RMSDP=2.23D-04 MaxDP=3.24D-03 DE=-2.05D-04 OVMax= 1.01D-02

 Cycle   9  Pass 1  IDiag  1:
 E= -198.128200906072     Delta-E=       -0.000113790188 Rises=F Damp=F
 DIIS: error= 1.29D-03 at cycle   9 NSaved=   9.
 NSaved= 9 IEnMin= 9 EnMin= -198.128200906072     IErMin= 9 ErrMin= 1.29D-03
 ErrMax= 1.29D-03  0.00D+00 EMaxC= 1.00D+00 BMatC= 2.55D-05 BMatP= 5.63D-05
 IDIUse=1 WtCom= 1.00D+00 WtEn= 0.00D+00
 Coeff-Com:  0.250D-03-0.155D+00 0.626D+00-0.626D+00-0.574D+00 0.221D+01
 Coeff-Com: -0.112D+01-0.351D+01 0.415D+01
 Coeff:      0.250D-03-0.155D+00 0.626D+00-0.626D+00-0.574D+00 0.221D+01
 Coeff:     -0.112D+01-0.351D+01 0.415D+01
 Gap=     0.421 Goal=   None    Shift=    0.500
 Gap=     0.274 Goal=   None    Shift=    0.500
 GapD=    0.274 DampG=1.000 DampE=1.000 DampFc=1.0000 IDamp=-1.
 RMSDP=1.80D-04 MaxDP=2.82D-03 DE=-1.14D-04 OVMax= 8.67D-03

 Cycle  10  Pass 1  IDiag  1:
 E= -198.128260714055     Delta-E=       -0.000059807984 Rises=F Damp=F
 DIIS: error= 7.94D-04 at cycle  10 NSaved=  10.
 NSaved=10 IEnMin=10 EnMin= -198.128260714055     IErMin=10 ErrMin= 7.94D-04
 ErrMax= 7.94D-04  0.00D+00 EMaxC= 1.00D+00 BMatC= 1.03D-05 BMatP= 2.55D-05
 IDIUse=1 WtCom= 1.00D+00 WtEn= 0.00D+00
 Coeff-Com:  0.299D-02 0.424D-02-0.435D-01 0.521D-01 0.365D-01-0.198D+00
 Coeff-Com:  0.314D+00 0.119D+00-0.190D+01 0.262D+01
 Coeff:      0.299D-02 0.424D-02-0.435D-01 0.521D-01 0.365D-01-0.198D+00
 Coeff:      0.314D+00 0.119D+00-0.190D+01 0.262D+01
 Gap=     0.421 Goal=   None    Shift=    0.500
 Gap=     0.274 Goal=   None    Shift=    0.500
 RMSDP=1.08D-04 MaxDP=1.73D-03 DE=-5.98D-05 OVMax= 5.39D-03

 Cycle  11  Pass 1  IDiag  1:
 E= -198.128283214821     Delta-E=       -0.000022500766 Rises=F Damp=F
 DIIS: error= 4.88D-04 at cycle  11 NSaved=  11.
 NSaved=11 IEnMin=11 EnMin= -198.128283214821     IErMin=11 ErrMin= 4.88D-04
 ErrMax= 4.88D-04  0.00D+00 EMaxC= 1.00D+00 BMatC= 4.44D-06 BMatP= 1.03D-05
 IDIUse=1 WtCom= 1.00D+00 WtEn= 0.00D+00
 Coeff-Com: -0.132D-02-0.275D-01 0.149D+00-0.177D+00-0.432D-01 0.488D+00
 Coeff-Com: -0.539D+00-0.752D+00 0.324D+01-0.620D+01 0.487D+01
 Coeff:     -0.132D-02-0.275D-01 0.149D+00-0.177D+00-0.432D-01 0.488D+00
 Coeff:     -0.539D+00-0.752D+00 0.324D+01-0.620D+01 0.487D+01
 Gap=     0.421 Goal=   None    Shift=    0.500
 Gap=     0.274 Goal=   None    Shift=    0.500
 RMSDP=7.26D-05 MaxDP=1.12D-03 DE=-2.25D-05 OVMax= 3.70D-03

 Cycle  12  Pass 1  IDiag  1:
 E= -198.128292784469     Delta-E=       -0.000009569648 Rises=F Damp=F
 DIIS: error= 2.83D-04 at cycle  12 NSaved=  12.
 NSaved=12 IEnMin=12 EnMin= -198.128292784469     IErMin=12 ErrMin= 2.83D-04
 ErrMax= 2.83D-04  0.00D+00 EMaxC= 1.00D+00 BMatC= 1.65D-06 BMatP= 4.44D-06
 IDIUse=1 WtCom= 1.00D+00 WtEn= 0.00D+00
 Coeff-Com:  0.238D-03-0.240D-01 0.958D-01-0.958D-01-0.787D-01 0.309D+00
 Coeff-Com: -0.823D-01-0.601D+00 0.535D+00 0.635D+00-0.257D+01 0.288D+01
 Coeff:      0.238D-03-0.240D-01 0.958D-01-0.958D-01-0.787D-01 0.309D+00
 Coeff:     -0.823D-01-0.601D+00 0.535D+00 0.635D+00-0.257D+01 0.288D+01
 Gap=     0.421 Goal=   None    Shift=    0.500
 Gap=     0.274 Goal=   None    Shift=    0.500
 RMSDP=4.38D-05 MaxDP=6.59D-04 DE=-9.57D-06 OVMax= 2.24D-03

 Cycle  13  Pass 1  IDiag  1:
 E= -198.128296233033     Delta-E=       -0.000003448563 Rises=F Damp=F
 DIIS: error= 1.62D-04 at cycle  13 NSaved=  13.
 NSaved=13 IEnMin=13 EnMin= -198.128296233033     IErMin=13 ErrMin= 1.62D-04
 ErrMax= 1.62D-04  0.00D+00 EMaxC= 1.00D+00 BMatC= 5.99D-07 BMatP= 1.65D-06
 IDIUse=1 WtCom= 1.00D+00 WtEn= 0.00D+00
 Coeff-Com:  0.333D-03 0.457D-02-0.136D-01 0.720D-02 0.402D-01-0.585D-01
 Coeff-Com: -0.730D-01 0.157D+00 0.381D+00-0.172D+01 0.327D+01-0.516D+01
 Coeff-Com:  0.417D+01
 Coeff:      0.333D-03 0.457D-02-0.136D-01 0.720D-02 0.402D-01-0.585D-01
 Coeff:     -0.730D-01 0.157D+00 0.381D+00-0.172D+01 0.327D+01-0.516D+01
 Coeff:      0.417D+01
 Gap=     0.421 Goal=   None    Shift=    0.500
 Gap=     0.274 Goal=   None    Shift=    0.500
 RMSDP=2.67D-05 MaxDP=4.05D-04 DE=-3.45D-06 OVMax= 1.37D-03

 Cycle  14  Pass 1  IDiag  1:
 E= -198.128297463147     Delta-E=       -0.000001230114 Rises=F Damp=F
 DIIS: error= 8.74D-05 at cycle  14 NSaved=  14.
 NSaved=14 IEnMin=14 EnMin= -198.128297463147     IErMin=14 ErrMin= 8.74D-05
 ErrMax= 8.74D-05  0.00D+00 EMaxC= 1.00D+00 BMatC= 2.21D-07 BMatP= 5.99D-07
 IDIUse=1 WtCom= 1.00D+00 WtEn= 0.00D+00
 Coeff-Com:  0.170D-03-0.764D-02 0.338D-01-0.376D-01-0.164D-01 0.929D-01
 Coeff-Com: -0.358D-01-0.192D+00 0.390D+00-0.434D+00-0.189D+00 0.166D+01
 Coeff-Com: -0.352D+01 0.325D+01
 Coeff:      0.170D-03-0.764D-02 0.338D-01-0.376D-01-0.164D-01 0.929D-01
 Coeff:     -0.358D-01-0.192D+00 0.390D+00-0.434D+00-0.189D+00 0.166D+01
 Coeff:     -0.352D+01 0.325D+01
 Gap=     0.421 Goal=   None    Shift=    0.500
 Gap=     0.274 Goal=   None    Shift=    0.500
 RMSDP=1.54D-05 MaxDP=2.31D-04 DE=-1.23D-06 OVMax= 8.01D-04

 Cycle  15  Pass 1  IDiag  1:
 E= -198.128297874206     Delta-E=       -0.000000411059 Rises=F Damp=F
 DIIS: error= 4.68D-05 at cycle  15 NSaved=  15.
 NSaved=15 IEnMin=15 EnMin= -198.128297874206     IErMin=15 ErrMin= 4.68D-05
 ErrMax= 4.68D-05  0.00D+00 EMaxC= 1.00D+00 BMatC= 7.55D-08 BMatP= 2.21D-07
 IDIUse=1 WtCom= 1.00D+00 WtEn= 0.00D+00
 Coeff-Com: -0.505D-04 0.301D-02-0.136D-01 0.155D-01 0.669D-02-0.374D-01
 Coeff-Com:  0.138D-01 0.878D-01-0.166D+00 0.169D+00 0.158D+00-0.124D+01
 Coeff-Com:  0.297D+01-0.494D+01 0.397D+01
 Coeff:     -0.505D-04 0.301D-02-0.136D-01 0.155D-01 0.669D-02-0.374D-01
 Coeff:      0.138D-01 0.878D-01-0.166D+00 0.169D+00 0.158D+00-0.124D+01
 Coeff:      0.297D+01-0.494D+01 0.397D+01
 Gap=     0.421 Goal=   None    Shift=    0.500
 Gap=     0.274 Goal=   None    Shift=    0.500
 RMSDP=8.55D-06 MaxDP=1.24D-04 DE=-4.11D-07 OVMax= 4.47D-04

 Cycle  16  Pass 1  IDiag  1:
 E= -198.128298002468     Delta-E=       -0.000000128262 Rises=F Damp=F
 DIIS: error= 2.44D-05 at cycle  16 NSaved=  16.
 NSaved=16 IEnMin=16 EnMin= -198.128298002468     IErMin=16 ErrMin= 2.44D-05
 ErrMax= 2.44D-05  0.00D+00 EMaxC= 1.00D+00 BMatC= 2.58D-08 BMatP= 7.55D-08
 IDIUse=1 WtCom= 1.00D+00 WtEn= 0.00D+00
 Coeff-Com:  0.258D-04-0.228D-03 0.333D-02-0.580D-02 0.609D-02-0.336D-02
 Coeff-Com:  0.148D-02-0.171D-01 0.944D-01-0.234D+00 0.262D+00-0.646D-01
 Coeff-Com: -0.646D+00 0.210D+01-0.397D+01 0.348D+01
 Coeff:      0.258D-04-0.228D-03 0.333D-02-0.580D-02 0.609D-02-0.336D-02
 Coeff:      0.148D-02-0.171D-01 0.944D-01-0.234D+00 0.262D+00-0.646D-01
 Coeff:     -0.646D+00 0.210D+01-0.397D+01 0.348D+01
 Gap=     0.421 Goal=   None    Shift=    0.500
 Gap=     0.274 Goal=   None    Shift=    0.500
 RMSDP=4.61D-06 MaxDP=6.35D-05 DE=-1.28D-07 OVMax= 2.42D-04

 Cycle  17  Pass 1  IDiag  1:
 E= -198.128298041232     Delta-E=       -0.000000038764 Rises=F Damp=F
 DIIS: error= 1.44D-05 at cycle  17 NSaved=  17.
 NSaved=17 IEnMin=17 EnMin= -198.128298041232     IErMin=17 ErrMin= 1.44D-05
 ErrMax= 1.44D-05  0.00D+00 EMaxC= 1.00D+00 BMatC= 8.46D-09 BMatP= 2.58D-08
 IDIUse=1 WtCom= 1.00D+00 WtEn= 0.00D+00
 Coeff-Com:  0.226D-04 0.351D-03-0.302D-02 0.452D-02-0.214D-02-0.432D-02
 Coeff-Com:  0.559D-02 0.164D-01-0.626D-01 0.122D+00-0.950D-01-0.119D+00
 Coeff-Com:  0.622D+00-0.158D+01 0.294D+01-0.460D+01 0.376D+01
 Coeff:      0.226D-04 0.351D-03-0.302D-02 0.452D-02-0.214D-02-0.432D-02
 Coeff:      0.559D-02 0.164D-01-0.626D-01 0.122D+00-0.950D-01-0.119D+00
 Coeff:      0.622D+00-0.158D+01 0.294D+01-0.460D+01 0.376D+01
 Gap=     0.421 Goal=   None    Shift=    0.500
 Gap=     0.274 Goal=   None    Shift=    0.500
 RMSDP=2.41D-06 MaxDP=3.21D-05 DE=-3.88D-08 OVMax= 1.27D-04

 Cycle  18  Pass 1  IDiag  1:
 E= -198.128298052651     Delta-E=       -0.000000011419 Rises=F Damp=F
 DIIS: error= 8.46D-06 at cycle  18 NSaved=  18.
 NSaved=18 IEnMin=18 EnMin= -198.128298052651     IErMin=18 ErrMin= 8.46D-06
 ErrMax= 8.46D-06  0.00D+00 EMaxC= 1.00D+00 BMatC= 2.69D-09 BMatP= 8.46D-09
 IDIUse=1 WtCom= 1.00D+00 WtEn= 0.00D+00
 Coeff-Com: -0.166D-04 0.427D-03-0.128D-02 0.954D-03 0.263D-02-0.750D-02
 Coeff-Com:  0.447D-02 0.666D-02-0.491D-02-0.157D-01 0.474D-01-0.881D-01
 Coeff-Com:  0.944D-01 0.142D-01-0.440D+00 0.148D+01-0.338D+01 0.329D+01
 Coeff:     -0.166D-04 0.427D-03-0.128D-02 0.954D-03 0.263D-02-0.750D-02
 Coeff:      0.447D-02 0.666D-02-0.491D-02-0.157D-01 0.474D-01-0.881D-01
 Coeff:      0.944D-01 0.142D-01-0.440D+00 0.148D+01-0.338D+01 0.329D+01
 Gap=     0.421 Goal=   None    Shift=    0.500
 Gap=     0.274 Goal=   None    Shift=    0.500
 RMSDP=1.23D-06 MaxDP=1.69D-05 DE=-1.14D-08 OVMax= 6.52D-05

 Cycle  19  Pass 1  IDiag  1:
 E= -198.128298055995     Delta-E=       -0.000000003344 Rises=F Damp=F
 DIIS: error= 4.98D-06 at cycle  19 NSaved=  19.
 NSaved=19 IEnMin=19 EnMin= -198.128298055995     IErMin=19 ErrMin= 4.98D-06
 ErrMax= 4.98D-06  0.00D+00 EMaxC= 1.00D+00 BMatC= 8.23D-10 BMatP= 2.69D-09
 IDIUse=1 WtCom= 1.00D+00 WtEn= 0.00D+00
 Coeff-Com: -0.174D-05 0.197D-03-0.795D-03 0.835D-03 0.580D-03-0.298D-02
 Coeff-Com:  0.265D-02 0.364D-02-0.103D-01 0.129D-01-0.621D-02-0.930D-02
 Coeff-Com:  0.265D-01-0.465D-01 0.983D-01-0.429D+00 0.127D+01-0.288D+01
 Coeff-Com:  0.297D+01
 Coeff:     -0.174D-05 0.197D-03-0.795D-03 0.835D-03 0.580D-03-0.298D-02
 Coeff:      0.265D-02 0.364D-02-0.103D-01 0.129D-01-0.621D-02-0.930D-02
 Coeff:      0.265D-01-0.465D-01 0.983D-01-0.429D+00 0.127D+01-0.288D+01
 Coeff:      0.297D+01
 Gap=     0.421 Goal=   None    Shift=    0.500
 Gap=     0.274 Goal=   None    Shift=    0.500
 RMSDP=6.45D-07 MaxDP=8.94D-06 DE=-3.34D-09 OVMax= 3.42D-05

 SCF Done:  E(ULC-wHPBE) =  -198.128298056     A.U. after   19 cycles
            NFock= 19  Conv=0.65D-06     -V/T= 2.0264
 <Sx>= 0.0000 <Sy>= 0.0000 <Sz>= 0.5000 <S**2>= 0.8307 S= 0.5396
 <L.S>= 0.000000000000E+00
 KE= 1.930356689419D+02 PE=-7.528770750976D+02 EE= 2.057003656136D+02
 Annihilation of the first spin contaminant:
 S**2 before annihilation     0.8307,   after     0.7537
 Leave Link  502 at Thu Mar  5 13:01:05 2020, MaxMem=  6710886400 cpu:              34.8 elap:               2.2
 (Enter /opt/ohpc/pub/libs/gaussian/g16-A.03/sandybridge/g16/l508.exe)
 QCSCF skips out because SCF is already converged.
 Leave Link  508 at Thu Mar  5 13:01:05 2020, MaxMem=  6710886400 cpu:               0.1 elap:               0.0
 (Enter /opt/ohpc/pub/libs/gaussian/g16-A.03/sandybridge/g16/l601.exe)
 Copying SCF densities to generalized density rwf, IOpCl= 1 IROHF=0.

 **********************************************************************

            Population analysis using the SCF density.

 **********************************************************************

 Orbital symmetries:
 Alpha Orbitals:
       Occupied  (B2) (A1) (A1) (B2) (A1) (A1) (A1) (B2) (A1) (B2)
                 (A1) (B2) (A1) (A1) (B1) (B2) (A2) (B1)
       Virtual   (A2) (B2) (B1) (A1) (A1) (B2) (A1) (A1) (B2) (A1)
                 (B2) (A1) (B2) (B1) (B2) (B1) (A2) (A1) (A1) (B2)
                 (A1) (A2) (B1) (B2) (B2) (A1) (A1) (A1) (B2) (A1)
                 (B2) (A1) (A1) (B2) (A1) (B2) (A1) (A1) (B2)
 Beta  Orbitals:
       Occupied  (B2) (A1) (B2) (A1) (A1) (A1) (A1) (B2) (A1) (B2)
                 (A1) (B2) (A1) (A1) (B2) (B1) (A2)
       Virtual   (B1) (B2) (A2) (A1) (B1) (A1) (B2) (A1) (B2) (A1)
                 (A1) (B2) (A1) (B2) (B2) (B1) (A2) (A1) (B1) (A1)
                 (B2) (A1) (A2) (B1) (B2) (B2) (A1) (A1) (B2) (A1)
                 (B2) (A1) (A1) (A1) (B2) (A1) (B2) (A1) (A1) (B2)
 The electronic state is 2-B1.
 Alpha  occ. eigenvalues --  -10.50519 -10.50516 -10.45416 -10.44616 -10.44614
 Alpha  occ. eigenvalues --   -1.37024  -1.23999  -1.19052  -1.05094  -1.02808
 Alpha  occ. eigenvalues --   -0.98015  -0.88079  -0.85847  -0.84736  -0.83549
 Alpha  occ. eigenvalues --   -0.82373  -0.68535  -0.67553
 Alpha virt. eigenvalues --   -0.25437  -0.24869  -0.18326  -0.17643  -0.10799
 Alpha virt. eigenvalues --   -0.06067  -0.04029  -0.01617  -0.01571   0.09118
 Alpha virt. eigenvalues --    0.09430   0.19669   0.19958   0.28199   0.29144
 Alpha virt. eigenvalues --    0.35931   0.36446   0.37230   0.39155   0.40009
 Alpha virt. eigenvalues --    0.40349   0.43952   0.45432   0.52997   0.59877
 Alpha virt. eigenvalues --    0.62183   0.63220   0.65823   0.65901   0.71860
 Alpha virt. eigenvalues --    0.72083   0.76377   0.80570   0.87238   0.95303
 Alpha virt. eigenvalues --    0.96196   1.02096   1.23584   1.25105
  Beta  occ. eigenvalues --  -10.49860 -10.49855 -10.44989 -10.44989 -10.44407
  Beta  occ. eigenvalues --   -1.35660  -1.21963  -1.18859  -1.03958  -1.02045
  Beta  occ. eigenvalues --   -0.97779  -0.87816  -0.85587  -0.84171  -0.82242
  Beta  occ. eigenvalues --   -0.78687  -0.67115
  Beta virt. eigenvalues --   -0.39670  -0.23221  -0.22237  -0.17418  -0.14710
  Beta virt. eigenvalues --   -0.10361  -0.05790  -0.03839  -0.01672  -0.00937
  Beta virt. eigenvalues --    0.09613   0.09754   0.20076   0.20321   0.29569
  Beta virt. eigenvalues --    0.30752   0.37584   0.37822   0.38987   0.39504
  Beta virt. eigenvalues --    0.40344   0.41523   0.44473   0.47116   0.53597
  Beta virt. eigenvalues --    0.60319   0.63118   0.63699   0.65773   0.66287
  Beta virt. eigenvalues --    0.72355   0.72591   0.77206   0.81417   0.87173
  Beta virt. eigenvalues --    0.95771   0.96742   1.03347   1.24547   1.25988
          Condensed to atoms (all electrons):
               1          2          3          4          5          6
     1  C    5.380105   0.492314  -0.043044  -0.122518   0.176553   0.161802
     2  C    0.492314   4.975219   0.451977  -0.025718  -0.122518  -0.021392
     3  C   -0.043044   0.451977   4.902488   0.451977  -0.043044   0.007484
     4  C   -0.122518  -0.025718   0.451977   4.975219   0.492314  -0.021392
     5  C    0.176553  -0.122518  -0.043044   0.492314   5.380105   0.161802
     6  H    0.161802  -0.021392   0.007484  -0.021392   0.161802   0.346079
     7  H    0.335132   0.005025  -0.000490   0.003030  -0.014616  -0.009981
     8  H   -0.022542   0.360076  -0.011210   0.003649   0.000684   0.000304
     9  H    0.004613  -0.025096   0.362361  -0.025096   0.004613  -0.000025
    10  H    0.000684   0.003649  -0.011210   0.360076  -0.022542   0.000304
    11  H   -0.014616   0.003030  -0.000490   0.005025   0.335132  -0.009981
               7          8          9         10         11
     1  C    0.335132  -0.022542   0.004613   0.000684  -0.014616
     2  C    0.005025   0.360076  -0.025096   0.003649   0.003030
     3  C   -0.000490  -0.011210   0.362361  -0.011210  -0.000490
     4  C    0.003030   0.003649  -0.025096   0.360076   0.005025
     5  C   -0.014616   0.000684   0.004613  -0.022542   0.335132
     6  H   -0.009981   0.000304  -0.000025   0.000304  -0.009981
     7  H    0.335554   0.000230  -0.000047  -0.000014   0.000374
     8  H    0.000230   0.374012  -0.001004  -0.000073  -0.000014
     9  H   -0.000047  -0.001004   0.392206  -0.001004  -0.000047
    10  H   -0.000014  -0.000073  -0.001004   0.374012   0.000230
    11  H    0.000374  -0.000014  -0.000047   0.000230   0.335554
          Atomic-Atomic Spin Densities.
               1          2          3          4          5          6
     1  C    0.550333  -0.040641  -0.022297  -0.009578   0.019037  -0.004525
     2  C   -0.040641  -0.306804   0.027461   0.000631  -0.009578   0.000441
     3  C   -0.022297   0.027461   0.754353   0.027461  -0.022297   0.000193
     4  C   -0.009578   0.000631   0.027461  -0.306804  -0.040641   0.000441
     5  C    0.019037  -0.009578  -0.022297  -0.040641   0.550333  -0.004525
     6  H   -0.004525   0.000441   0.000193   0.000441  -0.004525  -0.017056
     7  H   -0.003412  -0.000591   0.000130  -0.000120   0.000163  -0.000102
     8  H   -0.000395   0.002262  -0.001094  -0.000147   0.000081   0.000028
     9  H   -0.000010   0.000010  -0.001620   0.000010  -0.000010  -0.000002
    10  H    0.000081  -0.000147  -0.001094   0.002262  -0.000395   0.000028
    11  H    0.000163  -0.000120   0.000130  -0.000591  -0.003412  -0.000102
               7          8          9         10         11
     1  C   -0.003412  -0.000395  -0.000010   0.000081   0.000163
     2  C   -0.000591   0.002262   0.000010  -0.000147  -0.000120
     3  C    0.000130  -0.001094  -0.001620  -0.001094   0.000130
     4  C   -0.000120  -0.000147   0.000010   0.002262  -0.000591
     5  C    0.000163   0.000081  -0.000010  -0.000395  -0.003412
     6  H   -0.000102   0.000028  -0.000002   0.000028  -0.000102
     7  H   -0.020164   0.000046   0.000004  -0.000000  -0.000079
     8  H    0.000046   0.009335   0.000006  -0.000000  -0.000000
     9  H    0.000004   0.000006  -0.029895   0.000006   0.000004
    10  H   -0.000000  -0.000000   0.000006   0.009335   0.000046
    11  H   -0.000079  -0.000000   0.000004   0.000046  -0.020164
 Mulliken charges and spin densities:
               1          2
     1  C   -0.348483   0.488756
     2  C   -0.096568  -0.327077
     3  C   -0.066799   0.761327
     4  C   -0.096568  -0.327077
     5  C   -0.348483   0.488756
     6  H    0.384996  -0.025182
     7  H    0.345802  -0.024125
     8  H    0.295888   0.010122
     9  H    0.288526  -0.031499
    10  H    0.295888   0.010122
    11  H    0.345802  -0.024125
 Sum of Mulliken charges =   1.00000   1.00000
 Mulliken charges and spin densities with hydrogens summed into heavy atoms:
               1          2
     1  C    0.382315   0.439449
     2  C    0.199319  -0.316955
     3  C    0.221727   0.729829
     4  C    0.199319  -0.316955
     5  C   -0.002681   0.464631
 Electronic spatial extent (au):  <R**2>=            317.4165
 Charge=              1.0000 electrons
 Dipole moment (field-independent basis, Debye):
    X=             -0.0000    Y=             -0.0000    Z=             -2.0616  Tot=              2.0616
 Quadrupole moment (field-independent basis, Debye-Ang):
   XX=            -30.6883   YY=            -16.8119   ZZ=            -12.5065
   XY=              0.0000   XZ=              0.0000   YZ=             -0.0000
 Traceless Quadrupole moment (field-independent basis, Debye-Ang):
   XX=            -10.6861   YY=              3.1904   ZZ=              7.4957
   XY=              0.0000   XZ=              0.0000   YZ=             -0.0000
 Octapole moment (field-independent basis, Debye-Ang**2):
  XXX=              0.0000  YYY=              0.0000  ZZZ=             -7.6353  XYY=             -0.0000
  XXY=              0.0000  XXZ=              0.6323  XZZ=              0.0000  YZZ=              0.0000
  YYZ=             -2.6944  XYZ=             -0.0000
 Hexadecapole moment (field-independent basis, Debye-Ang**3):
 XXXX=            -30.0195 YYYY=           -138.3669 ZZZZ=           -119.3922 XXXY=             -0.0000
 XXXZ=             -0.0000 YYYX=             -0.0000 YYYZ=             -0.0000 ZZZX=              0.0000
 ZZZY=              0.0000 XXYY=            -41.1070 XXZZ=            -37.7440 YYZZ=            -40.7171
 XXYZ=              0.0000 YYXZ=             -0.0000 ZZXY=             -0.0000
 N-N= 1.560127424860D+02 E-N=-7.528770804902D+02  KE= 1.930356689419D+02
 Symmetry A1   KE= 1.115119833890D+02
 Symmetry A2   KE= 2.574344021725D+00
 Symmetry B1   KE= 3.322730164480D+00
 Symmetry B2   KE= 7.562661136673D+01
 Symmetry A1   SP= 3.432644217428D-15
 Symmetry A2   SP= 5.294159208247D-16
 Symmetry B1   SP= 1.000000000000D+00
 Symmetry B2   SP=-1.932664233728D-14
                          Isotropic Fermi Contact Couplings
        Atom                 a.u.       MegaHertz       Gauss      10(-4) cm-1
     1  C(13)              0.08078      90.81657      32.40561      30.29315
     2  C(13)             -0.05839     -65.64585     -23.42407     -21.89710
     3  C(13)              0.11648     130.94354      46.72391      43.67806
     4  C(13)             -0.05839     -65.64585     -23.42407     -21.89710
     5  C(13)              0.08078      90.81657      32.40561      30.29315
     6  H(1)              -0.00968     -43.26176     -15.43687     -14.43057
     7  H(1)              -0.01064     -47.55337     -16.96822     -15.86210
     8  H(1)               0.00420      18.75565       6.69248       6.25621
     9  H(1)              -0.01466     -65.54287     -23.38733     -21.86275
    10  H(1)               0.00420      18.75565       6.69248       6.25621
    11  H(1)              -0.01064     -47.55337     -16.96822     -15.86210
 --------------------------------------------------------
       Center         ----  Spin Dipole Couplings  ----
                      3XX-RR        3YY-RR        3ZZ-RR
 --------------------------------------------------------
     1   Atom        0.513504     -0.250073     -0.263431
     2   Atom       -0.223347      0.109399      0.113948
     3   Atom        0.721320     -0.368818     -0.352501
     4   Atom       -0.223347      0.109399      0.113948
     5   Atom        0.513504     -0.250073     -0.263431
     6   Atom       -0.008983      0.008930      0.000053
     7   Atom       -0.006916      0.007275     -0.000359
     8   Atom       -0.006058     -0.002790      0.008848
     9   Atom       -0.008697     -0.046820      0.055517
    10   Atom       -0.006058     -0.002790      0.008848
    11   Atom       -0.006916      0.007275     -0.000359
 --------------------------------------------------------
                        XY            XZ            YZ
 --------------------------------------------------------
     1   Atom       -0.000000      0.000000     -0.008583
     2   Atom       -0.000000      0.000000     -0.004916
     3   Atom       -0.000000     -0.000000      0.000000
     4   Atom       -0.000000     -0.000000      0.004916
     5   Atom        0.000000      0.000000      0.008583
     6   Atom       -0.000000      0.000000     -0.000000
     7   Atom        0.000000      0.000000     -0.036946
     8   Atom       -0.000000      0.000000     -0.007128
     9   Atom       -0.000000     -0.000000      0.000000
    10   Atom        0.000000     -0.000000      0.007128
    11   Atom       -0.000000     -0.000000      0.036946
 --------------------------------------------------------


 ---------------------------------------------------------------------------------
              Anisotropic Spin Dipole Couplings in Principal Axis System
 ---------------------------------------------------------------------------------

       Atom             a.u.   MegaHertz   Gauss  10(-4) cm-1        Axes

              Baa    -0.2676   -35.913   -12.815   -11.979 -0.0000  0.4392  0.8984
     1 C(13)  Bbb    -0.2459   -32.994   -11.773   -11.006 -0.0000  0.8984 -0.4392
              Bcc     0.5135    68.907    24.588    22.985  1.0000  0.0000  0.0000
 
              Baa    -0.2233   -29.971   -10.694    -9.997  1.0000  0.0000  0.0000
     2 C(13)  Bbb     0.1063    14.259     5.088     4.756 -0.0000  0.8426  0.5386
              Bcc     0.1171    15.712     5.607     5.241  0.0000 -0.5386  0.8426
 
              Baa    -0.3688   -49.492   -17.660   -16.509  0.0000  1.0000  0.0000
     3 C(13)  Bbb    -0.3525   -47.302   -16.879   -15.778  0.0000  0.0000  1.0000
              Bcc     0.7213    96.794    34.539    32.287  1.0000 -0.0000  0.0000
 
              Baa    -0.2233   -29.971   -10.694    -9.997  1.0000  0.0000  0.0000
     4 C(13)  Bbb     0.1063    14.259     5.088     4.756 -0.0000  0.8426 -0.5386
              Bcc     0.1171    15.712     5.607     5.241 -0.0000  0.5386  0.8426
 
              Baa    -0.2676   -35.913   -12.815   -11.979 -0.0000 -0.4392  0.8984
     5 C(13)  Bbb    -0.2459   -32.994   -11.773   -11.006  0.0000  0.8984  0.4392
              Bcc     0.5135    68.907    24.588    22.985  1.0000 -0.0000  0.0000
 
              Baa    -0.0090    -4.793    -1.710    -1.599  1.0000  0.0000 -0.0000
     6 H(1)   Bbb     0.0001     0.028     0.010     0.009  0.0000  0.0000  1.0000
              Bcc     0.0089     4.765     1.700     1.589 -0.0000  1.0000 -0.0000
 
              Baa    -0.0337   -17.973    -6.413    -5.995 -0.0000  0.6698  0.7426
     7 H(1)   Bbb    -0.0069    -3.690    -1.317    -1.231  1.0000  0.0000  0.0000
              Bcc     0.0406    21.663     7.730     7.226 -0.0000  0.7426 -0.6698
 
              Baa    -0.0062    -3.294    -1.175    -1.099 -0.0000  0.9034  0.4287
     8 H(1)   Bbb    -0.0061    -3.232    -1.153    -1.078  1.0000  0.0000  0.0000
              Bcc     0.0122     6.526     2.329     2.177  0.0000 -0.4287  0.9034
 
              Baa    -0.0468   -24.981    -8.914    -8.333  0.0000  1.0000  0.0000
     9 H(1)   Bbb    -0.0087    -4.640    -1.656    -1.548  1.0000 -0.0000 -0.0000
              Bcc     0.0555    29.621    10.570     9.881  0.0000  0.0000  1.0000
 
              Baa    -0.0062    -3.294    -1.175    -1.099 -0.0000  0.9034 -0.4287
    10 H(1)   Bbb    -0.0061    -3.232    -1.153    -1.078  1.0000  0.0000 -0.0000
              Bcc     0.0122     6.526     2.329     2.177  0.0000  0.4287  0.9034
 
              Baa    -0.0337   -17.973    -6.413    -5.995  0.0000 -0.6698  0.7426
    11 H(1)   Bbb    -0.0069    -3.690    -1.317    -1.231  1.0000  0.0000  0.0000
              Bcc     0.0406    21.663     7.730     7.226 -0.0000  0.7426  0.6698
 

 ---------------------------------------------------------------------------------

 No NMR shielding tensors so no spin-rotation constants.
 Leave Link  601 at Thu Mar  5 13:01:05 2020, MaxMem=  6710886400 cpu:               4.3 elap:               0.3
 (Enter /opt/ohpc/pub/libs/gaussian/g16-A.03/sandybridge/g16/l9999.exe)

 Test job not archived.
 1\1\GINC-CNODE212\SP\ULC-wHPBE\6-31G\C5H6(1+,2)\SMGO234\05-Mar-2020\0\
 \#P uLC-wHPBE/6-31G iop(3/130=0159800000, 3/131=0159800000, 3/119=0840
 200000, 3/120=0840200000) scf=(conver=6,fermi,ndamp=35,noincfock,novar
 acc,vshift=500,xqc)\\H6 C5\\1,2\C,0,0.,0.878804,-0.931542\C,0,0.,1.128
 157,0.423457\C,0,0.,0.,1.240879\C,0,0.,-1.128157,0.423457\C,0,0.,-0.87
 8804,-0.931542\H,0,0.,0.,-1.732269\H,0,0.,1.6083,-1.734053\H,0,0.,2.15
 6626,0.76567\H,0,0.,0.,2.320778\H,0,0.,-2.156626,0.76567\H,0,0.,-1.608
 3,-1.734053\\Version=EM64L-G16RevA.03\State=2-B1\HF=-198.1282981\S2=0.
 830695\S2-1=0.\S2A=0.753656\RMSD=6.452e-07\Dipole=0.,0.,-0.8111012\Qua
 drupole=-7.9448226,2.3719575,5.572865,0.,0.,0.\PG=C02V [C2(H1C1H1),SGV
 (C4H4)]\\@


 OF ALL THE WONDERS OF THE UNIVERSE, THE GREATEST IS MAN.

                                    -- ARISTOTLE
 Job cpu time:       0 days  0 hours  1 minutes  9.9 seconds.
 Elapsed time:       0 days  0 hours  0 minutes  4.7 seconds.
 File lengths (MBytes):  RWF=    272 Int=      0 D2E=      0 Chk=     32 Scr=     32
 Normal termination of Gaussian 16 at Thu Mar  5 13:01:05 2020.
