 Entering Gaussian System, Link 0=g16
 Input=a1b_tune_c5.gjf
 Output=a1b_tune_c5.log
 Initial command:
 /opt/ohpc/pub/libs/gaussian/g16-A.03/sandybridge/g16/l1.exe "/scratch/smgo234/Ocelot/test/a1b/tuning_a1b_acycle2/Gau-85958.inp" -scrdir="/scratch/smgo234/Ocelot/test/a1b/tuning_a1b_acycle2/"
 Entering Link 1 = /opt/ohpc/pub/libs/gaussian/g16-A.03/sandybridge/g16/l1.exe PID=     85959.
  
 Copyright (c) 1988,1990,1992,1993,1995,1998,2003,2009,2016,
            Gaussian, Inc.  All Rights Reserved.
  
 This is part of the Gaussian(R) 16 program.  It is based on
 the Gaussian(R) 09 system (copyright 2009, Gaussian, Inc.),
 the Gaussian(R) 03 system (copyright 2003, Gaussian, Inc.),
 the Gaussian(R) 98 system (copyright 1998, Gaussian, Inc.),
 the Gaussian(R) 94 system (copyright 1995, Gaussian, Inc.),
 the Gaussian 92(TM) system (copyright 1992, Gaussian, Inc.),
 the Gaussian 90(TM) system (copyright 1990, Gaussian, Inc.),
 the Gaussian 88(TM) system (copyright 1988, Gaussian, Inc.),
 the Gaussian 86(TM) system (copyright 1986, Carnegie Mellon
 University), and the Gaussian 82(TM) system (copyright 1983,
 Carnegie Mellon University). Gaussian is a federally registered
 trademark of Gaussian, Inc.
  
 This software contains proprietary and confidential information,
 including trade secrets, belonging to Gaussian, Inc.
  
 This software is provided under written license and may be
 used, copied, transmitted, or stored only in accord with that
 written license.
  
 The following legend is applicable only to US Government
 contracts under FAR:
  
                    RESTRICTED RIGHTS LEGEND
  
 Use, reproduction and disclosure by the US Government is
 subject to restrictions as set forth in subparagraphs (a)
 and (c) of the Commercial Computer Software - Restricted
 Rights clause in FAR 52.227-19.
  
 Gaussian, Inc.
 340 Quinnipiac St., Bldg. 40, Wallingford CT 06492
  
  
 ---------------------------------------------------------------
 Warning -- This program may not be used in any manner that
 competes with the business of Gaussian, Inc. or will provide
 assistance to any competitor of Gaussian, Inc.  The licensee
 of this program is prohibited from giving any competitor of
 Gaussian, Inc. access to this program.  By using this program,
 the user acknowledges that Gaussian, Inc. is engaged in the
 business of creating and licensing software in the field of
 computational chemistry and represents and warrants to the
 licensee that it is not a competitor of Gaussian, Inc. and that
 it will not use this program in any manner prohibited above.
 ---------------------------------------------------------------
  

 Cite this work as:
 Gaussian 16, Revision A.03,
 M. J. Frisch, G. W. Trucks, H. B. Schlegel, G. E. Scuseria, 
 M. A. Robb, J. R. Cheeseman, G. Scalmani, V. Barone, 
 G. A. Petersson, H. Nakatsuji, X. Li, M. Caricato, A. V. Marenich, 
 J. Bloino, B. G. Janesko, R. Gomperts, B. Mennucci, H. P. Hratchian, 
 J. V. Ortiz, A. F. Izmaylov, J. L. Sonnenberg, D. Williams-Young, 
 F. Ding, F. Lipparini, F. Egidi, J. Goings, B. Peng, A. Petrone, 
 T. Henderson, D. Ranasinghe, V. G. Zakrzewski, J. Gao, N. Rega, 
 G. Zheng, W. Liang, M. Hada, M. Ehara, K. Toyota, R. Fukuda, 
 J. Hasegawa, M. Ishida, T. Nakajima, Y. Honda, O. Kitao, H. Nakai, 
 T. Vreven, K. Throssell, J. A. Montgomery, Jr., J. E. Peralta, 
 F. Ogliaro, M. J. Bearpark, J. J. Heyd, E. N. Brothers, K. N. Kudin, 
 V. N. Staroverov, T. A. Keith, R. Kobayashi, J. Normand, 
 K. Raghavachari, A. P. Rendell, J. C. Burant, S. S. Iyengar, 
 J. Tomasi, M. Cossi, J. M. Millam, M. Klene, C. Adamo, R. Cammi, 
 J. W. Ochterski, R. L. Martin, K. Morokuma, O. Farkas, 
 J. B. Foresman, and D. J. Fox, Gaussian, Inc., Wallingford CT, 2016.
 
 ******************************************
 Gaussian 16:  EM64L-G16RevA.03 25-Dec-2016
                 5-Mar-2020 
 ******************************************
 %mem=50GB
 %nproc=16
 Will use up to   16 processors via shared memory.
 ----------------------------------------------------------------------
 #P uLC-wHPBE/6-31G iop(3/130=0123800000, 3/131=0123800000, 3/119=08762
 00000, 3/120=0876200000) scf=(conver=6,fermi,ndamp=35,noincfock,novara
 cc,vshift=500,xqc)
 ----------------------------------------------------------------------
 1/38=1,172=1/1;
 2/12=2,17=6,18=5,40=1/2;
 3/5=1,6=6,11=2,25=1,30=1,74=-71,116=2,119=876200000,120=876200000,130=123800000,131=123800000/1,2,3;
 4//1;
 5/5=100002,6=6,8=3,10=500,13=1,18=-1,22=13,38=1,93=35/2,8;
 6/7=2,8=2,9=2,10=2,28=1/1;
 99/5=1,9=1/99;
 Leave Link    1 at Thu Mar  5 13:01:10 2020, MaxMem=  6710886400 cpu:              16.0 elap:               1.1
 (Enter /opt/ohpc/pub/libs/gaussian/g16-A.03/sandybridge/g16/l101.exe)
 -----
 H6 C5
 -----
 Symbolic Z-matrix:
 Charge =  1 Multiplicity = 2
 C                     0.        0.8788   -0.93154 
 C                     0.        1.12816   0.42346 
 C                     0.        0.        1.24088 
 C                     0.       -1.12816   0.42346 
 C                     0.       -0.8788   -0.93154 
 H                     0.        0.       -1.73227 
 H                     0.        1.6083   -1.73405 
 H                     0.        2.15663   0.76567 
 H                     0.        0.        2.32078 
 H                     0.       -2.15663   0.76567 
 H                     0.       -1.6083   -1.73405 
 
 ITRead=  0  0  0  0  0  0  0  0  0  0  0
 MicOpt= -1 -1 -1 -1 -1 -1 -1 -1 -1 -1 -1
 NAtoms=     11 NQM=       11 NQMF=       0 NMMI=      0 NMMIF=      0
                NMic=       0 NMicF=      0.
                    Isotopes and Nuclear Properties:
 (Nuclear quadrupole moments (NQMom) in fm**2, nuclear magnetic moments (NMagM)
  in nuclear magnetons)

  Atom         1           2           3           4           5           6           7           8           9          10
 IAtWgt=          12          12          12          12          12           1           1           1           1           1
 AtmWgt=  12.0000000  12.0000000  12.0000000  12.0000000  12.0000000   1.0078250   1.0078250   1.0078250   1.0078250   1.0078250
 NucSpn=           0           0           0           0           0           1           1           1           1           1
 AtZEff=  -0.0000000  -0.0000000  -0.0000000  -0.0000000  -0.0000000  -0.0000000  -0.0000000  -0.0000000  -0.0000000  -0.0000000
 NQMom=    0.0000000   0.0000000   0.0000000   0.0000000   0.0000000   0.0000000   0.0000000   0.0000000   0.0000000   0.0000000
 NMagM=    0.0000000   0.0000000   0.0000000   0.0000000   0.0000000   2.7928460   2.7928460   2.7928460   2.7928460   2.7928460
 AtZNuc=   6.0000000   6.0000000   6.0000000   6.0000000   6.0000000   1.0000000   1.0000000   1.0000000   1.0000000   1.0000000

  Atom        11
 IAtWgt=           1
 AtmWgt=   1.0078250
 NucSpn=           1
 AtZEff=  -0.0000000
 NQMom=    0.0000000
 NMagM=    2.7928460
 AtZNuc=   1.0000000
 Leave Link  101 at Thu Mar  5 13:01:10 2020, MaxMem=  6710886400 cpu:               2.7 elap:               0.2
 (Enter /opt/ohpc/pub/libs/gaussian/g16-A.03/sandybridge/g16/l202.exe)
                          Input orientation:                          
 ---------------------------------------------------------------------
 Center     Atomic      Atomic             Coordinates (Angstroms)
 Number     Number       Type             X           Y           Z
 ---------------------------------------------------------------------
      1          6           0        0.000000    0.878804   -0.931542
      2          6           0        0.000000    1.128157    0.423457
      3          6           0        0.000000    0.000000    1.240879
      4          6           0        0.000000   -1.128157    0.423457
      5          6           0        0.000000   -0.878804   -0.931542
      6          1           0        0.000000    0.000000   -1.732269
      7          1           0        0.000000    1.608300   -1.734053
      8          1           0        0.000000    2.156626    0.765670
      9          1           0        0.000000    0.000000    2.320778
     10          1           0        0.000000   -2.156626    0.765670
     11          1           0        0.000000   -1.608300   -1.734053
 ---------------------------------------------------------------------
                    Distance matrix (angstroms):
                    1          2          3          4          5
     1  C    0.000000
     2  C    1.377752   0.000000
     3  C    2.343440   1.393168   0.000000
     4  C    2.421552   2.256314   1.393168   0.000000
     5  C    1.757608   2.421552   2.343440   1.377752   0.000000
     6  H    1.188890   2.433083   2.973148   2.433083   1.188890
     7  H    1.084522   2.210291   3.381841   3.484687   2.613371
     8  H    2.124466   1.083909   2.208361   3.302561   3.477695
     9  H    3.368959   2.207389   1.079899   2.207389   3.368959
    10  H    3.477695   3.302561   2.208361   1.083909   2.124466
    11  H    2.613371   3.484687   3.381841   2.210291   1.084522
                    6          7          8          9         10
     6  H    0.000000
     7  H    1.608301   0.000000
     8  H    3.300111   2.559155   0.000000
     9  H    4.053047   4.362142   2.658834   0.000000
    10  H    3.300111   4.519213   4.313252   2.658834   0.000000
    11  H    1.608301   3.216600   4.519213   4.362142   2.559155
                   11
    11  H    0.000000
 Stoichiometry    C5H6(1+,2)
 Framework group  C2V[C2(HCH),SGV(C4H4)]
 Deg. of freedom    10
 Full point group                 C2V     NOp   4
 Largest Abelian subgroup         C2V     NOp   4
 Largest concise Abelian subgroup C2      NOp   2
                         Standard orientation:                         
 ---------------------------------------------------------------------
 Center     Atomic      Atomic             Coordinates (Angstroms)
 Number     Number       Type             X           Y           Z
 ---------------------------------------------------------------------
      1          6           0        0.000000    0.878804   -0.931542
      2          6           0        0.000000    1.128157    0.423457
      3          6           0        0.000000   -0.000000    1.240879
      4          6           0       -0.000000   -1.128157    0.423457
      5          6           0       -0.000000   -0.878804   -0.931542
      6          1           0       -0.000000    0.000000   -1.732269
      7          1           0        0.000000    1.608300   -1.734053
      8          1           0        0.000000    2.156626    0.765670
      9          1           0        0.000000   -0.000000    2.320778
     10          1           0       -0.000000   -2.156626    0.765670
     11          1           0       -0.000000   -1.608300   -1.734053
 ---------------------------------------------------------------------
 Rotational constants (GHZ):           8.5259551           7.9375455           4.1106177
 Leave Link  202 at Thu Mar  5 13:01:10 2020, MaxMem=  6710886400 cpu:               0.8 elap:               0.1
 (Enter /opt/ohpc/pub/libs/gaussian/g16-A.03/sandybridge/g16/l301.exe)
 Standard basis: 6-31G (6D, 7F)
 Ernie: Thresh=  0.10000D-02 Tol=  0.10000D-05 Strict=F.
 There are    27 symmetry adapted cartesian basis functions of A1  symmetry.
 There are     4 symmetry adapted cartesian basis functions of A2  symmetry.
 There are     6 symmetry adapted cartesian basis functions of B1  symmetry.
 There are    20 symmetry adapted cartesian basis functions of B2  symmetry.
 There are    27 symmetry adapted basis functions of A1  symmetry.
 There are     4 symmetry adapted basis functions of A2  symmetry.
 There are     6 symmetry adapted basis functions of B1  symmetry.
 There are    20 symmetry adapted basis functions of B2  symmetry.
    57 basis functions,   134 primitive gaussians,    57 cartesian basis functions
    18 alpha electrons       17 beta electrons
       nuclear repulsion energy       156.0127424860 Hartrees.
 IExCor=33909 DFT=T Ex+Corr=LC-wHPBE ExCW=0 ScaHFX=  1.000000
 ScaDFX=  1.000000  1.000000  1.000000  1.000000 ScalE2=  1.000000  1.000000
 IRadAn=      5 IRanWt=     -1 IRanGd=            0 ICorTp=0 IEmpDi=  4
 HFx  wShort=  0.000000 wLong=  0.400000 cFull=  0.000000 cShort=  0.000000 cLong=  0.876200
 DFx  wShort=  0.000000 wLong=  0.400000 cFull=  0.000000 cShort=  1.000000 cLong=  0.876200
 NAtoms=   11 NActive=   11 NUniq=    7 SFac= 2.47D+00 NAtFMM=   60 NAOKFM=F Big=F
 Integral buffers will be    131072 words long.
 Raffenetti 2 integral format.
 Two-electron integral symmetry is turned on.
 Leave Link  301 at Thu Mar  5 13:01:11 2020, MaxMem=  6710886400 cpu:               0.9 elap:               0.1
 (Enter /opt/ohpc/pub/libs/gaussian/g16-A.03/sandybridge/g16/l302.exe)
 NPDir=0 NMtPBC=     1 NCelOv=     1 NCel=       1 NClECP=     1 NCelD=      1
         NCelK=      1 NCelE2=     1 NClLst=     1 CellRange=     0.0.
 One-electron integrals computed using PRISM.
 One-electron integral symmetry used in STVInt
 NBasis=    57 RedAO= T EigKep=  1.84D-03  NBF=    27     4     6    20
 NBsUse=    57 1.00D-06 EigRej= -1.00D+00 NBFU=    27     4     6    20
 Precomputing XC quadrature grid using
 IXCGrd= 4 IRadAn=           5 IRanWt=          -1 IRanGd=           0 AccXCQ= 0.00D+00.
 Generated NRdTot=       0 NPtTot=           0 NUsed=           0 NTot=          32
 NSgBfM=    57    57    57    57    57 MxSgAt=    11 MxSgA2=    11.
 Leave Link  302 at Thu Mar  5 13:01:11 2020, MaxMem=  6710886400 cpu:               2.0 elap:               0.1
 (Enter /opt/ohpc/pub/libs/gaussian/g16-A.03/sandybridge/g16/l303.exe)
 DipDrv:  MaxL=1.
 Leave Link  303 at Thu Mar  5 13:01:11 2020, MaxMem=  6710886400 cpu:               0.3 elap:               0.0
 (Enter /opt/ohpc/pub/libs/gaussian/g16-A.03/sandybridge/g16/l401.exe)
 ExpMin= 1.61D-01 ExpMax= 3.05D+03 ExpMxC= 4.57D+02 IAcc=3 IRadAn=         5 AccDes= 0.00D+00
 Harris functional with IExCor=33909 and IRadAn=       5 diagonalized for initial guess.
 HarFok:  IExCor=33909 AccDes= 0.00D+00 IRadAn=         5 IDoV= 1 UseB2=F ITyADJ=14
 ICtDFT=  3500011 ScaDFX=  1.000000  1.000000  1.000000  1.000000
 FoFCou: FMM=F IPFlag=           0 FMFlag=      100000 FMFlg1=           0
         NFxFlg=           0 DoJE=T BraDBF=F KetDBF=T FulRan=T
         wScrn=  0.000000 ICntrl=       500 IOpCl=  0 I1Cent=   200000004 NGrid=           0
         NMat0=    1 NMatS0=      1 NMatT0=    0 NMatD0=    1 NMtDS0=    0 NMtDT0=    0
 Petite list used in FoFCou.
 Harris En= -192.644416168873    
 JPrj=0 DoOrth=F DoCkMO=F.
 Initial guess orbital symmetries:
 Alpha Orbitals:
       Occupied  (A1) (B2) (A1) (B2) (A1) (A1) (A1) (B2) (A1) (B2)
                 (A1) (B2) (A1) (B2) (A1) (B1) (A2) (B1)
       Virtual   (A2) (B2) (B1) (A1) (A1) (B2) (A1) (B2) (A1) (B2)
                 (A1) (B2) (A1) (B2) (B1) (A1) (A2) (B1) (B2) (A1)
                 (A1) (A2) (B1) (B2) (B2) (A1) (B2) (A1) (A1) (B2)
                 (A1) (A1) (A1) (B2) (A1) (B2) (A1) (A1) (B2)
 Beta  Orbitals:
       Occupied  (A1) (B2) (A1) (B2) (A1) (A1) (A1) (B2) (A1) (B2)
                 (A1) (B2) (A1) (B2) (A1) (B1) (A2)
       Virtual   (B1) (A2) (B2) (B1) (A1) (A1) (B2) (A1) (B2) (A1)
                 (B2) (A1) (B2) (A1) (B2) (B1) (A1) (A2) (B1) (B2)
                 (A1) (A1) (A2) (B1) (B2) (B2) (A1) (B2) (A1) (A1)
                 (B2) (A1) (A1) (A1) (B2) (A1) (B2) (A1) (A1) (B2)
 The electronic state of the initial guess is 2-B1.
 Initial guess <Sx>= 0.0000 <Sy>= 0.0000 <Sz>= 0.5000 <S**2>= 0.7500 S= 0.5000
 Leave Link  401 at Thu Mar  5 13:01:11 2020, MaxMem=  6710886400 cpu:               3.4 elap:               0.2
 (Enter /opt/ohpc/pub/libs/gaussian/g16-A.03/sandybridge/g16/l502.exe)
 Keep R1 and R2 ints in memory in symmetry-blocked form, NReq=16815681.
 FoFCou: FMM=F IPFlag=           0 FMFlag=           0 FMFlg1=           0
         NFxFlg=           0 DoJE=F BraDBF=F KetDBF=F FulRan=T
         wScrn=  0.000000 ICntrl=       600 IOpCl=  0 I1Cent=           0 NGrid=           0
         NMat0=    1 NMatS0=   1653 NMatT0=    0 NMatD0=    1 NMtDS0=    0 NMtDT0=    0
 Petite list used in FoFCou.
 UHF open shell SCF:
 Using DIIS extrapolation, IDIIS=    10.
 NGot=  6710886400 LenX=  6710059561 LenY=  6710055871
 Requested convergence on RMS density matrix=1.00D-06 within  32 cycles.
 Requested convergence on MAX density matrix=1.00D-04.
 Requested convergence on             energy=1.00D-04.
 Virtual orbitals will be shifted by   0.500 hartree.
 No special actions if energy rises.
 Dynamic level shift is on during FON iterations.

 Cycle   1  Pass 1  IDiag  1:
 E= -198.557656060931    
 DIIS: error= 4.90D-02 at cycle   1 NSaved=   1.
 NSaved= 1 IEnMin= 1 EnMin= -198.557656060931     IErMin= 1 ErrMin= 4.90D-02
 ErrMax= 4.90D-02  0.00D+00 EMaxC= 1.00D+00 BMatC= 1.97D-01 BMatP= 1.97D-01
 IDIUse=1 WtCom= 1.00D+00 WtEn= 0.00D+00
 Coeff-Com:  0.100D+01
 Coeff:      0.100D+01
 Gap=     0.360 Goal=   None    Shift=    0.500
 T= 1790. Gap= 0.833 NK=0 IS=   19 IE=   57 IFin=   18
          NO(<0.9)=   0  NV(>0.1)=   0     18.00e < EF      0.00e >EF  Err=0.0D+00
 Gap=     0.235 Goal=   None    Shift=    0.500
 T= 1790. Gap= 0.738 NK=0 IS=   18 IE=   57 IFin=   17
          NO(<0.9)=   0  NV(>0.1)=   0     17.00e < EF      0.00e >EF  Err=0.0D+00
 GapD=    0.235 DampG=1.000 DampE=0.500 DampFc=0.5000 IDamp=-1.
 Damping current iteration by 5.00D-01
 RMSDP=6.99D-03 MaxDP=5.38D-02              OVMax= 1.04D-01

 Cycle   2  Pass 1  IDiag  1:
 E= -198.595003351633     Delta-E=       -0.037347290702 Rises=F Damp=T
 DIIS: error= 2.43D-02 at cycle   2 NSaved=   2.
 NSaved= 2 IEnMin= 2 EnMin= -198.595003351633     IErMin= 2 ErrMin= 2.43D-02
 ErrMax= 2.43D-02  0.00D+00 EMaxC= 1.00D+00 BMatC= 3.65D-02 BMatP= 1.97D-01
 IDIUse=1 WtCom= 1.00D+00 WtEn= 0.00D+00
 Coeff-Com: -0.572D+00 0.157D+01
 Coeff:     -0.572D+00 0.157D+01
 Gap=     0.427 Goal=   None    Shift=    0.500
 T= 1680. Gap= 0.913 NK=4 IS=   19 IE=   23 IFin=   18
          NO(<0.9)=   0  NV(>0.1)=   0     18.00e < EF      0.00e >EF  Err=0.0D+00
 Gap=     0.264 Goal=   None    Shift=    0.500
 T= 1680. Gap= 0.762 NK=4 IS=   18 IE=   23 IFin=   17
          NO(<0.9)=   0  NV(>0.1)=   0     17.00e < EF      0.00e >EF  Err=0.0D+00
 GapD=    0.264 DampG=1.000 DampE=0.500 DampFc=0.5000 IDamp=-1.
 Damping current iteration by 5.00D-01
 RMSDP=4.38D-03 MaxDP=3.39D-02 DE=-3.73D-02 OVMax= 1.85D-02

 Cycle   3  Pass 1  IDiag  1:
 E= -198.608801262433     Delta-E=       -0.013797910800 Rises=F Damp=T
 DIIS: error= 1.45D-02 at cycle   3 NSaved=   3.
 NSaved= 3 IEnMin= 3 EnMin= -198.608801262433     IErMin= 3 ErrMin= 1.45D-02
 ErrMax= 1.45D-02  0.00D+00 EMaxC= 1.00D+00 BMatC= 9.15D-03 BMatP= 3.65D-02
 IDIUse=1 WtCom= 1.00D+00 WtEn= 0.00D+00
 Coeff-Com:  0.329D+00-0.187D+01 0.254D+01
 Coeff:      0.329D+00-0.187D+01 0.254D+01
 Gap=     0.417 Goal=   None    Shift=    0.500
 T= 1481. Gap= 0.917 NK=0 IS=   19 IE=   57 IFin=   18
          NO(<0.9)=   0  NV(>0.1)=   0     18.00e < EF      0.00e >EF  Err=0.0D+00
 Gap=     0.269 Goal=   None    Shift=    0.500
 T= 1481. Gap= 0.769 NK=0 IS=   18 IE=   57 IFin=   17
          NO(<0.9)=   0  NV(>0.1)=   0     17.00e < EF      0.00e >EF  Err=0.0D+00
 GapD=    0.269 DampG=1.000 DampE=0.500 DampFc=0.5000 IDamp=-1.
 Damping current iteration by 5.00D-01
 RMSDP=2.55D-03 MaxDP=2.04D-02 DE=-1.38D-02 OVMax= 1.75D-02

 Cycle   4  Pass 1  IDiag  1:
 E= -198.615558692519     Delta-E=       -0.006757430086 Rises=F Damp=T
 DIIS: error= 9.57D-03 at cycle   4 NSaved=   4.
 NSaved= 4 IEnMin= 4 EnMin= -198.615558692519     IErMin= 4 ErrMin= 9.57D-03
 ErrMax= 9.57D-03  0.00D+00 EMaxC= 1.00D+00 BMatC= 3.29D-03 BMatP= 9.15D-03
 IDIUse=1 WtCom= 1.00D+00 WtEn= 0.00D+00
 Coeff-Com:  0.110D-01 0.846D+00-0.384D+01 0.398D+01
 Coeff:      0.110D-01 0.846D+00-0.384D+01 0.398D+01
 Gap=     0.422 Goal=   None    Shift=    0.500
 T= 1122. Gap= 0.923 NK=0 IS=   19 IE=   57 IFin=   18
          NO(<0.9)=   0  NV(>0.1)=   0     18.00e < EF      0.00e >EF  Err=0.0D+00
 Gap=     0.275 Goal=   None    Shift=    0.500
 T= 1122. Gap= 0.775 NK=0 IS=   18 IE=   57 IFin=   17
          NO(<0.9)=   0  NV(>0.1)=   0     17.00e < EF      0.00e >EF  Err=0.0D+00
 GapD=    0.275 DampG=1.000 DampE=1.000 DampFc=1.0000 IDamp=-1.
 RMSDP=1.66D-03 MaxDP=1.72D-02 DE=-6.76D-03 OVMax= 1.72D-02

 Cycle   5  Pass 1  IDiag  1:
 E= -198.623797475438     Delta-E=       -0.008238782920 Rises=F Damp=F
 DIIS: error= 4.71D-03 at cycle   5 NSaved=   5.
 NSaved= 5 IEnMin= 5 EnMin= -198.623797475438     IErMin= 5 ErrMin= 4.71D-03
 ErrMax= 4.71D-03  0.00D+00 EMaxC= 1.00D+00 BMatC= 5.52D-04 BMatP= 3.29D-03
 IDIUse=1 WtCom= 1.00D+00 WtEn= 0.00D+00
 Coeff-Com: -0.196D+00 0.966D+00-0.716D+00-0.103D+01 0.198D+01
 Coeff:     -0.196D+00 0.966D+00-0.716D+00-0.103D+01 0.198D+01
 Gap=     0.426 Goal=   None    Shift=    0.500
 T=  811. Gap= 0.926 NK=0 IS=   19 IE=   57 IFin=   18
          NO(<0.9)=   0  NV(>0.1)=   0     18.00e < EF      0.00e >EF  Err=0.0D+00
 Gap=     0.280 Goal=   None    Shift=    0.500
 T=  811. Gap= 0.780 NK=0 IS=   18 IE=   57 IFin=   17
          NO(<0.9)=   0  NV(>0.1)=   0     17.00e < EF      0.00e >EF  Err=0.0D+00
 GapD=    0.280 DampG=1.000 DampE=1.000 DampFc=1.0000 IDamp=-1.
 RMSDP=4.99D-04 MaxDP=8.04D-03 DE=-8.24D-03 OVMax= 1.77D-02

 Cycle   6  Pass 1  IDiag  1:
 E= -198.624623751474     Delta-E=       -0.000826276035 Rises=F Damp=F
 DIIS: error= 3.68D-03 at cycle   6 NSaved=   6.
 NSaved= 6 IEnMin= 6 EnMin= -198.624623751474     IErMin= 6 ErrMin= 3.68D-03
 ErrMax= 3.68D-03  0.00D+00 EMaxC= 1.00D+00 BMatC= 2.60D-04 BMatP= 5.52D-04
 IDIUse=1 WtCom= 1.00D+00 WtEn= 0.00D+00
 Coeff-Com:  0.578D-02-0.304D+00 0.860D+00-0.543D+00-0.173D+01 0.271D+01
 Coeff:      0.578D-02-0.304D+00 0.860D+00-0.543D+00-0.173D+01 0.271D+01
 Gap=     0.429 Goal=   None    Shift=    0.500
 T=  529. Gap= 0.929 NK=0 IS=   19 IE=   57 IFin=   18
          NO(<0.9)=   0  NV(>0.1)=   0     18.00e < EF      0.00e >EF  Err=0.0D+00
 Gap=     0.282 Goal=   None    Shift=    0.500
 T=  529. Gap= 0.782 NK=0 IS=   18 IE=   57 IFin=   17
          NO(<0.9)=   0  NV(>0.1)=   0     17.00e < EF      0.00e >EF  Err=0.0D+00
 GapD=    0.282 DampG=1.000 DampE=1.000 DampFc=1.0000 IDamp=-1.
 RMSDP=4.07D-04 MaxDP=6.52D-03 DE=-8.26D-04 OVMax= 1.61D-02

 Cycle   7  Pass 1  IDiag  1:
 E= -198.625103517857     Delta-E=       -0.000479766383 Rises=F Damp=F
 DIIS: error= 2.73D-03 at cycle   7 NSaved=   7.
 NSaved= 7 IEnMin= 7 EnMin= -198.625103517857     IErMin= 7 ErrMin= 2.73D-03
 ErrMax= 2.73D-03  0.00D+00 EMaxC= 1.00D+00 BMatC= 1.21D-04 BMatP= 2.60D-04
 IDIUse=1 WtCom= 1.00D+00 WtEn= 0.00D+00
 Coeff-Com:  0.180D-01-0.560D-01-0.190D+00 0.467D+00-0.271D+00-0.136D+01
 Coeff-Com:  0.240D+01
 Coeff:      0.180D-01-0.560D-01-0.190D+00 0.467D+00-0.271D+00-0.136D+01
 Coeff:      0.240D+01
 Gap=     0.430 Goal=   None    Shift=    0.500
 T=  241. Gap= 0.930 NK=0 IS=   19 IE=   57 IFin=   18
          NO(<0.9)=   0  NV(>0.1)=   0     18.00e < EF      0.00e >EF  Err=0.0D+00
 Gap=     0.284 Goal=   None    Shift=    0.500
 T=  241. Gap= 0.784 NK=0 IS=   18 IE=   57 IFin=   17
          NO(<0.9)=   0  NV(>0.1)=   0     17.00e < EF      0.00e >EF  Err=0.0D+00
 GapD=    0.284 DampG=1.000 DampE=1.000 DampFc=1.0000 IDamp=-1.
 RMSDP=2.85D-04 MaxDP=4.27D-03 DE=-4.80D-04 OVMax= 1.23D-02

 Cycle   8  Pass 1  IDiag  1:
 E= -198.625329415250     Delta-E=       -0.000225897393 Rises=F Damp=F
 DIIS: error= 1.99D-03 at cycle   8 NSaved=   8.
 NSaved= 8 IEnMin= 8 EnMin= -198.625329415250     IErMin= 8 ErrMin= 1.99D-03
 ErrMax= 1.99D-03  0.00D+00 EMaxC= 1.00D+00 BMatC= 6.15D-05 BMatP= 1.21D-04
 IDIUse=1 WtCom= 1.00D+00 WtEn= 0.00D+00
 Coeff-Com: -0.171D-01 0.311D+00-0.841D+00 0.554D+00 0.139D+01-0.274D+01
 Coeff-Com: -0.616D-01 0.240D+01
 Coeff:     -0.171D-01 0.311D+00-0.841D+00 0.554D+00 0.139D+01-0.274D+01
 Coeff:     -0.616D-01 0.240D+01
 Gap=     0.431 Goal=   None    Shift=    0.500
 T=   73. Gap= 0.931 NK=0 IS=   19 IE=   57 IFin=   18
          NO(<0.9)=   0  NV(>0.1)=   0     18.00e < EF      0.00e >EF  Err=0.0D+00
 Gap=     0.285 Goal=   None    Shift=    0.500
 T=   73. Gap= 0.785 NK=0 IS=   18 IE=   57 IFin=   17
          NO(<0.9)=   0  NV(>0.1)=   0     17.00e < EF      0.00e >EF  Err=0.0D+00
 GapD=    0.285 DampG=1.000 DampE=1.000 DampFc=1.0000 IDamp=-1.
 RMSDP=2.37D-04 MaxDP=3.44D-03 DE=-2.26D-04 OVMax= 1.07D-02

 Cycle   9  Pass 1  IDiag  1:
 E= -198.625455765838     Delta-E=       -0.000126350588 Rises=F Damp=F
 DIIS: error= 1.36D-03 at cycle   9 NSaved=   9.
 NSaved= 9 IEnMin= 9 EnMin= -198.625455765838     IErMin= 9 ErrMin= 1.36D-03
 ErrMax= 1.36D-03  0.00D+00 EMaxC= 1.00D+00 BMatC= 2.81D-05 BMatP= 6.15D-05
 IDIUse=1 WtCom= 1.00D+00 WtEn= 0.00D+00
 Coeff-Com:  0.415D-02-0.183D+00 0.684D+00-0.660D+00-0.630D+00 0.233D+01
 Coeff-Com: -0.119D+01-0.350D+01 0.415D+01
 Coeff:      0.415D-02-0.183D+00 0.684D+00-0.660D+00-0.630D+00 0.233D+01
 Coeff:     -0.119D+01-0.350D+01 0.415D+01
 Gap=     0.431 Goal=   None    Shift=    0.500
 Gap=     0.285 Goal=   None    Shift=    0.500
 GapD=    0.285 DampG=1.000 DampE=1.000 DampFc=1.0000 IDamp=-1.
 RMSDP=1.95D-04 MaxDP=3.08D-03 DE=-1.26D-04 OVMax= 9.35D-03

 Cycle  10  Pass 1  IDiag  1:
 E= -198.625523718127     Delta-E=       -0.000067952289 Rises=F Damp=F
 DIIS: error= 8.35D-04 at cycle  10 NSaved=  10.
 NSaved=10 IEnMin=10 EnMin= -198.625523718127     IErMin=10 ErrMin= 8.35D-04
 ErrMax= 8.35D-04  0.00D+00 EMaxC= 1.00D+00 BMatC= 1.14D-05 BMatP= 2.81D-05
 IDIUse=1 WtCom= 1.00D+00 WtEn= 0.00D+00
 Coeff-Com:  0.310D-02 0.533D-02-0.474D-01 0.554D-01 0.417D-01-0.217D+00
 Coeff-Com:  0.347D+00 0.989D-01-0.190D+01 0.262D+01
 Coeff:      0.310D-02 0.533D-02-0.474D-01 0.554D-01 0.417D-01-0.217D+00
 Coeff:      0.347D+00 0.989D-01-0.190D+01 0.262D+01
 Gap=     0.432 Goal=   None    Shift=    0.500
 Gap=     0.285 Goal=   None    Shift=    0.500
 RMSDP=1.17D-04 MaxDP=1.91D-03 DE=-6.80D-05 OVMax= 5.83D-03

 Cycle  11  Pass 1  IDiag  1:
 E= -198.625549535981     Delta-E=       -0.000025817854 Rises=F Damp=F
 DIIS: error= 5.11D-04 at cycle  11 NSaved=  11.
 NSaved=11 IEnMin=11 EnMin= -198.625549535981     IErMin=11 ErrMin= 5.11D-04
 ErrMax= 5.11D-04  0.00D+00 EMaxC= 1.00D+00 BMatC= 5.03D-06 BMatP= 1.14D-05
 IDIUse=1 WtCom= 1.00D+00 WtEn= 0.00D+00
 Coeff-Com: -0.326D-03-0.407D-01 0.191D+00-0.216D+00-0.753D-01 0.609D+00
 Coeff-Com: -0.640D+00-0.833D+00 0.348D+01-0.642D+01 0.495D+01
 Coeff:     -0.326D-03-0.407D-01 0.191D+00-0.216D+00-0.753D-01 0.609D+00
 Coeff:     -0.640D+00-0.833D+00 0.348D+01-0.642D+01 0.495D+01
 Gap=     0.432 Goal=   None    Shift=    0.500
 Gap=     0.285 Goal=   None    Shift=    0.500
 RMSDP=7.93D-05 MaxDP=1.24D-03 DE=-2.58D-05 OVMax= 4.03D-03

 Cycle  12  Pass 1  IDiag  1:
 E= -198.625560625197     Delta-E=       -0.000011089217 Rises=F Damp=F
 DIIS: error= 2.95D-04 at cycle  12 NSaved=  12.
 NSaved=12 IEnMin=12 EnMin= -198.625560625197     IErMin=12 ErrMin= 2.95D-04
 ErrMax= 2.95D-04  0.00D+00 EMaxC= 1.00D+00 BMatC= 1.88D-06 BMatP= 5.03D-06
 IDIUse=1 WtCom= 1.00D+00 WtEn= 0.00D+00
 Coeff-Com:  0.772D-03-0.269D-01 0.100D+00-0.973D-01-0.824D-01 0.312D+00
 Coeff-Com: -0.824D-01-0.584D+00 0.483D+00 0.718D+00-0.263D+01 0.289D+01
 Coeff:      0.772D-03-0.269D-01 0.100D+00-0.973D-01-0.824D-01 0.312D+00
 Coeff:     -0.824D-01-0.584D+00 0.483D+00 0.718D+00-0.263D+01 0.289D+01
 Gap=     0.432 Goal=   None    Shift=    0.500
 Gap=     0.285 Goal=   None    Shift=    0.500
 RMSDP=4.79D-05 MaxDP=7.27D-04 DE=-1.11D-05 OVMax= 2.43D-03

 Cycle  13  Pass 1  IDiag  1:
 E= -198.625564607136     Delta-E=       -0.000003981939 Rises=F Damp=F
 DIIS: error= 1.66D-04 at cycle  13 NSaved=  13.
 NSaved=13 IEnMin=13 EnMin= -198.625564607136     IErMin=13 ErrMin= 1.66D-04
 ErrMax= 1.66D-04  0.00D+00 EMaxC= 1.00D+00 BMatC= 6.83D-07 BMatP= 1.88D-06
 IDIUse=1 WtCom= 1.00D+00 WtEn= 0.00D+00
 Coeff-Com:  0.372D-03 0.157D-02-0.271D-04-0.828D-02 0.334D-01-0.162D-01
 Coeff-Com: -0.112D+00 0.104D+00 0.568D+00-0.200D+01 0.351D+01-0.525D+01
 Coeff-Com:  0.418D+01
 Coeff:      0.372D-03 0.157D-02-0.271D-04-0.828D-02 0.334D-01-0.162D-01
 Coeff:     -0.112D+00 0.104D+00 0.568D+00-0.200D+01 0.351D+01-0.525D+01
 Coeff:      0.418D+01
 Gap=     0.432 Goal=   None    Shift=    0.500
 Gap=     0.286 Goal=   None    Shift=    0.500
 RMSDP=2.89D-05 MaxDP=4.41D-04 DE=-3.98D-06 OVMax= 1.48D-03

 Cycle  14  Pass 1  IDiag  1:
 E= -198.625566009370     Delta-E=       -0.000001402234 Rises=F Damp=F
 DIIS: error= 8.84D-05 at cycle  14 NSaved=  14.
 NSaved=14 IEnMin=14 EnMin= -198.625566009370     IErMin=14 ErrMin= 8.84D-05
 ErrMax= 8.84D-05  0.00D+00 EMaxC= 1.00D+00 BMatC= 2.52D-07 BMatP= 6.83D-07
 IDIUse=1 WtCom= 1.00D+00 WtEn= 0.00D+00
 Coeff-Com:  0.400D-03-0.952D-02 0.384D-01-0.410D-01-0.206D-01 0.104D+00
 Coeff-Com: -0.414D-01-0.198D+00 0.379D+00-0.371D+00-0.295D+00 0.177D+01
 Coeff-Com: -0.357D+01 0.325D+01
 Coeff:      0.400D-03-0.952D-02 0.384D-01-0.410D-01-0.206D-01 0.104D+00
 Coeff:     -0.414D-01-0.198D+00 0.379D+00-0.371D+00-0.295D+00 0.177D+01
 Coeff:     -0.357D+01 0.325D+01
 Gap=     0.432 Goal=   None    Shift=    0.500
 Gap=     0.286 Goal=   None    Shift=    0.500
 RMSDP=1.65D-05 MaxDP=2.48D-04 DE=-1.40D-06 OVMax= 8.52D-04

 Cycle  15  Pass 1  IDiag  1:
 E= -198.625566468720     Delta-E=       -0.000000459350 Rises=F Damp=F
 DIIS: error= 4.66D-05 at cycle  15 NSaved=  15.
 NSaved=15 IEnMin=15 EnMin= -198.625566468720     IErMin=15 ErrMin= 4.66D-05
 ErrMax= 4.66D-05  0.00D+00 EMaxC= 1.00D+00 BMatC= 8.52D-08 BMatP= 2.52D-07
 IDIUse=1 WtCom= 1.00D+00 WtEn= 0.00D+00
 Coeff-Com: -0.164D-03 0.357D-02-0.142D-01 0.153D-01 0.833D-02-0.388D-01
 Coeff-Com:  0.124D-01 0.854D-01-0.140D+00 0.998D-01 0.265D+00-0.137D+01
 Coeff-Com:  0.308D+01-0.495D+01 0.395D+01
 Coeff:     -0.164D-03 0.357D-02-0.142D-01 0.153D-01 0.833D-02-0.388D-01
 Coeff:      0.124D-01 0.854D-01-0.140D+00 0.998D-01 0.265D+00-0.137D+01
 Coeff:      0.308D+01-0.495D+01 0.395D+01
 Gap=     0.432 Goal=   None    Shift=    0.500
 Gap=     0.286 Goal=   None    Shift=    0.500
 RMSDP=8.97D-06 MaxDP=1.29D-04 DE=-4.59D-07 OVMax= 4.67D-04

 Cycle  16  Pass 1  IDiag  1:
 E= -198.625566608287     Delta-E=       -0.000000139567 Rises=F Damp=F
 DIIS: error= 2.64D-05 at cycle  16 NSaved=  16.
 NSaved=16 IEnMin=16 EnMin= -198.625566608287     IErMin=16 ErrMin= 2.64D-05
 ErrMax= 2.64D-05  0.00D+00 EMaxC= 1.00D+00 BMatC= 2.84D-08 BMatP= 8.52D-08
 IDIUse=1 WtCom= 1.00D+00 WtEn= 0.00D+00
 Coeff-Com:  0.604D-04-0.710D-03 0.498D-02-0.742D-02 0.474D-02 0.132D-02
 Coeff-Com:  0.393D-04-0.251D-01 0.102D+00-0.222D+00 0.209D+00 0.581D-01
 Coeff-Com: -0.826D+00 0.228D+01-0.407D+01 0.349D+01
 Coeff:      0.604D-04-0.710D-03 0.498D-02-0.742D-02 0.474D-02 0.132D-02
 Coeff:      0.393D-04-0.251D-01 0.102D+00-0.222D+00 0.209D+00 0.581D-01
 Coeff:     -0.826D+00 0.228D+01-0.407D+01 0.349D+01
 Gap=     0.432 Goal=   None    Shift=    0.500
 Gap=     0.286 Goal=   None    Shift=    0.500
 RMSDP=4.75D-06 MaxDP=6.47D-05 DE=-1.40D-07 OVMax= 2.48D-04

 Cycle  17  Pass 1  IDiag  1:
 E= -198.625566649503     Delta-E=       -0.000000041216 Rises=F Damp=F
 DIIS: error= 1.55D-05 at cycle  17 NSaved=  17.
 NSaved=17 IEnMin=17 EnMin= -198.625566649503     IErMin=17 ErrMin= 1.55D-05
 ErrMax= 1.55D-05  0.00D+00 EMaxC= 1.00D+00 BMatC= 9.09D-09 BMatP= 2.84D-08
 IDIUse=1 WtCom= 1.00D+00 WtEn= 0.00D+00
 Coeff-Com: -0.138D-04 0.705D-03-0.409D-02 0.550D-02-0.118D-02-0.739D-02
 Coeff-Com:  0.695D-02 0.200D-01-0.658D-01 0.114D+00-0.662D-01-0.184D+00
 Coeff-Com:  0.719D+00-0.168D+01 0.297D+01-0.449D+01 0.366D+01
 Coeff:     -0.138D-04 0.705D-03-0.409D-02 0.550D-02-0.118D-02-0.739D-02
 Coeff:      0.695D-02 0.200D-01-0.658D-01 0.114D+00-0.662D-01-0.184D+00
 Coeff:      0.719D+00-0.168D+01 0.297D+01-0.449D+01 0.366D+01
 Gap=     0.432 Goal=   None    Shift=    0.500
 Gap=     0.286 Goal=   None    Shift=    0.500
 RMSDP=2.45D-06 MaxDP=3.27D-05 DE=-4.12D-08 OVMax= 1.29D-04

 Cycle  18  Pass 1  IDiag  1:
 E= -198.625566661427     Delta-E=       -0.000000011924 Rises=F Damp=F
 DIIS: error= 9.01D-06 at cycle  18 NSaved=  18.
 NSaved=18 IEnMin=18 EnMin= -198.625566661427     IErMin=18 ErrMin= 9.01D-06
 ErrMax= 9.01D-06  0.00D+00 EMaxC= 1.00D+00 BMatC= 2.84D-09 BMatP= 9.09D-09
 IDIUse=1 WtCom= 1.00D+00 WtEn= 0.00D+00
 Coeff-Com: -0.219D-04 0.383D-03-0.886D-03 0.395D-03 0.265D-02-0.663D-02
 Coeff-Com:  0.413D-02 0.389D-02 0.133D-02-0.236D-01 0.472D-01-0.619D-01
 Coeff-Com:  0.255D-01 0.135D+00-0.586D+00 0.161D+01-0.346D+01 0.332D+01
 Coeff:     -0.219D-04 0.383D-03-0.886D-03 0.395D-03 0.265D-02-0.663D-02
 Coeff:      0.413D-02 0.389D-02 0.133D-02-0.236D-01 0.472D-01-0.619D-01
 Coeff:      0.255D-01 0.135D+00-0.586D+00 0.161D+01-0.346D+01 0.332D+01
 Gap=     0.432 Goal=   None    Shift=    0.500
 Gap=     0.286 Goal=   None    Shift=    0.500
 RMSDP=1.24D-06 MaxDP=1.70D-05 DE=-1.19D-08 OVMax= 6.54D-05

 Cycle  19  Pass 1  IDiag  1:
 E= -198.625566664877     Delta-E=       -0.000000003450 Rises=F Damp=F
 DIIS: error= 5.25D-06 at cycle  19 NSaved=  19.
 NSaved=19 IEnMin=19 EnMin= -198.625566664877     IErMin=19 ErrMin= 5.25D-06
 ErrMax= 5.25D-06  0.00D+00 EMaxC= 1.00D+00 BMatC= 8.47D-10 BMatP= 2.84D-09
 IDIUse=1 WtCom= 1.00D+00 WtEn= 0.00D+00
 Coeff-Com: -0.102D-04 0.259D-03-0.983D-03 0.102D-02 0.654D-03-0.331D-02
 Coeff-Com:  0.291D-02 0.383D-02-0.112D-01 0.144D-01-0.684D-02-0.119D-01
 Coeff-Com:  0.346D-01-0.649D-01 0.124D+00-0.429D+00 0.123D+01-0.281D+01
 Coeff-Com:  0.293D+01
 Coeff:     -0.102D-04 0.259D-03-0.983D-03 0.102D-02 0.654D-03-0.331D-02
 Coeff:      0.291D-02 0.383D-02-0.112D-01 0.144D-01-0.684D-02-0.119D-01
 Coeff:      0.346D-01-0.649D-01 0.124D+00-0.429D+00 0.123D+01-0.281D+01
 Coeff:      0.293D+01
 Gap=     0.432 Goal=   None    Shift=    0.500
 Gap=     0.286 Goal=   None    Shift=    0.500
 RMSDP=6.46D-07 MaxDP=8.96D-06 DE=-3.45D-09 OVMax= 3.41D-05

 SCF Done:  E(ULC-wHPBE) =  -198.625566665     A.U. after   19 cycles
            NFock= 19  Conv=0.65D-06     -V/T= 2.0287
 <Sx>= 0.0000 <Sy>= 0.0000 <Sz>= 0.5000 <S**2>= 0.8382 S= 0.5432
 <L.S>= 0.000000000000E+00
 KE= 1.930812815910D+02 PE=-7.529834743215D+02 EE= 2.052638835797D+02
 Annihilation of the first spin contaminant:
 S**2 before annihilation     0.8382,   after     0.7544
 Leave Link  502 at Thu Mar  5 13:01:13 2020, MaxMem=  6710886400 cpu:              28.9 elap:               1.8
 (Enter /opt/ohpc/pub/libs/gaussian/g16-A.03/sandybridge/g16/l508.exe)
 QCSCF skips out because SCF is already converged.
 Leave Link  508 at Thu Mar  5 13:01:13 2020, MaxMem=  6710886400 cpu:               0.1 elap:               0.0
 (Enter /opt/ohpc/pub/libs/gaussian/g16-A.03/sandybridge/g16/l601.exe)
 Copying SCF densities to generalized density rwf, IOpCl= 1 IROHF=0.

 **********************************************************************

            Population analysis using the SCF density.

 **********************************************************************

 Orbital symmetries:
 Alpha Orbitals:
       Occupied  (B2) (A1) (A1) (B2) (A1) (A1) (A1) (B2) (A1) (B2)
                 (A1) (B2) (A1) (A1) (B1) (B2) (A2) (B1)
       Virtual   (A2) (B2) (B1) (A1) (A1) (B2) (A1) (A1) (B2) (A1)
                 (B2) (A1) (B2) (B1) (B2) (B1) (A2) (A1) (A1) (B2)
                 (A1) (A2) (B1) (B2) (B2) (A1) (A1) (A1) (B2) (A1)
                 (B2) (A1) (A1) (B2) (A1) (B2) (A1) (A1) (B2)
 Beta  Orbitals:
       Occupied  (B2) (A1) (B2) (A1) (A1) (A1) (A1) (B2) (A1) (B2)
                 (A1) (B2) (A1) (A1) (B2) (B1) (A2)
       Virtual   (B1) (B2) (A2) (A1) (B1) (A1) (B2) (A1) (B2) (A1)
                 (A1) (B2) (A1) (B2) (B2) (B1) (A2) (A1) (B1) (A1)
                 (B2) (A1) (A2) (B1) (B2) (B2) (A1) (A1) (B2) (A1)
                 (B2) (A1) (A1) (A1) (B2) (A1) (B2) (A1) (A1) (B2)
 The electronic state is 2-B1.
 Alpha  occ. eigenvalues --  -10.52658 -10.52656 -10.47510 -10.46738 -10.46736
 Alpha  occ. eigenvalues --   -1.39096  -1.26029  -1.21078  -1.07045  -1.04765
 Alpha  occ. eigenvalues --   -0.99930  -0.89960  -0.87713  -0.86613  -0.85411
 Alpha  occ. eigenvalues --   -0.84245  -0.70320  -0.69353
 Alpha virt. eigenvalues --   -0.26188  -0.25604  -0.18994  -0.18309  -0.11351
 Alpha virt. eigenvalues --   -0.06631  -0.04565  -0.02156  -0.02097   0.08572
 Alpha virt. eigenvalues --    0.08875   0.19120   0.19372   0.27644   0.28599
 Alpha virt. eigenvalues --    0.35404   0.35898   0.36674   0.38589   0.39457
 Alpha virt. eigenvalues --    0.39793   0.43467   0.44945   0.52421   0.59363
 Alpha virt. eigenvalues --    0.61670   0.62684   0.65309   0.65392   0.71305
 Alpha virt. eigenvalues --    0.71561   0.75850   0.80025   0.86713   0.94777
 Alpha virt. eigenvalues --    0.95642   1.01549   1.23055   1.24572
  Beta  occ. eigenvalues --  -10.51980 -10.51975 -10.47132 -10.47131 -10.46485
  Beta  occ. eigenvalues --   -1.37707  -1.23951  -1.20902  -1.05894  -1.03993
  Beta  occ. eigenvalues --   -0.99700  -0.89703  -0.87454  -0.86047  -0.84120
  Beta  occ. eigenvalues --   -0.80430  -0.68883
  Beta virt. eigenvalues --   -0.40331  -0.23905  -0.22928  -0.18086  -0.15345
  Beta virt. eigenvalues --   -0.10903  -0.06348  -0.04380  -0.02213  -0.01465
  Beta virt. eigenvalues --    0.09069   0.09193   0.19523   0.19735   0.29031
  Beta virt. eigenvalues --    0.30254   0.37053   0.37277   0.38500   0.38926
  Beta virt. eigenvalues --    0.39772   0.40977   0.43965   0.46635   0.53036
  Beta virt. eigenvalues --    0.59808   0.62617   0.63163   0.65258   0.65774
  Beta virt. eigenvalues --    0.71825   0.72056   0.76681   0.80892   0.86623
  Beta virt. eigenvalues --    0.95235   0.96198   1.02820   1.24023   1.25459
          Condensed to atoms (all electrons):
               1          2          3          4          5          6
     1  C    5.383322   0.490568  -0.042710  -0.121914   0.175526   0.161700
     2  C    0.490568   4.980163   0.449033  -0.024934  -0.121914  -0.021542
     3  C   -0.042710   0.449033   4.909875   0.449033  -0.042710   0.007605
     4  C   -0.121914  -0.024934   0.449033   4.980163   0.490568  -0.021542
     5  C    0.175526  -0.121914  -0.042710   0.490568   5.383322   0.161700
     6  H    0.161700  -0.021542   0.007605  -0.021542   0.161700   0.345476
     7  H    0.335065   0.005187  -0.000543   0.002983  -0.014246  -0.010113
     8  H   -0.022240   0.359931  -0.011006   0.003595   0.000624   0.000281
     9  H    0.004501  -0.024665   0.362052  -0.024665   0.004501  -0.000021
    10  H    0.000624   0.003595  -0.011006   0.359931  -0.022240   0.000281
    11  H   -0.014246   0.002983  -0.000543   0.005187   0.335065  -0.010113
               7          8          9         10         11
     1  C    0.335065  -0.022240   0.004501   0.000624  -0.014246
     2  C    0.005187   0.359931  -0.024665   0.003595   0.002983
     3  C   -0.000543  -0.011006   0.362052  -0.011006  -0.000543
     4  C    0.002983   0.003595  -0.024665   0.359931   0.005187
     5  C   -0.014246   0.000624   0.004501  -0.022240   0.335065
     6  H   -0.010113   0.000281  -0.000021   0.000281  -0.010113
     7  H    0.333776   0.000277  -0.000046  -0.000013   0.000366
     8  H    0.000277   0.372052  -0.000945  -0.000070  -0.000013
     9  H   -0.000046  -0.000945   0.389919  -0.000945  -0.000046
    10  H   -0.000013  -0.000070  -0.000945   0.372052   0.000277
    11  H    0.000366  -0.000013  -0.000046   0.000277   0.333776
          Atomic-Atomic Spin Densities.
               1          2          3          4          5          6
     1  C    0.563418  -0.040646  -0.022091  -0.009603   0.017363  -0.004682
     2  C   -0.040646  -0.322683   0.027317   0.000938  -0.009603   0.000473
     3  C   -0.022091   0.027317   0.764488   0.027317  -0.022091   0.000187
     4  C   -0.009603   0.000938   0.027317  -0.322683  -0.040646   0.000473
     5  C    0.017363  -0.009603  -0.022091  -0.040646   0.563418  -0.004682
     6  H   -0.004682   0.000473   0.000187   0.000473  -0.004682  -0.017517
     7  H   -0.003594  -0.000609   0.000135  -0.000125   0.000152  -0.000087
     8  H   -0.000397   0.002333  -0.001081  -0.000152   0.000085   0.000030
     9  H   -0.000008   0.000026  -0.001774   0.000026  -0.000008  -0.000002
    10  H    0.000085  -0.000152  -0.001081   0.002333  -0.000397   0.000030
    11  H    0.000152  -0.000125   0.000135  -0.000609  -0.003594  -0.000087
               7          8          9         10         11
     1  C   -0.003594  -0.000397  -0.000008   0.000085   0.000152
     2  C   -0.000609   0.002333   0.000026  -0.000152  -0.000125
     3  C    0.000135  -0.001081  -0.001774  -0.001081   0.000135
     4  C   -0.000125  -0.000152   0.000026   0.002333  -0.000609
     5  C    0.000152   0.000085  -0.000008  -0.000397  -0.003594
     6  H   -0.000087   0.000030  -0.000002   0.000030  -0.000087
     7  H   -0.020702   0.000043   0.000004  -0.000000  -0.000080
     8  H    0.000043   0.009962   0.000005  -0.000000  -0.000000
     9  H    0.000004   0.000005  -0.030340   0.000005   0.000004
    10  H   -0.000000  -0.000000   0.000005   0.009962   0.000043
    11  H   -0.000080  -0.000000   0.000004   0.000043  -0.020702
 Mulliken charges and spin densities:
               1          2
     1  C   -0.350197   0.499997
     2  C   -0.098408  -0.342731
     3  C   -0.069080   0.771460
     4  C   -0.098408  -0.342731
     5  C   -0.350197   0.499997
     6  H    0.386290  -0.025863
     7  H    0.347307  -0.024863
     8  H    0.297515   0.010829
     9  H    0.290358  -0.032063
    10  H    0.297515   0.010829
    11  H    0.347307  -0.024863
 Sum of Mulliken charges =   1.00000   1.00000
 Mulliken charges and spin densities with hydrogens summed into heavy atoms:
               1          2
     1  C    0.383399   0.449271
     2  C    0.199107  -0.331902
     3  C    0.221278   0.739397
     4  C    0.199107  -0.331902
     5  C   -0.002891   0.475134
 Electronic spatial extent (au):  <R**2>=            317.2458
 Charge=              1.0000 electrons
 Dipole moment (field-independent basis, Debye):
    X=             -0.0000    Y=             -0.0000    Z=             -2.0703  Tot=              2.0703
 Quadrupole moment (field-independent basis, Debye-Ang):
   XX=            -30.6130   YY=            -16.7307   ZZ=            -12.4334
   XY=              0.0000   XZ=              0.0000   YZ=              0.0000
 Traceless Quadrupole moment (field-independent basis, Debye-Ang):
   XX=            -10.6873   YY=              3.1950   ZZ=              7.4923
   XY=              0.0000   XZ=              0.0000   YZ=              0.0000
 Octapole moment (field-independent basis, Debye-Ang**2):
  XXX=              0.0000  YYY=              0.0000  ZZZ=             -7.6592  XYY=             -0.0000
  XXY=             -0.0000  XXZ=              0.6216  XZZ=              0.0000  YZZ=             -0.0000
  YYZ=             -2.6858  XYZ=             -0.0000
 Hexadecapole moment (field-independent basis, Debye-Ang**3):
 XXXX=            -29.8678 YYYY=           -137.6089 ZZZZ=           -118.6882 XXXY=             -0.0000
 XXXZ=             -0.0000 YYYX=             -0.0000 YYYZ=             -0.0000 ZZZX=              0.0000
 ZZZY=              0.0000 XXYY=            -40.9663 XXZZ=            -37.6192 YYZZ=            -40.4808
 XXYZ=              0.0000 YYXZ=             -0.0000 ZZXY=             -0.0000
 N-N= 1.560127424860D+02 E-N=-7.529834799796D+02  KE= 1.930812815910D+02
 Symmetry A1   KE= 1.115278661791D+02
 Symmetry A2   KE= 2.582215313887D+00
 Symmetry B1   KE= 3.334492565561D+00
 Symmetry B2   KE= 7.563670753244D+01
 Symmetry A1   SP= 1.077592393233D-14
 Symmetry A2   SP= 1.846829980612D-15
 Symmetry B1   SP= 1.000000000000D+00
 Symmetry B2   SP= 3.256265699789D-16
                          Isotropic Fermi Contact Couplings
        Atom                 a.u.       MegaHertz       Gauss      10(-4) cm-1
     1  C(13)              0.08363      94.01631      33.54736      31.36047
     2  C(13)             -0.06120     -68.79734     -24.54860     -22.94832
     3  C(13)              0.11917     133.96629      47.80250      44.68635
     4  C(13)             -0.06120     -68.79734     -24.54860     -22.94832
     5  C(13)              0.08363      94.01631      33.54736      31.36047
     6  H(1)              -0.00999     -44.66090     -15.93612     -14.89727
     7  H(1)              -0.01104     -49.34332     -17.60693     -16.45916
     8  H(1)               0.00453      20.26695       7.23175       6.76033
     9  H(1)              -0.01504     -67.22737     -23.98840     -22.42464
    10  H(1)               0.00453      20.26695       7.23175       6.76033
    11  H(1)              -0.01104     -49.34332     -17.60693     -16.45916
 --------------------------------------------------------
       Center         ----  Spin Dipole Couplings  ----
                      3XX-RR        3YY-RR        3ZZ-RR
 --------------------------------------------------------
     1   Atom        0.526399     -0.256346     -0.270053
     2   Atom       -0.236376      0.115754      0.120622
     3   Atom        0.728896     -0.372778     -0.356118
     4   Atom       -0.236376      0.115754      0.120622
     5   Atom        0.526399     -0.256346     -0.270053
     6   Atom       -0.009408      0.009446     -0.000039
     7   Atom       -0.007061      0.007486     -0.000426
     8   Atom       -0.005978     -0.003583      0.009561
     9   Atom       -0.008762     -0.047261      0.056023
    10   Atom       -0.005978     -0.003583      0.009561
    11   Atom       -0.007061      0.007486     -0.000426
 --------------------------------------------------------
                        XY            XZ            YZ
 --------------------------------------------------------
     1   Atom       -0.000000      0.000000     -0.008747
     2   Atom       -0.000000      0.000000     -0.004726
     3   Atom       -0.000000     -0.000000     -0.000000
     4   Atom       -0.000000     -0.000000      0.004726
     5   Atom        0.000000      0.000000      0.008747
     6   Atom       -0.000000      0.000000      0.000000
     7   Atom        0.000000      0.000000     -0.037717
     8   Atom       -0.000000      0.000000     -0.007544
     9   Atom       -0.000000     -0.000000      0.000000
    10   Atom        0.000000     -0.000000      0.007544
    11   Atom       -0.000000     -0.000000      0.037717
 --------------------------------------------------------


 ---------------------------------------------------------------------------------
              Anisotropic Spin Dipole Couplings in Principal Axis System
 ---------------------------------------------------------------------------------

       Atom             a.u.   MegaHertz   Gauss  10(-4) cm-1        Axes

              Baa    -0.2743   -36.810   -13.135   -12.278 -0.0000  0.4377  0.8991
     1 C(13)  Bbb    -0.2521   -33.828   -12.071   -11.284 -0.0000  0.8991 -0.4377
              Bcc     0.5264    70.638    25.205    23.562  1.0000  0.0000  0.0000
 
              Baa    -0.2364   -31.719   -11.318   -10.580  1.0000  0.0000  0.0000
     2 C(13)  Bbb     0.1129    15.146     5.405     5.052 -0.0000  0.8538  0.5206
              Bcc     0.1235    16.573     5.914     5.528  0.0000 -0.5206  0.8538
 
              Baa    -0.3728   -50.023   -17.850   -16.686  0.0000  1.0000 -0.0000
     3 C(13)  Bbb    -0.3561   -47.788   -17.052   -15.940  0.0000  0.0000  1.0000
              Bcc     0.7289    97.811    34.901    32.626  1.0000  0.0000 -0.0000
 
              Baa    -0.2364   -31.719   -11.318   -10.580  1.0000  0.0000  0.0000
     4 C(13)  Bbb     0.1129    15.146     5.405     5.052 -0.0000  0.8538 -0.5206
              Bcc     0.1235    16.573     5.914     5.528 -0.0000  0.5206  0.8538
 
              Baa    -0.2743   -36.810   -13.135   -12.278 -0.0000 -0.4377  0.8991
     5 C(13)  Bbb    -0.2521   -33.828   -12.071   -11.284  0.0000  0.8991  0.4377
              Bcc     0.5264    70.638    25.205    23.562  1.0000 -0.0000  0.0000
 
              Baa    -0.0094    -5.020    -1.791    -1.674  1.0000 -0.0000 -0.0000
     6 H(1)   Bbb    -0.0000    -0.021    -0.007    -0.007  0.0000 -0.0000  1.0000
              Bcc     0.0094     5.040     1.798     1.681 -0.0000  1.0000 -0.0000
 
              Baa    -0.0344   -18.351    -6.548    -6.121 -0.0000  0.6692  0.7431
     7 H(1)   Bbb    -0.0071    -3.767    -1.344    -1.257  1.0000  0.0000  0.0000
              Bcc     0.0415    22.118     7.892     7.378 -0.0000  0.7431 -0.6692
 
              Baa    -0.0070    -3.743    -1.336    -1.249 -0.0000  0.9102  0.4142
     8 H(1)   Bbb    -0.0060    -3.190    -1.138    -1.064  1.0000  0.0000  0.0000
              Bcc     0.0130     6.933     2.474     2.313  0.0000 -0.4142  0.9102
 
              Baa    -0.0473   -25.216    -8.998    -8.411 -0.0000  1.0000 -0.0000
     9 H(1)   Bbb    -0.0088    -4.675    -1.668    -1.559  1.0000 -0.0000  0.0000
              Bcc     0.0560    29.891    10.666     9.971  0.0000  0.0000  1.0000
 
              Baa    -0.0070    -3.743    -1.336    -1.249 -0.0000  0.9102 -0.4142
    10 H(1)   Bbb    -0.0060    -3.190    -1.138    -1.064  1.0000  0.0000 -0.0000
              Bcc     0.0130     6.933     2.474     2.313  0.0000  0.4142  0.9102
 
              Baa    -0.0344   -18.351    -6.548    -6.121  0.0000 -0.6692  0.7431
    11 H(1)   Bbb    -0.0071    -3.767    -1.344    -1.257  1.0000  0.0000  0.0000
              Bcc     0.0415    22.118     7.892     7.378 -0.0000  0.7431  0.6692
 

 ---------------------------------------------------------------------------------

 No NMR shielding tensors so no spin-rotation constants.
 Leave Link  601 at Thu Mar  5 13:01:13 2020, MaxMem=  6710886400 cpu:               4.4 elap:               0.3
 (Enter /opt/ohpc/pub/libs/gaussian/g16-A.03/sandybridge/g16/l9999.exe)

 Test job not archived.
 1\1\GINC-CNODE212\SP\ULC-wHPBE\6-31G\C5H6(1+,2)\SMGO234\05-Mar-2020\0\
 \#P uLC-wHPBE/6-31G iop(3/130=0123800000, 3/131=0123800000, 3/119=0876
 200000, 3/120=0876200000) scf=(conver=6,fermi,ndamp=35,noincfock,novar
 acc,vshift=500,xqc)\\H6 C5\\1,2\C,0,0.,0.878804,-0.931542\C,0,0.,1.128
 157,0.423457\C,0,0.,0.,1.240879\C,0,0.,-1.128157,0.423457\C,0,0.,-0.87
 8804,-0.931542\H,0,0.,0.,-1.732269\H,0,0.,1.6083,-1.734053\H,0,0.,2.15
 6626,0.76567\H,0,0.,0.,2.320778\H,0,0.,-2.156626,0.76567\H,0,0.,-1.608
 3,-1.734053\\Version=EM64L-G16RevA.03\State=2-B1\HF=-198.6255667\S2=0.
 838226\S2-1=0.\S2A=0.754354\RMSD=6.463e-07\Dipole=0.,0.,-0.8145267\Qua
 drupole=-7.9457433,2.3754166,5.5703267,0.,0.,0.\PG=C02V [C2(H1C1H1),SG
 V(C4H4)]\\@


 THE PROMISED LAND ALWAYS LIES ON THE OTHER SIDE OF A WILDERNESS.

                         -- HAVELOCK ELLIS
 Job cpu time:       0 days  0 hours  1 minutes  0.4 seconds.
 Elapsed time:       0 days  0 hours  0 minutes  4.1 seconds.
 File lengths (MBytes):  RWF=    272 Int=      0 D2E=      0 Chk=     32 Scr=     32
 Normal termination of Gaussian 16 at Thu Mar  5 13:01:13 2020.
