 Entering Gaussian System, Link 0=g16
 Input=a1b_tune_c10.gjf
 Output=a1b_tune_c10.log
 Initial command:
 /opt/ohpc/pub/libs/gaussian/g16-A.03/sandybridge/g16/l1.exe "/scratch/smgo234/Ocelot/test/a1b/tuning_a1b_acycle2/Gau-87674.inp" -scrdir="/scratch/smgo234/Ocelot/test/a1b/tuning_a1b_acycle2/"
 Entering Link 1 = /opt/ohpc/pub/libs/gaussian/g16-A.03/sandybridge/g16/l1.exe PID=     87675.
  
 Copyright (c) 1988,1990,1992,1993,1995,1998,2003,2009,2016,
            Gaussian, Inc.  All Rights Reserved.
  
 This is part of the Gaussian(R) 16 program.  It is based on
 the Gaussian(R) 09 system (copyright 2009, Gaussian, Inc.),
 the Gaussian(R) 03 system (copyright 2003, Gaussian, Inc.),
 the Gaussian(R) 98 system (copyright 1998, Gaussian, Inc.),
 the Gaussian(R) 94 system (copyright 1995, Gaussian, Inc.),
 the Gaussian 92(TM) system (copyright 1992, Gaussian, Inc.),
 the Gaussian 90(TM) system (copyright 1990, Gaussian, Inc.),
 the Gaussian 88(TM) system (copyright 1988, Gaussian, Inc.),
 the Gaussian 86(TM) system (copyright 1986, Carnegie Mellon
 University), and the Gaussian 82(TM) system (copyright 1983,
 Carnegie Mellon University). Gaussian is a federally registered
 trademark of Gaussian, Inc.
  
 This software contains proprietary and confidential information,
 including trade secrets, belonging to Gaussian, Inc.
  
 This software is provided under written license and may be
 used, copied, transmitted, or stored only in accord with that
 written license.
  
 The following legend is applicable only to US Government
 contracts under FAR:
  
                    RESTRICTED RIGHTS LEGEND
  
 Use, reproduction and disclosure by the US Government is
 subject to restrictions as set forth in subparagraphs (a)
 and (c) of the Commercial Computer Software - Restricted
 Rights clause in FAR 52.227-19.
  
 Gaussian, Inc.
 340 Quinnipiac St., Bldg. 40, Wallingford CT 06492
  
  
 ---------------------------------------------------------------
 Warning -- This program may not be used in any manner that
 competes with the business of Gaussian, Inc. or will provide
 assistance to any competitor of Gaussian, Inc.  The licensee
 of this program is prohibited from giving any competitor of
 Gaussian, Inc. access to this program.  By using this program,
 the user acknowledges that Gaussian, Inc. is engaged in the
 business of creating and licensing software in the field of
 computational chemistry and represents and warrants to the
 licensee that it is not a competitor of Gaussian, Inc. and that
 it will not use this program in any manner prohibited above.
 ---------------------------------------------------------------
  

 Cite this work as:
 Gaussian 16, Revision A.03,
 M. J. Frisch, G. W. Trucks, H. B. Schlegel, G. E. Scuseria, 
 M. A. Robb, J. R. Cheeseman, G. Scalmani, V. Barone, 
 G. A. Petersson, H. Nakatsuji, X. Li, M. Caricato, A. V. Marenich, 
 J. Bloino, B. G. Janesko, R. Gomperts, B. Mennucci, H. P. Hratchian, 
 J. V. Ortiz, A. F. Izmaylov, J. L. Sonnenberg, D. Williams-Young, 
 F. Ding, F. Lipparini, F. Egidi, J. Goings, B. Peng, A. Petrone, 
 T. Henderson, D. Ranasinghe, V. G. Zakrzewski, J. Gao, N. Rega, 
 G. Zheng, W. Liang, M. Hada, M. Ehara, K. Toyota, R. Fukuda, 
 J. Hasegawa, M. Ishida, T. Nakajima, Y. Honda, O. Kitao, H. Nakai, 
 T. Vreven, K. Throssell, J. A. Montgomery, Jr., J. E. Peralta, 
 F. Ogliaro, M. J. Bearpark, J. J. Heyd, E. N. Brothers, K. N. Kudin, 
 V. N. Staroverov, T. A. Keith, R. Kobayashi, J. Normand, 
 K. Raghavachari, A. P. Rendell, J. C. Burant, S. S. Iyengar, 
 J. Tomasi, M. Cossi, J. M. Millam, M. Klene, C. Adamo, R. Cammi, 
 J. W. Ochterski, R. L. Martin, K. Morokuma, O. Farkas, 
 J. B. Foresman, and D. J. Fox, Gaussian, Inc., Wallingford CT, 2016.
 
 ******************************************
 Gaussian 16:  EM64L-G16RevA.03 25-Dec-2016
                 5-Mar-2020 
 ******************************************
 %mem=50GB
 %nproc=16
 Will use up to   16 processors via shared memory.
 ----------------------------------------------------------------------
 #P uLC-wHPBE/6-31G iop(3/130=0113500000, 3/131=0113500000, 3/119=08865
 00000, 3/120=0886500000) scf=(conver=6,fermi,ndamp=35,noincfock,novara
 cc,vshift=500,xqc)
 ----------------------------------------------------------------------
 1/38=1,172=1/1;
 2/12=2,17=6,18=5,40=1/2;
 3/5=1,6=6,11=2,25=1,30=1,74=-71,116=2,119=886500000,120=886500000,130=113500000,131=113500000/1,2,3;
 4//1;
 5/5=100002,6=6,8=3,10=500,13=1,18=-1,22=13,38=1,93=35/2,8;
 6/7=2,8=2,9=2,10=2,28=1/1;
 99/5=1,9=1/99;
 Leave Link    1 at Thu Mar  5 13:01:55 2020, MaxMem=  6710886400 cpu:              17.5 elap:               1.2
 (Enter /opt/ohpc/pub/libs/gaussian/g16-A.03/sandybridge/g16/l101.exe)
 -----
 H6 C5
 -----
 Symbolic Z-matrix:
 Charge =  1 Multiplicity = 2
 C                     0.        0.8788   -0.93154 
 C                     0.        1.12816   0.42346 
 C                     0.        0.        1.24088 
 C                     0.       -1.12816   0.42346 
 C                     0.       -0.8788   -0.93154 
 H                     0.        0.       -1.73227 
 H                     0.        1.6083   -1.73405 
 H                     0.        2.15663   0.76567 
 H                     0.        0.        2.32078 
 H                     0.       -2.15663   0.76567 
 H                     0.       -1.6083   -1.73405 
 
 ITRead=  0  0  0  0  0  0  0  0  0  0  0
 MicOpt= -1 -1 -1 -1 -1 -1 -1 -1 -1 -1 -1
 NAtoms=     11 NQM=       11 NQMF=       0 NMMI=      0 NMMIF=      0
                NMic=       0 NMicF=      0.
                    Isotopes and Nuclear Properties:
 (Nuclear quadrupole moments (NQMom) in fm**2, nuclear magnetic moments (NMagM)
  in nuclear magnetons)

  Atom         1           2           3           4           5           6           7           8           9          10
 IAtWgt=          12          12          12          12          12           1           1           1           1           1
 AtmWgt=  12.0000000  12.0000000  12.0000000  12.0000000  12.0000000   1.0078250   1.0078250   1.0078250   1.0078250   1.0078250
 NucSpn=           0           0           0           0           0           1           1           1           1           1
 AtZEff=  -0.0000000  -0.0000000  -0.0000000  -0.0000000  -0.0000000  -0.0000000  -0.0000000  -0.0000000  -0.0000000  -0.0000000
 NQMom=    0.0000000   0.0000000   0.0000000   0.0000000   0.0000000   0.0000000   0.0000000   0.0000000   0.0000000   0.0000000
 NMagM=    0.0000000   0.0000000   0.0000000   0.0000000   0.0000000   2.7928460   2.7928460   2.7928460   2.7928460   2.7928460
 AtZNuc=   6.0000000   6.0000000   6.0000000   6.0000000   6.0000000   1.0000000   1.0000000   1.0000000   1.0000000   1.0000000

  Atom        11
 IAtWgt=           1
 AtmWgt=   1.0078250
 NucSpn=           1
 AtZEff=  -0.0000000
 NQMom=    0.0000000
 NMagM=    2.7928460
 AtZNuc=   1.0000000
 Leave Link  101 at Thu Mar  5 13:01:55 2020, MaxMem=  6710886400 cpu:               2.8 elap:               0.2
 (Enter /opt/ohpc/pub/libs/gaussian/g16-A.03/sandybridge/g16/l202.exe)
                          Input orientation:                          
 ---------------------------------------------------------------------
 Center     Atomic      Atomic             Coordinates (Angstroms)
 Number     Number       Type             X           Y           Z
 ---------------------------------------------------------------------
      1          6           0        0.000000    0.878804   -0.931542
      2          6           0        0.000000    1.128157    0.423457
      3          6           0        0.000000    0.000000    1.240879
      4          6           0        0.000000   -1.128157    0.423457
      5          6           0        0.000000   -0.878804   -0.931542
      6          1           0        0.000000    0.000000   -1.732269
      7          1           0        0.000000    1.608300   -1.734053
      8          1           0        0.000000    2.156626    0.765670
      9          1           0        0.000000    0.000000    2.320778
     10          1           0        0.000000   -2.156626    0.765670
     11          1           0        0.000000   -1.608300   -1.734053
 ---------------------------------------------------------------------
                    Distance matrix (angstroms):
                    1          2          3          4          5
     1  C    0.000000
     2  C    1.377752   0.000000
     3  C    2.343440   1.393168   0.000000
     4  C    2.421552   2.256314   1.393168   0.000000
     5  C    1.757608   2.421552   2.343440   1.377752   0.000000
     6  H    1.188890   2.433083   2.973148   2.433083   1.188890
     7  H    1.084522   2.210291   3.381841   3.484687   2.613371
     8  H    2.124466   1.083909   2.208361   3.302561   3.477695
     9  H    3.368959   2.207389   1.079899   2.207389   3.368959
    10  H    3.477695   3.302561   2.208361   1.083909   2.124466
    11  H    2.613371   3.484687   3.381841   2.210291   1.084522
                    6          7          8          9         10
     6  H    0.000000
     7  H    1.608301   0.000000
     8  H    3.300111   2.559155   0.000000
     9  H    4.053047   4.362142   2.658834   0.000000
    10  H    3.300111   4.519213   4.313252   2.658834   0.000000
    11  H    1.608301   3.216600   4.519213   4.362142   2.559155
                   11
    11  H    0.000000
 Stoichiometry    C5H6(1+,2)
 Framework group  C2V[C2(HCH),SGV(C4H4)]
 Deg. of freedom    10
 Full point group                 C2V     NOp   4
 Largest Abelian subgroup         C2V     NOp   4
 Largest concise Abelian subgroup C2      NOp   2
                         Standard orientation:                         
 ---------------------------------------------------------------------
 Center     Atomic      Atomic             Coordinates (Angstroms)
 Number     Number       Type             X           Y           Z
 ---------------------------------------------------------------------
      1          6           0        0.000000    0.878804   -0.931542
      2          6           0        0.000000    1.128157    0.423457
      3          6           0        0.000000   -0.000000    1.240879
      4          6           0       -0.000000   -1.128157    0.423457
      5          6           0       -0.000000   -0.878804   -0.931542
      6          1           0       -0.000000    0.000000   -1.732269
      7          1           0        0.000000    1.608300   -1.734053
      8          1           0        0.000000    2.156626    0.765670
      9          1           0        0.000000   -0.000000    2.320778
     10          1           0       -0.000000   -2.156626    0.765670
     11          1           0       -0.000000   -1.608300   -1.734053
 ---------------------------------------------------------------------
 Rotational constants (GHZ):           8.5259551           7.9375455           4.1106177
 Leave Link  202 at Thu Mar  5 13:01:55 2020, MaxMem=  6710886400 cpu:               0.8 elap:               0.1
 (Enter /opt/ohpc/pub/libs/gaussian/g16-A.03/sandybridge/g16/l301.exe)
 Standard basis: 6-31G (6D, 7F)
 Ernie: Thresh=  0.10000D-02 Tol=  0.10000D-05 Strict=F.
 There are    27 symmetry adapted cartesian basis functions of A1  symmetry.
 There are     4 symmetry adapted cartesian basis functions of A2  symmetry.
 There are     6 symmetry adapted cartesian basis functions of B1  symmetry.
 There are    20 symmetry adapted cartesian basis functions of B2  symmetry.
 There are    27 symmetry adapted basis functions of A1  symmetry.
 There are     4 symmetry adapted basis functions of A2  symmetry.
 There are     6 symmetry adapted basis functions of B1  symmetry.
 There are    20 symmetry adapted basis functions of B2  symmetry.
    57 basis functions,   134 primitive gaussians,    57 cartesian basis functions
    18 alpha electrons       17 beta electrons
       nuclear repulsion energy       156.0127424860 Hartrees.
 IExCor=33909 DFT=T Ex+Corr=LC-wHPBE ExCW=0 ScaHFX=  1.000000
 ScaDFX=  1.000000  1.000000  1.000000  1.000000 ScalE2=  1.000000  1.000000
 IRadAn=      5 IRanWt=     -1 IRanGd=            0 ICorTp=0 IEmpDi=  4
 HFx  wShort=  0.000000 wLong=  0.400000 cFull=  0.000000 cShort=  0.000000 cLong=  0.886500
 DFx  wShort=  0.000000 wLong=  0.400000 cFull=  0.000000 cShort=  1.000000 cLong=  0.886500
 NAtoms=   11 NActive=   11 NUniq=    7 SFac= 2.47D+00 NAtFMM=   60 NAOKFM=F Big=F
 Integral buffers will be    131072 words long.
 Raffenetti 2 integral format.
 Two-electron integral symmetry is turned on.
 Leave Link  301 at Thu Mar  5 13:01:55 2020, MaxMem=  6710886400 cpu:               0.9 elap:               0.1
 (Enter /opt/ohpc/pub/libs/gaussian/g16-A.03/sandybridge/g16/l302.exe)
 NPDir=0 NMtPBC=     1 NCelOv=     1 NCel=       1 NClECP=     1 NCelD=      1
         NCelK=      1 NCelE2=     1 NClLst=     1 CellRange=     0.0.
 One-electron integrals computed using PRISM.
 One-electron integral symmetry used in STVInt
 NBasis=    57 RedAO= T EigKep=  1.84D-03  NBF=    27     4     6    20
 NBsUse=    57 1.00D-06 EigRej= -1.00D+00 NBFU=    27     4     6    20
 Precomputing XC quadrature grid using
 IXCGrd= 4 IRadAn=           5 IRanWt=          -1 IRanGd=           0 AccXCQ= 0.00D+00.
 Generated NRdTot=       0 NPtTot=           0 NUsed=           0 NTot=          32
 NSgBfM=    57    57    57    57    57 MxSgAt=    11 MxSgA2=    11.
 Leave Link  302 at Thu Mar  5 13:01:55 2020, MaxMem=  6710886400 cpu:               2.1 elap:               0.2
 (Enter /opt/ohpc/pub/libs/gaussian/g16-A.03/sandybridge/g16/l303.exe)
 DipDrv:  MaxL=1.
 Leave Link  303 at Thu Mar  5 13:01:55 2020, MaxMem=  6710886400 cpu:               0.9 elap:               0.1
 (Enter /opt/ohpc/pub/libs/gaussian/g16-A.03/sandybridge/g16/l401.exe)
 ExpMin= 1.61D-01 ExpMax= 3.05D+03 ExpMxC= 4.57D+02 IAcc=3 IRadAn=         5 AccDes= 0.00D+00
 Harris functional with IExCor=33909 and IRadAn=       5 diagonalized for initial guess.
 HarFok:  IExCor=33909 AccDes= 0.00D+00 IRadAn=         5 IDoV= 1 UseB2=F ITyADJ=14
 ICtDFT=  3500011 ScaDFX=  1.000000  1.000000  1.000000  1.000000
 FoFCou: FMM=F IPFlag=           0 FMFlag=      100000 FMFlg1=           0
         NFxFlg=           0 DoJE=T BraDBF=F KetDBF=T FulRan=T
         wScrn=  0.000000 ICntrl=       500 IOpCl=  0 I1Cent=   200000004 NGrid=           0
         NMat0=    1 NMatS0=      1 NMatT0=    0 NMatD0=    1 NMtDS0=    0 NMtDT0=    0
 Petite list used in FoFCou.
 Harris En= -192.714942499392    
 JPrj=0 DoOrth=F DoCkMO=F.
 Initial guess orbital symmetries:
 Alpha Orbitals:
       Occupied  (A1) (B2) (A1) (B2) (A1) (A1) (A1) (B2) (A1) (B2)
                 (A1) (B2) (A1) (B2) (A1) (B1) (A2) (B1)
       Virtual   (A2) (B2) (B1) (A1) (A1) (B2) (A1) (B2) (A1) (B2)
                 (A1) (B2) (A1) (B2) (B1) (A1) (A2) (B1) (B2) (A1)
                 (A1) (A2) (B1) (B2) (B2) (A1) (B2) (A1) (A1) (B2)
                 (A1) (A1) (A1) (B2) (A1) (B2) (A1) (A1) (B2)
 Beta  Orbitals:
       Occupied  (A1) (B2) (A1) (B2) (A1) (A1) (A1) (B2) (A1) (B2)
                 (A1) (B2) (A1) (B2) (A1) (B1) (A2)
       Virtual   (B1) (A2) (B2) (B1) (A1) (A1) (B2) (A1) (B2) (A1)
                 (B2) (A1) (B2) (A1) (B2) (B1) (A1) (A2) (B1) (B2)
                 (A1) (A1) (A2) (B1) (B2) (B2) (A1) (B2) (A1) (A1)
                 (B2) (A1) (A1) (A1) (B2) (A1) (B2) (A1) (A1) (B2)
 The electronic state of the initial guess is 2-B1.
 Initial guess <Sx>= 0.0000 <Sy>= 0.0000 <Sz>= 0.5000 <S**2>= 0.7500 S= 0.5000
 Leave Link  401 at Thu Mar  5 13:01:56 2020, MaxMem=  6710886400 cpu:               3.4 elap:               0.2
 (Enter /opt/ohpc/pub/libs/gaussian/g16-A.03/sandybridge/g16/l502.exe)
 Keep R1 and R2 ints in memory in symmetry-blocked form, NReq=16815681.
 FoFCou: FMM=F IPFlag=           0 FMFlag=           0 FMFlg1=           0
         NFxFlg=           0 DoJE=F BraDBF=F KetDBF=F FulRan=T
         wScrn=  0.000000 ICntrl=       600 IOpCl=  0 I1Cent=           0 NGrid=           0
         NMat0=    1 NMatS0=   1653 NMatT0=    0 NMatD0=    1 NMtDS0=    0 NMtDT0=    0
 Petite list used in FoFCou.
 UHF open shell SCF:
 Using DIIS extrapolation, IDIIS=    10.
 NGot=  6710886400 LenX=  6710059561 LenY=  6710055871
 Requested convergence on RMS density matrix=1.00D-06 within  32 cycles.
 Requested convergence on MAX density matrix=1.00D-04.
 Requested convergence on             energy=1.00D-04.
 Virtual orbitals will be shifted by   0.500 hartree.
 No special actions if energy rises.
 Dynamic level shift is on during FON iterations.

 Cycle   1  Pass 1  IDiag  1:
 E= -198.699746229064    
 DIIS: error= 4.90D-02 at cycle   1 NSaved=   1.
 NSaved= 1 IEnMin= 1 EnMin= -198.699746229064     IErMin= 1 ErrMin= 4.90D-02
 ErrMax= 4.90D-02  0.00D+00 EMaxC= 1.00D+00 BMatC= 1.97D-01 BMatP= 1.97D-01
 IDIUse=1 WtCom= 1.00D+00 WtEn= 0.00D+00
 Coeff-Com:  0.100D+01
 Coeff:      0.100D+01
 Gap=     0.363 Goal=   None    Shift=    0.500
 T= 1791. Gap= 0.835 NK=0 IS=   19 IE=   57 IFin=   18
          NO(<0.9)=   0  NV(>0.1)=   0     18.00e < EF      0.00e >EF  Err=0.0D+00
 Gap=     0.238 Goal=   None    Shift=    0.500
 T= 1791. Gap= 0.741 NK=0 IS=   18 IE=   57 IFin=   17
          NO(<0.9)=   0  NV(>0.1)=   0     17.00e < EF      0.00e >EF  Err=0.0D+00
 GapD=    0.238 DampG=1.000 DampE=0.500 DampFc=0.5000 IDamp=-1.
 Damping current iteration by 5.00D-01
 RMSDP=6.99D-03 MaxDP=5.38D-02              OVMax= 1.03D-01

 Cycle   2  Pass 1  IDiag  1:
 E= -198.737060468050     Delta-E=       -0.037314238987 Rises=F Damp=T
 DIIS: error= 2.44D-02 at cycle   2 NSaved=   2.
 NSaved= 2 IEnMin= 2 EnMin= -198.737060468050     IErMin= 2 ErrMin= 2.44D-02
 ErrMax= 2.44D-02  0.00D+00 EMaxC= 1.00D+00 BMatC= 3.68D-02 BMatP= 1.97D-01
 IDIUse=1 WtCom= 1.00D+00 WtEn= 0.00D+00
 Coeff-Com: -0.576D+00 0.158D+01
 Coeff:     -0.576D+00 0.158D+01
 Gap=     0.429 Goal=   None    Shift=    0.500
 T= 1681. Gap= 0.916 NK=4 IS=   19 IE=   23 IFin=   18
          NO(<0.9)=   0  NV(>0.1)=   0     18.00e < EF      0.00e >EF  Err=0.0D+00
 Gap=     0.267 Goal=   None    Shift=    0.500
 T= 1681. Gap= 0.765 NK=4 IS=   18 IE=   23 IFin=   17
          NO(<0.9)=   0  NV(>0.1)=   0     17.00e < EF      0.00e >EF  Err=0.0D+00
 GapD=    0.267 DampG=1.000 DampE=0.500 DampFc=0.5000 IDamp=-1.
 Damping current iteration by 5.00D-01
 RMSDP=4.40D-03 MaxDP=3.40D-02 DE=-3.73D-02 OVMax= 1.86D-02

 Cycle   3  Pass 1  IDiag  1:
 E= -198.750913048642     Delta-E=       -0.013852580592 Rises=F Damp=T
 DIIS: error= 1.46D-02 at cycle   3 NSaved=   3.
 NSaved= 3 IEnMin= 3 EnMin= -198.750913048642     IErMin= 3 ErrMin= 1.46D-02
 ErrMax= 1.46D-02  0.00D+00 EMaxC= 1.00D+00 BMatC= 9.30D-03 BMatP= 3.68D-02
 IDIUse=1 WtCom= 1.00D+00 WtEn= 0.00D+00
 Coeff-Com:  0.330D+00-0.188D+01 0.255D+01
 Coeff:      0.330D+00-0.188D+01 0.255D+01
 Gap=     0.420 Goal=   None    Shift=    0.500
 T= 1483. Gap= 0.920 NK=0 IS=   19 IE=   57 IFin=   18
          NO(<0.9)=   0  NV(>0.1)=   0     18.00e < EF      0.00e >EF  Err=0.0D+00
 Gap=     0.272 Goal=   None    Shift=    0.500
 T= 1483. Gap= 0.772 NK=0 IS=   18 IE=   57 IFin=   17
          NO(<0.9)=   0  NV(>0.1)=   0     17.00e < EF      0.00e >EF  Err=0.0D+00
 GapD=    0.272 DampG=1.000 DampE=0.500 DampFc=0.5000 IDamp=-1.
 Damping current iteration by 5.00D-01
 RMSDP=2.57D-03 MaxDP=2.06D-02 DE=-1.39D-02 OVMax= 1.77D-02

 Cycle   4  Pass 1  IDiag  1:
 E= -198.757717765690     Delta-E=       -0.006804717048 Rises=F Damp=T
 DIIS: error= 9.70D-03 at cycle   4 NSaved=   4.
 NSaved= 4 IEnMin= 4 EnMin= -198.757717765690     IErMin= 4 ErrMin= 9.70D-03
 ErrMax= 9.70D-03  0.00D+00 EMaxC= 1.00D+00 BMatC= 3.35D-03 BMatP= 9.30D-03
 IDIUse=1 WtCom= 1.00D+00 WtEn= 0.00D+00
 Coeff-Com:  0.945D-02 0.861D+00-0.387D+01 0.400D+01
 Coeff:      0.945D-02 0.861D+00-0.387D+01 0.400D+01
 Gap=     0.425 Goal=   None    Shift=    0.500
 T= 1127. Gap= 0.925 NK=0 IS=   19 IE=   57 IFin=   18
          NO(<0.9)=   0  NV(>0.1)=   0     18.00e < EF      0.00e >EF  Err=0.0D+00
 Gap=     0.278 Goal=   None    Shift=    0.500
 T= 1127. Gap= 0.778 NK=0 IS=   18 IE=   57 IFin=   17
          NO(<0.9)=   0  NV(>0.1)=   0     17.00e < EF      0.00e >EF  Err=0.0D+00
 GapD=    0.278 DampG=1.000 DampE=1.000 DampFc=1.0000 IDamp=-1.
 RMSDP=1.67D-03 MaxDP=1.73D-02 DE=-6.80D-03 OVMax= 1.75D-02

 Cycle   5  Pass 1  IDiag  1:
 E= -198.766046316992     Delta-E=       -0.008328551301 Rises=F Damp=F
 DIIS: error= 4.78D-03 at cycle   5 NSaved=   5.
 NSaved= 5 IEnMin= 5 EnMin= -198.766046316992     IErMin= 5 ErrMin= 4.78D-03
 ErrMax= 4.78D-03  0.00D+00 EMaxC= 1.00D+00 BMatC= 5.63D-04 BMatP= 3.35D-03
 IDIUse=1 WtCom= 1.00D+00 WtEn= 0.00D+00
 Coeff-Com: -0.198D+00 0.970D+00-0.703D+00-0.105D+01 0.199D+01
 Coeff:     -0.198D+00 0.970D+00-0.703D+00-0.105D+01 0.199D+01
 Gap=     0.429 Goal=   None    Shift=    0.500
 T=  818. Gap= 0.929 NK=0 IS=   19 IE=   57 IFin=   18
          NO(<0.9)=   0  NV(>0.1)=   0     18.00e < EF      0.00e >EF  Err=0.0D+00
 Gap=     0.283 Goal=   None    Shift=    0.500
 T=  818. Gap= 0.783 NK=0 IS=   18 IE=   57 IFin=   17
          NO(<0.9)=   0  NV(>0.1)=   0     17.00e < EF      0.00e >EF  Err=0.0D+00
 GapD=    0.283 DampG=1.000 DampE=1.000 DampFc=1.0000 IDamp=-1.
 RMSDP=5.05D-04 MaxDP=8.14D-03 DE=-8.33D-03 OVMax= 1.80D-02

 Cycle   6  Pass 1  IDiag  1:
 E= -198.766892690284     Delta-E=       -0.000846373293 Rises=F Damp=F
 DIIS: error= 3.73D-03 at cycle   6 NSaved=   6.
 NSaved= 6 IEnMin= 6 EnMin= -198.766892690284     IErMin= 6 ErrMin= 3.73D-03
 ErrMax= 3.73D-03  0.00D+00 EMaxC= 1.00D+00 BMatC= 2.66D-04 BMatP= 5.63D-04
 IDIUse=1 WtCom= 1.00D+00 WtEn= 0.00D+00
 Coeff-Com:  0.685D-02-0.311D+00 0.866D+00-0.540D+00-0.173D+01 0.271D+01
 Coeff:      0.685D-02-0.311D+00 0.866D+00-0.540D+00-0.173D+01 0.271D+01
 Gap=     0.432 Goal=   None    Shift=    0.500
 T=  537. Gap= 0.932 NK=0 IS=   19 IE=   57 IFin=   18
          NO(<0.9)=   0  NV(>0.1)=   0     18.00e < EF      0.00e >EF  Err=0.0D+00
 Gap=     0.285 Goal=   None    Shift=    0.500
 T=  537. Gap= 0.786 NK=0 IS=   18 IE=   57 IFin=   17
          NO(<0.9)=   0  NV(>0.1)=   0     17.00e < EF      0.00e >EF  Err=0.0D+00
 GapD=    0.285 DampG=1.000 DampE=1.000 DampFc=1.0000 IDamp=-1.
 RMSDP=4.13D-04 MaxDP=6.60D-03 DE=-8.46D-04 OVMax= 1.64D-02

 Cycle   7  Pass 1  IDiag  1:
 E= -198.767384420770     Delta-E=       -0.000491730486 Rises=F Damp=F
 DIIS: error= 2.77D-03 at cycle   7 NSaved=   7.
 NSaved= 7 IEnMin= 7 EnMin= -198.767384420770     IErMin= 7 ErrMin= 2.77D-03
 ErrMax= 2.77D-03  0.00D+00 EMaxC= 1.00D+00 BMatC= 1.24D-04 BMatP= 2.66D-04
 IDIUse=1 WtCom= 1.00D+00 WtEn= 0.00D+00
 Coeff-Com:  0.176D-01-0.504D-01-0.208D+00 0.482D+00-0.251D+00-0.141D+01
 Coeff-Com:  0.242D+01
 Coeff:      0.176D-01-0.504D-01-0.208D+00 0.482D+00-0.251D+00-0.141D+01
 Coeff:      0.242D+01
 Gap=     0.433 Goal=   None    Shift=    0.500
 T=  250. Gap= 0.933 NK=0 IS=   19 IE=   57 IFin=   18
          NO(<0.9)=   0  NV(>0.1)=   0     18.00e < EF      0.00e >EF  Err=0.0D+00
 Gap=     0.287 Goal=   None    Shift=    0.500
 T=  250. Gap= 0.787 NK=0 IS=   18 IE=   57 IFin=   17
          NO(<0.9)=   0  NV(>0.1)=   0     17.00e < EF      0.00e >EF  Err=0.0D+00
 GapD=    0.287 DampG=1.000 DampE=1.000 DampFc=1.0000 IDamp=-1.
 RMSDP=2.90D-04 MaxDP=4.35D-03 DE=-4.92D-04 OVMax= 1.25D-02

 Cycle   8  Pass 1  IDiag  1:
 E= -198.767616718689     Delta-E=       -0.000232297919 Rises=F Damp=F
 DIIS: error= 2.02D-03 at cycle   8 NSaved=   8.
 NSaved= 8 IEnMin= 8 EnMin= -198.767616718689     IErMin= 8 ErrMin= 2.02D-03
 ErrMax= 2.02D-03  0.00D+00 EMaxC= 1.00D+00 BMatC= 6.30D-05 BMatP= 1.24D-04
 IDIUse=1 WtCom= 1.00D+00 WtEn= 0.00D+00
 Coeff-Com: -0.182D-01 0.318D+00-0.850D+00 0.554D+00 0.140D+01-0.275D+01
 Coeff-Com: -0.553D-01 0.239D+01
 Coeff:     -0.182D-01 0.318D+00-0.850D+00 0.554D+00 0.140D+01-0.275D+01
 Coeff:     -0.553D-01 0.239D+01
 Gap=     0.434 Goal=   None    Shift=    0.500
 T=   81. Gap= 0.934 NK=0 IS=   19 IE=   57 IFin=   18
          NO(<0.9)=   0  NV(>0.1)=   0     18.00e < EF      0.00e >EF  Err=0.0D+00
 Gap=     0.288 Goal=   None    Shift=    0.500
 T=   81. Gap= 0.788 NK=0 IS=   18 IE=   57 IFin=   17
          NO(<0.9)=   0  NV(>0.1)=   0     17.00e < EF      0.00e >EF  Err=0.0D+00
 GapD=    0.288 DampG=1.000 DampE=1.000 DampFc=1.0000 IDamp=-1.
 RMSDP=2.41D-04 MaxDP=3.50D-03 DE=-2.32D-04 OVMax= 1.09D-02

 Cycle   9  Pass 1  IDiag  1:
 E= -198.767746926727     Delta-E=       -0.000130208038 Rises=F Damp=F
 DIIS: error= 1.38D-03 at cycle   9 NSaved=   9.
 NSaved= 9 IEnMin= 9 EnMin= -198.767746926727     IErMin= 9 ErrMin= 1.38D-03
 ErrMax= 1.38D-03  0.00D+00 EMaxC= 1.00D+00 BMatC= 2.89D-05 BMatP= 6.30D-05
 IDIUse=1 WtCom= 1.00D+00 WtEn= 0.00D+00
 Coeff-Com:  0.532D-02-0.191D+00 0.701D+00-0.670D+00-0.645D+00 0.236D+01
 Coeff-Com: -0.121D+01-0.350D+01 0.415D+01
 Coeff:      0.532D-02-0.191D+00 0.701D+00-0.670D+00-0.645D+00 0.236D+01
 Coeff:     -0.121D+01-0.350D+01 0.415D+01
 Gap=     0.434 Goal=   None    Shift=    0.500
 Gap=     0.288 Goal=   None    Shift=    0.500
 GapD=    0.288 DampG=1.000 DampE=1.000 DampFc=1.0000 IDamp=-1.
 RMSDP=1.99D-04 MaxDP=3.16D-03 DE=-1.30D-04 OVMax= 9.55D-03

 Cycle  10  Pass 1  IDiag  1:
 E= -198.767817432419     Delta-E=       -0.000070505692 Rises=F Damp=F
 DIIS: error= 8.48D-04 at cycle  10 NSaved=  10.
 NSaved=10 IEnMin=10 EnMin= -198.767817432419     IErMin=10 ErrMin= 8.48D-04
 ErrMax= 8.48D-04  0.00D+00 EMaxC= 1.00D+00 BMatC= 1.18D-05 BMatP= 2.89D-05
 IDIUse=1 WtCom= 1.00D+00 WtEn= 0.00D+00
 Coeff-Com:  0.314D-02 0.557D-02-0.482D-01 0.561D-01 0.430D-01-0.222D+00
 Coeff-Com:  0.356D+00 0.920D-01-0.190D+01 0.262D+01
 Coeff:      0.314D-02 0.557D-02-0.482D-01 0.561D-01 0.430D-01-0.222D+00
 Coeff:      0.356D+00 0.920D-01-0.190D+01 0.262D+01
 Gap=     0.435 Goal=   None    Shift=    0.500
 Gap=     0.289 Goal=   None    Shift=    0.500
 RMSDP=1.20D-04 MaxDP=1.96D-03 DE=-7.05D-05 OVMax= 5.97D-03

 Cycle  11  Pass 1  IDiag  1:
 E= -198.767844299896     Delta-E=       -0.000026867477 Rises=F Damp=F
 DIIS: error= 5.18D-04 at cycle  11 NSaved=  11.
 NSaved=11 IEnMin=11 EnMin= -198.767844299896     IErMin=11 ErrMin= 5.18D-04
 ErrMax= 5.18D-04  0.00D+00 EMaxC= 1.00D+00 BMatC= 5.21D-06 BMatP= 1.18D-05
 IDIUse=1 WtCom= 1.00D+00 WtEn= 0.00D+00
 Coeff-Com:  0.181D-04-0.448D-01 0.204D+00-0.227D+00-0.847D-01 0.644D+00
 Coeff-Com: -0.670D+00-0.853D+00 0.355D+01-0.649D+01 0.497D+01
 Coeff:      0.181D-04-0.448D-01 0.204D+00-0.227D+00-0.847D-01 0.644D+00
 Coeff:     -0.670D+00-0.853D+00 0.355D+01-0.649D+01 0.497D+01
 Gap=     0.435 Goal=   None    Shift=    0.500
 Gap=     0.289 Goal=   None    Shift=    0.500
 RMSDP=8.13D-05 MaxDP=1.27D-03 DE=-2.69D-05 OVMax= 4.13D-03

 Cycle  12  Pass 1  IDiag  1:
 E= -198.767855869885     Delta-E=       -0.000011569990 Rises=F Damp=F
 DIIS: error= 2.98D-04 at cycle  12 NSaved=  12.
 NSaved=12 IEnMin=12 EnMin= -198.767855869885     IErMin=12 ErrMin= 2.98D-04
 ErrMax= 2.98D-04  0.00D+00 EMaxC= 1.00D+00 BMatC= 1.95D-06 BMatP= 5.21D-06
 IDIUse=1 WtCom= 1.00D+00 WtEn= 0.00D+00
 Coeff-Com:  0.923D-03-0.277D-01 0.102D+00-0.976D-01-0.832D-01 0.312D+00
 Coeff-Com: -0.824D-01-0.579D+00 0.468D+00 0.742D+00-0.265D+01 0.289D+01
 Coeff:      0.923D-03-0.277D-01 0.102D+00-0.976D-01-0.832D-01 0.312D+00
 Coeff:     -0.824D-01-0.579D+00 0.468D+00 0.742D+00-0.265D+01 0.289D+01
 Gap=     0.435 Goal=   None    Shift=    0.500
 Gap=     0.289 Goal=   None    Shift=    0.500
 RMSDP=4.91D-05 MaxDP=7.48D-04 DE=-1.16D-05 OVMax= 2.49D-03

 Cycle  13  Pass 1  IDiag  1:
 E= -198.767860018727     Delta-E=       -0.000004148842 Rises=F Damp=F
 DIIS: error= 1.67D-04 at cycle  13 NSaved=  13.
 NSaved=13 IEnMin=13 EnMin= -198.767860018727     IErMin=13 ErrMin= 1.67D-04
 ErrMax= 1.67D-04  0.00D+00 EMaxC= 1.00D+00 BMatC= 7.09D-07 BMatP= 1.95D-06
 IDIUse=1 WtCom= 1.00D+00 WtEn= 0.00D+00
 Coeff-Com:  0.417D-03 0.437D-03 0.458D-02-0.133D-01 0.309D-01-0.242D-02
 Coeff-Com: -0.125D+00 0.888D-01 0.623D+00-0.209D+01 0.358D+01-0.528D+01
 Coeff-Com:  0.417D+01
 Coeff:      0.417D-03 0.437D-03 0.458D-02-0.133D-01 0.309D-01-0.242D-02
 Coeff:     -0.125D+00 0.888D-01 0.623D+00-0.209D+01 0.358D+01-0.528D+01
 Coeff:      0.417D+01
 Gap=     0.435 Goal=   None    Shift=    0.500
 Gap=     0.289 Goal=   None    Shift=    0.500
 RMSDP=2.96D-05 MaxDP=4.52D-04 DE=-4.15D-06 OVMax= 1.51D-03

 Cycle  14  Pass 1  IDiag  1:
 E= -198.767861473227     Delta-E=       -0.000001454500 Rises=F Damp=F
 DIIS: error= 8.87D-05 at cycle  14 NSaved=  14.
 NSaved=14 IEnMin=14 EnMin= -198.767861473227     IErMin=14 ErrMin= 8.87D-05
 ErrMax= 8.87D-05  0.00D+00 EMaxC= 1.00D+00 BMatC= 2.61D-07 BMatP= 7.09D-07
 IDIUse=1 WtCom= 1.00D+00 WtEn= 0.00D+00
 Coeff-Com:  0.466D-03-0.100D-01 0.395D-01-0.417D-01-0.217D-01 0.106D+00
 Coeff-Com: -0.424D-01-0.199D+00 0.373D+00-0.347D+00-0.331D+00 0.181D+01
 Coeff-Com: -0.358D+01 0.325D+01
 Coeff:      0.466D-03-0.100D-01 0.395D-01-0.417D-01-0.217D-01 0.106D+00
 Coeff:     -0.424D-01-0.199D+00 0.373D+00-0.347D+00-0.331D+00 0.181D+01
 Coeff:     -0.358D+01 0.325D+01
 Gap=     0.435 Goal=   None    Shift=    0.500
 Gap=     0.289 Goal=   None    Shift=    0.500
 RMSDP=1.68D-05 MaxDP=2.53D-04 DE=-1.45D-06 OVMax= 8.67D-04

 Cycle  15  Pass 1  IDiag  1:
 E= -198.767861946826     Delta-E=       -0.000000473599 Rises=F Damp=F
 DIIS: error= 4.65D-05 at cycle  15 NSaved=  15.
 NSaved=15 IEnMin=15 EnMin= -198.767861946826     IErMin=15 ErrMin= 4.65D-05
 ErrMax= 4.65D-05  0.00D+00 EMaxC= 1.00D+00 BMatC= 8.81D-08 BMatP= 2.61D-07
 IDIUse=1 WtCom= 1.00D+00 WtEn= 0.00D+00
 Coeff-Com: -0.192D-03 0.366D-02-0.141D-01 0.150D-01 0.863D-02-0.385D-01
 Coeff-Com:  0.115D-01 0.837D-01-0.130D+00 0.771D-01 0.296D+00-0.140D+01
 Coeff-Com:  0.310D+01-0.494D+01 0.393D+01
 Coeff:     -0.192D-03 0.366D-02-0.141D-01 0.150D-01 0.863D-02-0.385D-01
 Coeff:      0.115D-01 0.837D-01-0.130D+00 0.771D-01 0.296D+00-0.140D+01
 Coeff:      0.310D+01-0.494D+01 0.393D+01
 Gap=     0.435 Goal=   None    Shift=    0.500
 Gap=     0.289 Goal=   None    Shift=    0.500
 RMSDP=9.08D-06 MaxDP=1.30D-04 DE=-4.74D-07 OVMax= 4.72D-04

 Cycle  16  Pass 1  IDiag  1:
 E= -198.767862089604     Delta-E=       -0.000000142778 Rises=F Damp=F
 DIIS: error= 2.70D-05 at cycle  16 NSaved=  16.
 NSaved=16 IEnMin=16 EnMin= -198.767862089604     IErMin=16 ErrMin= 2.70D-05
 ErrMax= 2.70D-05  0.00D+00 EMaxC= 1.00D+00 BMatC= 2.92D-08 BMatP= 8.81D-08
 IDIUse=1 WtCom= 1.00D+00 WtEn= 0.00D+00
 Coeff-Com:  0.716D-04-0.839D-03 0.536D-02-0.774D-02 0.433D-02 0.247D-02
 Coeff-Com: -0.199D-03-0.268D-01 0.102D+00-0.214D+00 0.191D+00 0.950D-01
 Coeff-Com: -0.876D+00 0.233D+01-0.410D+01 0.350D+01
 Coeff:      0.716D-04-0.839D-03 0.536D-02-0.774D-02 0.433D-02 0.247D-02
 Coeff:     -0.199D-03-0.268D-01 0.102D+00-0.214D+00 0.191D+00 0.950D-01
 Coeff:     -0.876D+00 0.233D+01-0.410D+01 0.350D+01
 Gap=     0.435 Goal=   None    Shift=    0.500
 Gap=     0.289 Goal=   None    Shift=    0.500
 RMSDP=4.78D-06 MaxDP=6.49D-05 DE=-1.43D-07 OVMax= 2.50D-04

 Cycle  17  Pass 1  IDiag  1:
 E= -198.767862131499     Delta-E=       -0.000000041894 Rises=F Damp=F
 DIIS: error= 1.58D-05 at cycle  17 NSaved=  17.
 NSaved=17 IEnMin=17 EnMin= -198.767862131499     IErMin=17 ErrMin= 1.58D-05
 ErrMax= 1.58D-05  0.00D+00 EMaxC= 1.00D+00 BMatC= 9.26D-09 BMatP= 2.92D-08
 IDIUse=1 WtCom= 1.00D+00 WtEn= 0.00D+00
 Coeff-Com: -0.249D-04 0.798D-03-0.433D-02 0.569D-02-0.892D-03-0.812D-02
 Coeff-Com:  0.724D-02 0.206D-01-0.654D-01 0.110D+00-0.564D-01-0.202D+00
 Coeff-Com:  0.743D+00-0.170D+01 0.297D+01-0.446D+01 0.364D+01
 Coeff:     -0.249D-04 0.798D-03-0.433D-02 0.569D-02-0.892D-03-0.812D-02
 Coeff:      0.724D-02 0.206D-01-0.654D-01 0.110D+00-0.564D-01-0.202D+00
 Coeff:      0.743D+00-0.170D+01 0.297D+01-0.446D+01 0.364D+01
 Gap=     0.435 Goal=   None    Shift=    0.500
 Gap=     0.289 Goal=   None    Shift=    0.500
 RMSDP=2.46D-06 MaxDP=3.29D-05 DE=-4.19D-08 OVMax= 1.29D-04

 Cycle  18  Pass 1  IDiag  1:
 E= -198.767862143563     Delta-E=       -0.000000012064 Rises=F Damp=F
 DIIS: error= 9.15D-06 at cycle  18 NSaved=  18.
 NSaved=18 IEnMin=18 EnMin= -198.767862143563     IErMin=18 ErrMin= 9.15D-06
 ErrMax= 9.15D-06  0.00D+00 EMaxC= 1.00D+00 BMatC= 2.87D-09 BMatP= 9.26D-09
 IDIUse=1 WtCom= 1.00D+00 WtEn= 0.00D+00
 Coeff-Com: -0.220D-04 0.362D-03-0.759D-03 0.228D-03 0.263D-02-0.632D-02
 Coeff-Com:  0.401D-02 0.311D-02 0.296D-02-0.254D-01 0.464D-01-0.534D-01
 Coeff-Com:  0.420D-02 0.173D+00-0.634D+00 0.165D+01-0.350D+01 0.333D+01
 Coeff:     -0.220D-04 0.362D-03-0.759D-03 0.228D-03 0.263D-02-0.632D-02
 Coeff:      0.401D-02 0.311D-02 0.296D-02-0.254D-01 0.464D-01-0.534D-01
 Coeff:      0.420D-02 0.173D+00-0.634D+00 0.165D+01-0.350D+01 0.333D+01
 Gap=     0.435 Goal=   None    Shift=    0.500
 Gap=     0.289 Goal=   None    Shift=    0.500
 RMSDP=1.24D-06 MaxDP=1.71D-05 DE=-1.21D-08 OVMax= 6.55D-05

 Cycle  19  Pass 1  IDiag  1:
 E= -198.767862147041     Delta-E=       -0.000000003479 Rises=F Damp=F
 DIIS: error= 5.32D-06 at cycle  19 NSaved=  19.
 NSaved=19 IEnMin=19 EnMin= -198.767862147041     IErMin=19 ErrMin= 5.32D-06
 ErrMax= 5.32D-06  0.00D+00 EMaxC= 1.00D+00 BMatC= 8.52D-10 BMatP= 2.87D-09
 IDIUse=1 WtCom= 1.00D+00 WtEn= 0.00D+00
 Coeff-Com: -0.130D-04 0.276D-03-0.103D-02 0.106D-02 0.678D-03-0.338D-02
 Coeff-Com:  0.297D-02 0.382D-02-0.113D-01 0.145D-01-0.668D-02-0.127D-01
 Coeff-Com:  0.366D-01-0.694D-01 0.130D+00-0.429D+00 0.121D+01-0.279D+01
 Coeff-Com:  0.292D+01
 Coeff:     -0.130D-04 0.276D-03-0.103D-02 0.106D-02 0.678D-03-0.338D-02
 Coeff:      0.297D-02 0.382D-02-0.113D-01 0.145D-01-0.668D-02-0.127D-01
 Coeff:      0.366D-01-0.694D-01 0.130D+00-0.429D+00 0.121D+01-0.279D+01
 Coeff:      0.292D+01
 Gap=     0.435 Goal=   None    Shift=    0.500
 Gap=     0.289 Goal=   None    Shift=    0.500
 RMSDP=6.47D-07 MaxDP=8.97D-06 DE=-3.48D-09 OVMax= 3.41D-05

 SCF Done:  E(ULC-wHPBE) =  -198.767862147     A.U. after   19 cycles
            NFock= 19  Conv=0.65D-06     -V/T= 2.0294
 <Sx>= 0.0000 <Sy>= 0.0000 <Sz>= 0.5000 <S**2>= 0.8405 S= 0.5443
 <L.S>= 0.000000000000E+00
 KE= 1.930943718028D+02 PE=-7.530138869591D+02 EE= 2.051389105233D+02
 Annihilation of the first spin contaminant:
 S**2 before annihilation     0.8405,   after     0.7546
 Leave Link  502 at Thu Mar  5 13:01:57 2020, MaxMem=  6710886400 cpu:              28.9 elap:               1.8
 (Enter /opt/ohpc/pub/libs/gaussian/g16-A.03/sandybridge/g16/l508.exe)
 QCSCF skips out because SCF is already converged.
 Leave Link  508 at Thu Mar  5 13:01:58 2020, MaxMem=  6710886400 cpu:               0.2 elap:               0.4
 (Enter /opt/ohpc/pub/libs/gaussian/g16-A.03/sandybridge/g16/l601.exe)
 Copying SCF densities to generalized density rwf, IOpCl= 1 IROHF=0.

 **********************************************************************

            Population analysis using the SCF density.

 **********************************************************************

 Orbital symmetries:
 Alpha Orbitals:
       Occupied  (B2) (A1) (A1) (B2) (A1) (A1) (A1) (B2) (A1) (B2)
                 (A1) (B2) (A1) (A1) (B1) (B2) (A2) (B1)
       Virtual   (A2) (B2) (B1) (A1) (A1) (B2) (A1) (A1) (B2) (A1)
                 (B2) (A1) (B2) (B1) (B2) (B1) (A2) (A1) (A1) (B2)
                 (A1) (A2) (B1) (B2) (B2) (A1) (A1) (A1) (B2) (A1)
                 (B2) (A1) (A1) (B2) (A1) (B2) (A1) (A1) (B2)
 Beta  Orbitals:
       Occupied  (B2) (A1) (B2) (A1) (A1) (A1) (A1) (B2) (A1) (B2)
                 (A1) (B2) (A1) (A1) (B2) (B1) (A2)
       Virtual   (B1) (B2) (A2) (A1) (B1) (A1) (B2) (A1) (B2) (A1)
                 (A1) (B2) (A1) (B2) (B2) (B1) (A2) (A1) (B1) (A1)
                 (B2) (A1) (A2) (B1) (B2) (B2) (A1) (A1) (B2) (A1)
                 (B2) (A1) (A1) (A1) (B2) (A1) (B2) (A1) (A1) (B2)
 The electronic state is 2-B1.
 Alpha  occ. eigenvalues --  -10.53271 -10.53268 -10.48108 -10.47345 -10.47343
 Alpha  occ. eigenvalues --   -1.39689  -1.26609  -1.21658  -1.07603  -1.05325
 Alpha  occ. eigenvalues --   -1.00478  -0.90499  -0.88247  -0.87151  -0.85943
 Alpha  occ. eigenvalues --   -0.84781  -0.70832  -0.69869
 Alpha virt. eigenvalues --   -0.26401  -0.25815  -0.19185  -0.18500  -0.11509
 Alpha virt. eigenvalues --   -0.06793  -0.04718  -0.02309  -0.02247   0.08415
 Alpha virt. eigenvalues --    0.08716   0.18964   0.19205   0.27484   0.28443
 Alpha virt. eigenvalues --    0.35253   0.35741   0.36515   0.38428   0.39299
 Alpha virt. eigenvalues --    0.39634   0.43328   0.44806   0.52256   0.59216
 Alpha virt. eigenvalues --    0.61522   0.62530   0.65162   0.65247   0.71146
 Alpha virt. eigenvalues --    0.71413   0.75700   0.79869   0.86563   0.94626
 Alpha virt. eigenvalues --    0.95484   1.01393   1.22904   1.24420
  Beta  occ. eigenvalues --  -10.52587 -10.52582 -10.47745 -10.47744 -10.47079
  Beta  occ. eigenvalues --   -1.38293  -1.24521  -1.21487  -1.06448  -1.04550
  Beta  occ. eigenvalues --   -1.00250  -0.90243  -0.87989  -0.86584  -0.84658
  Beta  occ. eigenvalues --   -0.80930  -0.69390
  Beta virt. eigenvalues --   -0.40519  -0.24100  -0.23125  -0.18277  -0.15527
  Beta virt. eigenvalues --   -0.11058  -0.06508  -0.04535  -0.02368  -0.01617
  Beta virt. eigenvalues --    0.08914   0.09033   0.19364   0.19567   0.28877
  Beta virt. eigenvalues --    0.30111   0.36900   0.37121   0.38361   0.38761
  Beta virt. eigenvalues --    0.39609   0.40821   0.43820   0.46497   0.52875
  Beta virt. eigenvalues --    0.59661   0.62474   0.63010   0.65110   0.65627
  Beta virt. eigenvalues --    0.71674   0.71902   0.76531   0.80742   0.86466
  Beta virt. eigenvalues --    0.95081   0.96043   1.02670   1.23873   1.25307
          Condensed to atoms (all electrons):
               1          2          3          4          5          6
     1  C    5.384266   0.490044  -0.042611  -0.121740   0.175221   0.161667
     2  C    0.490044   4.981600   0.448184  -0.024704  -0.121740  -0.021584
     3  C   -0.042611   0.448184   4.911998   0.448184  -0.042611   0.007639
     4  C   -0.121740  -0.024704   0.448184   4.981600   0.490044  -0.021584
     5  C    0.175221  -0.121740  -0.042611   0.490044   5.384266   0.161667
     6  H    0.161667  -0.021584   0.007639  -0.021584   0.161667   0.345315
     7  H    0.335042   0.005232  -0.000557   0.002970  -0.014142  -0.010149
     8  H   -0.022155   0.359887  -0.010949   0.003579   0.000607   0.000274
     9  H    0.004470  -0.024544   0.361964  -0.024544   0.004470  -0.000019
    10  H    0.000607   0.003579  -0.010949   0.359887  -0.022155   0.000274
    11  H   -0.014142   0.002970  -0.000557   0.005232   0.335042  -0.010149
               7          8          9         10         11
     1  C    0.335042  -0.022155   0.004470   0.000607  -0.014142
     2  C    0.005232   0.359887  -0.024544   0.003579   0.002970
     3  C   -0.000557  -0.010949   0.361964  -0.010949  -0.000557
     4  C    0.002970   0.003579  -0.024544   0.359887   0.005232
     5  C   -0.014142   0.000607   0.004470  -0.022155   0.335042
     6  H   -0.010149   0.000274  -0.000019   0.000274  -0.010149
     7  H    0.333278   0.000289  -0.000045  -0.000013   0.000364
     8  H    0.000289   0.371504  -0.000929  -0.000069  -0.000013
     9  H   -0.000045  -0.000929   0.389279  -0.000929  -0.000045
    10  H   -0.000013  -0.000069  -0.000929   0.371504   0.000289
    11  H    0.000364  -0.000013  -0.000045   0.000289   0.333278
          Atomic-Atomic Spin Densities.
               1          2          3          4          5          6
     1  C    0.567271  -0.040650  -0.022031  -0.009611   0.016874  -0.004728
     2  C   -0.040650  -0.327335   0.027275   0.001032  -0.009611   0.000483
     3  C   -0.022031   0.027275   0.767407   0.027275  -0.022031   0.000185
     4  C   -0.009611   0.001032   0.027275  -0.327335  -0.040650   0.000483
     5  C    0.016874  -0.009611  -0.022031  -0.040650   0.567271  -0.004728
     6  H   -0.004728   0.000483   0.000185   0.000483  -0.004728  -0.017653
     7  H   -0.003648  -0.000615   0.000137  -0.000126   0.000149  -0.000083
     8  H   -0.000397   0.002355  -0.001077  -0.000154   0.000087   0.000030
     9  H   -0.000008   0.000031  -0.001819   0.000031  -0.000008  -0.000002
    10  H    0.000087  -0.000154  -0.001077   0.002355  -0.000397   0.000030
    11  H    0.000149  -0.000126   0.000137  -0.000615  -0.003648  -0.000083
               7          8          9         10         11
     1  C   -0.003648  -0.000397  -0.000008   0.000087   0.000149
     2  C   -0.000615   0.002355   0.000031  -0.000154  -0.000126
     3  C    0.000137  -0.001077  -0.001819  -0.001077   0.000137
     4  C   -0.000126  -0.000154   0.000031   0.002355  -0.000615
     5  C    0.000149   0.000087  -0.000008  -0.000397  -0.003648
     6  H   -0.000083   0.000030  -0.000002   0.000030  -0.000083
     7  H   -0.020860   0.000043   0.000004  -0.000000  -0.000081
     8  H    0.000043   0.010147   0.000004  -0.000000  -0.000000
     9  H    0.000004   0.000004  -0.030469   0.000004   0.000004
    10  H   -0.000000  -0.000000   0.000004   0.010147   0.000043
    11  H   -0.000081  -0.000000   0.000004   0.000043  -0.020860
 Mulliken charges and spin densities:
               1          2
     1  C   -0.350671   0.503310
     2  C   -0.098926  -0.347314
     3  C   -0.069735   0.774381
     4  C   -0.098926  -0.347314
     5  C   -0.350671   0.503310
     6  H    0.386650  -0.026063
     7  H    0.347730  -0.025080
     8  H    0.297973   0.011038
     9  H    0.290872  -0.032226
    10  H    0.297973   0.011038
    11  H    0.347730  -0.025080
 Sum of Mulliken charges =   1.00000   1.00000
 Mulliken charges and spin densities with hydrogens summed into heavy atoms:
               1          2
     1  C    0.383710   0.452167
     2  C    0.199047  -0.336276
     3  C    0.221137   0.742155
     4  C    0.199047  -0.336276
     5  C   -0.002940   0.478230
 Electronic spatial extent (au):  <R**2>=            317.1973
 Charge=              1.0000 electrons
 Dipole moment (field-independent basis, Debye):
    X=             -0.0000    Y=             -0.0000    Z=             -2.0730  Tot=              2.0730
 Quadrupole moment (field-independent basis, Debye-Ang):
   XX=            -30.5915   YY=            -16.7076   ZZ=            -12.4128
   XY=              0.0000   XZ=              0.0000   YZ=              0.0000
 Traceless Quadrupole moment (field-independent basis, Debye-Ang):
   XX=            -10.6875   YY=              3.1964   ZZ=              7.4911
   XY=              0.0000   XZ=              0.0000   YZ=              0.0000
 Octapole moment (field-independent basis, Debye-Ang**2):
  XXX=              0.0000  YYY=              0.0000  ZZZ=             -7.6663  XYY=             -0.0000
  XXY=             -0.0000  XXZ=              0.6184  XZZ=              0.0000  YZZ=             -0.0000
  YYZ=             -2.6834  XYZ=             -0.0000
 Hexadecapole moment (field-independent basis, Debye-Ang**3):
 XXXX=            -29.8244 YYYY=           -137.3939 ZZZZ=           -118.4893 XXXY=             -0.0000
 XXXZ=             -0.0000 YYYX=             -0.0000 YYYZ=             -0.0000 ZZZX=              0.0000
 ZZZY=              0.0000 XXYY=            -40.9262 XXZZ=            -37.5837 YYZZ=            -40.4138
 XXYZ=              0.0000 YYXZ=             -0.0000 ZZXY=             -0.0000
 N-N= 1.560127424860D+02 E-N=-7.530138926749D+02  KE= 1.930943718028D+02
 Symmetry A1   KE= 1.115324019513D+02
 Symmetry A2   KE= 2.584497224924D+00
 Symmetry B1   KE= 3.337877549857D+00
 Symmetry B2   KE= 7.563959507669D+01
 Symmetry A1   SP=-1.714375034078D-14
 Symmetry A2   SP= 4.721917301609D-15
 Symmetry B1   SP= 1.000000000000D+00
 Symmetry B2   SP= 2.624974077079D-14
                          Isotropic Fermi Contact Couplings
        Atom                 a.u.       MegaHertz       Gauss      10(-4) cm-1
     1  C(13)              0.08447      94.95924      33.88382      31.67499
     2  C(13)             -0.06202     -69.72561     -24.87983     -23.25796
     3  C(13)              0.11995     134.84158      48.11483      44.97831
     4  C(13)             -0.06202     -69.72561     -24.87983     -23.25796
     5  C(13)              0.08447      94.95924      33.88382      31.67499
     6  H(1)              -0.01008     -45.07146     -16.08262     -15.03422
     7  H(1)              -0.01116     -49.87134     -17.79534     -16.63529
     8  H(1)               0.00463      20.71468       7.39151       6.90967
     9  H(1)              -0.01515     -67.71454     -24.16223     -22.58714
    10  H(1)               0.00463      20.71468       7.39151       6.90967
    11  H(1)              -0.01116     -49.87134     -17.79534     -16.63529
 --------------------------------------------------------
       Center         ----  Spin Dipole Couplings  ----
                      3XX-RR        3YY-RR        3ZZ-RR
 --------------------------------------------------------
     1   Atom        0.530197     -0.258194     -0.272003
     2   Atom       -0.240204      0.117620      0.122584
     3   Atom        0.731064     -0.373911     -0.357153
     4   Atom       -0.240204      0.117620      0.122584
     5   Atom        0.530197     -0.258194     -0.272003
     6   Atom       -0.009533      0.009598     -0.000066
     7   Atom       -0.007103      0.007549     -0.000445
     8   Atom       -0.005954     -0.003816      0.009770
     9   Atom       -0.008780     -0.047387      0.056167
    10   Atom       -0.005954     -0.003816      0.009770
    11   Atom       -0.007103      0.007549     -0.000445
 --------------------------------------------------------
                        XY            XZ            YZ
 --------------------------------------------------------
     1   Atom       -0.000000      0.000000     -0.008795
     2   Atom       -0.000000      0.000000     -0.004671
     3   Atom       -0.000000     -0.000000      0.000000
     4   Atom       -0.000000     -0.000000      0.004671
     5   Atom        0.000000      0.000000      0.008795
     6   Atom       -0.000000      0.000000     -0.000000
     7   Atom        0.000000      0.000000     -0.037945
     8   Atom       -0.000000      0.000000     -0.007665
     9   Atom       -0.000000     -0.000000      0.000000
    10   Atom        0.000000     -0.000000      0.007665
    11   Atom       -0.000000     -0.000000      0.037945
 --------------------------------------------------------


 ---------------------------------------------------------------------------------
              Anisotropic Spin Dipole Couplings in Principal Axis System
 ---------------------------------------------------------------------------------

       Atom             a.u.   MegaHertz   Gauss  10(-4) cm-1        Axes

              Baa    -0.2763   -37.074   -13.229   -12.367 -0.0000  0.4373  0.8993
     1 C(13)  Bbb    -0.2539   -34.073   -12.158   -11.366 -0.0000  0.8993 -0.4373
              Bcc     0.5302    71.147    25.387    23.732  1.0000  0.0000  0.0000
 
              Baa    -0.2402   -32.233   -11.502   -10.752  1.0000  0.0000  0.0000
     2 C(13)  Bbb     0.1148    15.407     5.498     5.139 -0.0000  0.8571  0.5151
              Bcc     0.1254    16.826     6.004     5.613  0.0000 -0.5151  0.8571
 
              Baa    -0.3739   -50.175   -17.904   -16.737  0.0000  1.0000 -0.0000
     3 C(13)  Bbb    -0.3572   -47.927   -17.101   -15.987  0.0000  0.0000  1.0000
              Bcc     0.7311    98.102    35.005    32.723  1.0000  0.0000  0.0000
 
              Baa    -0.2402   -32.233   -11.502   -10.752  1.0000  0.0000  0.0000
     4 C(13)  Bbb     0.1148    15.407     5.498     5.139 -0.0000  0.8571 -0.5151
              Bcc     0.1254    16.826     6.004     5.613 -0.0000  0.5151  0.8571
 
              Baa    -0.2763   -37.074   -13.229   -12.367 -0.0000 -0.4373  0.8993
     5 C(13)  Bbb    -0.2539   -34.073   -12.158   -11.366  0.0000  0.8993  0.4373
              Bcc     0.5302    71.147    25.387    23.732  1.0000 -0.0000  0.0000
 
              Baa    -0.0095    -5.086    -1.815    -1.697  1.0000  0.0000 -0.0000
     6 H(1)   Bbb    -0.0001    -0.035    -0.013    -0.012  0.0000  0.0000  1.0000
              Bcc     0.0096     5.121     1.827     1.708 -0.0000  1.0000 -0.0000
 
              Baa    -0.0346   -18.463    -6.588    -6.158 -0.0000  0.6690  0.7432
     7 H(1)   Bbb    -0.0071    -3.790    -1.352    -1.264  1.0000  0.0000  0.0000
              Bcc     0.0417    22.252     7.940     7.423 -0.0000  0.7432 -0.6690
 
              Baa    -0.0073    -3.876    -1.383    -1.293 -0.0000  0.9119  0.4103
     8 H(1)   Bbb    -0.0060    -3.177    -1.134    -1.060  1.0000  0.0000  0.0000
              Bcc     0.0132     7.053     2.517     2.353  0.0000 -0.4103  0.9119
 
              Baa    -0.0474   -25.284    -9.022    -8.434 -0.0000  1.0000 -0.0000
     9 H(1)   Bbb    -0.0088    -4.685    -1.672    -1.563  1.0000 -0.0000  0.0000
              Bcc     0.0562    29.968    10.693     9.996  0.0000  0.0000  1.0000
 
              Baa    -0.0073    -3.876    -1.383    -1.293 -0.0000  0.9119 -0.4103
    10 H(1)   Bbb    -0.0060    -3.177    -1.134    -1.060  1.0000  0.0000 -0.0000
              Bcc     0.0132     7.053     2.517     2.353  0.0000  0.4103  0.9119
 
              Baa    -0.0346   -18.463    -6.588    -6.158  0.0000 -0.6690  0.7432
    11 H(1)   Bbb    -0.0071    -3.790    -1.352    -1.264  1.0000  0.0000  0.0000
              Bcc     0.0417    22.252     7.940     7.423 -0.0000  0.7432  0.6690
 

 ---------------------------------------------------------------------------------

 No NMR shielding tensors so no spin-rotation constants.
 Leave Link  601 at Thu Mar  5 13:01:59 2020, MaxMem=  6710886400 cpu:               4.8 elap:               0.5
 (Enter /opt/ohpc/pub/libs/gaussian/g16-A.03/sandybridge/g16/l9999.exe)

 Test job not archived.
 1\1\GINC-CNODE212\SP\ULC-wHPBE\6-31G\C5H6(1+,2)\SMGO234\05-Mar-2020\0\
 \#P uLC-wHPBE/6-31G iop(3/130=0113500000, 3/131=0113500000, 3/119=0886
 500000, 3/120=0886500000) scf=(conver=6,fermi,ndamp=35,noincfock,novar
 acc,vshift=500,xqc)\\H6 C5\\1,2\C,0,0.,0.878804,-0.931542\C,0,0.,1.128
 157,0.423457\C,0,0.,0.,1.240879\C,0,0.,-1.128157,0.423457\C,0,0.,-0.87
 8804,-0.931542\H,0,0.,0.,-1.732269\H,0,0.,1.6083,-1.734053\H,0,0.,2.15
 6626,0.76567\H,0,0.,0.,2.320778\H,0,0.,-2.156626,0.76567\H,0,0.,-1.608
 3,-1.734053\\Version=EM64L-G16RevA.03\State=2-B1\HF=-198.7678621\S2=0.
 840495\S2-1=0.\S2A=0.754576\RMSD=6.470e-07\Dipole=0.,0.,-0.8155688\Qua
 drupole=-7.9458943,2.3764189,5.5694754,0.,0.,0.\PG=C02V [C2(H1C1H1),SG
 V(C4H4)]\\@


 ... SUBJECTS WHICH DISCLOSE THEIR FULL POWER, MEANING AND BEAUTY AS SOON
 AS THEY ARE PRESENTED TO THE MIND HAVE VERY LITTLE OF THOSE QUALITIES
 TO DISCLOSE.
                           -- CHARLES DUTTON (1882)
 Job cpu time:       0 days  0 hours  1 minutes  2.9 seconds.
 Elapsed time:       0 days  0 hours  0 minutes  4.8 seconds.
 File lengths (MBytes):  RWF=    272 Int=      0 D2E=      0 Chk=     32 Scr=     32
 Normal termination of Gaussian 16 at Thu Mar  5 13:01:59 2020.
