 Entering Gaussian System, Link 0=g16
 Input=a1b_tune_c9.gjf
 Output=a1b_tune_c9.log
 Initial command:
 /opt/ohpc/pub/libs/gaussian/g16-A.03/sandybridge/g16/l1.exe "/scratch/smgo234/Ocelot/test/a1b/tuning_a1b_acycle2/Gau-87323.inp" -scrdir="/scratch/smgo234/Ocelot/test/a1b/tuning_a1b_acycle2/"
 Entering Link 1 = /opt/ohpc/pub/libs/gaussian/g16-A.03/sandybridge/g16/l1.exe PID=     87324.
  
 Copyright (c) 1988,1990,1992,1993,1995,1998,2003,2009,2016,
            Gaussian, Inc.  All Rights Reserved.
  
 This is part of the Gaussian(R) 16 program.  It is based on
 the Gaussian(R) 09 system (copyright 2009, Gaussian, Inc.),
 the Gaussian(R) 03 system (copyright 2003, Gaussian, Inc.),
 the Gaussian(R) 98 system (copyright 1998, Gaussian, Inc.),
 the Gaussian(R) 94 system (copyright 1995, Gaussian, Inc.),
 the Gaussian 92(TM) system (copyright 1992, Gaussian, Inc.),
 the Gaussian 90(TM) system (copyright 1990, Gaussian, Inc.),
 the Gaussian 88(TM) system (copyright 1988, Gaussian, Inc.),
 the Gaussian 86(TM) system (copyright 1986, Carnegie Mellon
 University), and the Gaussian 82(TM) system (copyright 1983,
 Carnegie Mellon University). Gaussian is a federally registered
 trademark of Gaussian, Inc.
  
 This software contains proprietary and confidential information,
 including trade secrets, belonging to Gaussian, Inc.
  
 This software is provided under written license and may be
 used, copied, transmitted, or stored only in accord with that
 written license.
  
 The following legend is applicable only to US Government
 contracts under FAR:
  
                    RESTRICTED RIGHTS LEGEND
  
 Use, reproduction and disclosure by the US Government is
 subject to restrictions as set forth in subparagraphs (a)
 and (c) of the Commercial Computer Software - Restricted
 Rights clause in FAR 52.227-19.
  
 Gaussian, Inc.
 340 Quinnipiac St., Bldg. 40, Wallingford CT 06492
  
  
 ---------------------------------------------------------------
 Warning -- This program may not be used in any manner that
 competes with the business of Gaussian, Inc. or will provide
 assistance to any competitor of Gaussian, Inc.  The licensee
 of this program is prohibited from giving any competitor of
 Gaussian, Inc. access to this program.  By using this program,
 the user acknowledges that Gaussian, Inc. is engaged in the
 business of creating and licensing software in the field of
 computational chemistry and represents and warrants to the
 licensee that it is not a competitor of Gaussian, Inc. and that
 it will not use this program in any manner prohibited above.
 ---------------------------------------------------------------
  

 Cite this work as:
 Gaussian 16, Revision A.03,
 M. J. Frisch, G. W. Trucks, H. B. Schlegel, G. E. Scuseria, 
 M. A. Robb, J. R. Cheeseman, G. Scalmani, V. Barone, 
 G. A. Petersson, H. Nakatsuji, X. Li, M. Caricato, A. V. Marenich, 
 J. Bloino, B. G. Janesko, R. Gomperts, B. Mennucci, H. P. Hratchian, 
 J. V. Ortiz, A. F. Izmaylov, J. L. Sonnenberg, D. Williams-Young, 
 F. Ding, F. Lipparini, F. Egidi, J. Goings, B. Peng, A. Petrone, 
 T. Henderson, D. Ranasinghe, V. G. Zakrzewski, J. Gao, N. Rega, 
 G. Zheng, W. Liang, M. Hada, M. Ehara, K. Toyota, R. Fukuda, 
 J. Hasegawa, M. Ishida, T. Nakajima, Y. Honda, O. Kitao, H. Nakai, 
 T. Vreven, K. Throssell, J. A. Montgomery, Jr., J. E. Peralta, 
 F. Ogliaro, M. J. Bearpark, J. J. Heyd, E. N. Brothers, K. N. Kudin, 
 V. N. Staroverov, T. A. Keith, R. Kobayashi, J. Normand, 
 K. Raghavachari, A. P. Rendell, J. C. Burant, S. S. Iyengar, 
 J. Tomasi, M. Cossi, J. M. Millam, M. Klene, C. Adamo, R. Cammi, 
 J. W. Ochterski, R. L. Martin, K. Morokuma, O. Farkas, 
 J. B. Foresman, and D. J. Fox, Gaussian, Inc., Wallingford CT, 2016.
 
 ******************************************
 Gaussian 16:  EM64L-G16RevA.03 25-Dec-2016
                 5-Mar-2020 
 ******************************************
 %mem=50GB
 %nproc=16
 Will use up to   16 processors via shared memory.
 ----------------------------------------------------------------------
 #P uLC-wHPBE/6-31G iop(3/130=0113100000, 3/131=0113100000, 3/119=08869
 00000, 3/120=0886900000) scf=(conver=6,fermi,ndamp=35,noincfock,novara
 cc,vshift=500,xqc)
 ----------------------------------------------------------------------
 1/38=1,172=1/1;
 2/12=2,17=6,18=5,40=1/2;
 3/5=1,6=6,11=2,25=1,30=1,74=-71,116=2,119=886900000,120=886900000,130=113100000,131=113100000/1,2,3;
 4//1;
 5/5=100002,6=6,8=3,10=500,13=1,18=-1,22=13,38=1,93=35/2,8;
 6/7=2,8=2,9=2,10=2,28=1/1;
 99/5=1,9=1/99;
 Leave Link    1 at Thu Mar  5 13:01:46 2020, MaxMem=  6710886400 cpu:              15.3 elap:               1.0
 (Enter /opt/ohpc/pub/libs/gaussian/g16-A.03/sandybridge/g16/l101.exe)
 -----
 H6 C5
 -----
 Symbolic Z-matrix:
 Charge =  1 Multiplicity = 2
 C                     0.        0.8788   -0.93154 
 C                     0.        1.12816   0.42346 
 C                     0.        0.        1.24088 
 C                     0.       -1.12816   0.42346 
 C                     0.       -0.8788   -0.93154 
 H                     0.        0.       -1.73227 
 H                     0.        1.6083   -1.73405 
 H                     0.        2.15663   0.76567 
 H                     0.        0.        2.32078 
 H                     0.       -2.15663   0.76567 
 H                     0.       -1.6083   -1.73405 
 
 ITRead=  0  0  0  0  0  0  0  0  0  0  0
 MicOpt= -1 -1 -1 -1 -1 -1 -1 -1 -1 -1 -1
 NAtoms=     11 NQM=       11 NQMF=       0 NMMI=      0 NMMIF=      0
                NMic=       0 NMicF=      0.
                    Isotopes and Nuclear Properties:
 (Nuclear quadrupole moments (NQMom) in fm**2, nuclear magnetic moments (NMagM)
  in nuclear magnetons)

  Atom         1           2           3           4           5           6           7           8           9          10
 IAtWgt=          12          12          12          12          12           1           1           1           1           1
 AtmWgt=  12.0000000  12.0000000  12.0000000  12.0000000  12.0000000   1.0078250   1.0078250   1.0078250   1.0078250   1.0078250
 NucSpn=           0           0           0           0           0           1           1           1           1           1
 AtZEff=  -0.0000000  -0.0000000  -0.0000000  -0.0000000  -0.0000000  -0.0000000  -0.0000000  -0.0000000  -0.0000000  -0.0000000
 NQMom=    0.0000000   0.0000000   0.0000000   0.0000000   0.0000000   0.0000000   0.0000000   0.0000000   0.0000000   0.0000000
 NMagM=    0.0000000   0.0000000   0.0000000   0.0000000   0.0000000   2.7928460   2.7928460   2.7928460   2.7928460   2.7928460
 AtZNuc=   6.0000000   6.0000000   6.0000000   6.0000000   6.0000000   1.0000000   1.0000000   1.0000000   1.0000000   1.0000000

  Atom        11
 IAtWgt=           1
 AtmWgt=   1.0078250
 NucSpn=           1
 AtZEff=  -0.0000000
 NQMom=    0.0000000
 NMagM=    2.7928460
 AtZNuc=   1.0000000
 Leave Link  101 at Thu Mar  5 13:01:46 2020, MaxMem=  6710886400 cpu:               2.8 elap:               0.2
 (Enter /opt/ohpc/pub/libs/gaussian/g16-A.03/sandybridge/g16/l202.exe)
                          Input orientation:                          
 ---------------------------------------------------------------------
 Center     Atomic      Atomic             Coordinates (Angstroms)
 Number     Number       Type             X           Y           Z
 ---------------------------------------------------------------------
      1          6           0        0.000000    0.878804   -0.931542
      2          6           0        0.000000    1.128157    0.423457
      3          6           0        0.000000    0.000000    1.240879
      4          6           0        0.000000   -1.128157    0.423457
      5          6           0        0.000000   -0.878804   -0.931542
      6          1           0        0.000000    0.000000   -1.732269
      7          1           0        0.000000    1.608300   -1.734053
      8          1           0        0.000000    2.156626    0.765670
      9          1           0        0.000000    0.000000    2.320778
     10          1           0        0.000000   -2.156626    0.765670
     11          1           0        0.000000   -1.608300   -1.734053
 ---------------------------------------------------------------------
                    Distance matrix (angstroms):
                    1          2          3          4          5
     1  C    0.000000
     2  C    1.377752   0.000000
     3  C    2.343440   1.393168   0.000000
     4  C    2.421552   2.256314   1.393168   0.000000
     5  C    1.757608   2.421552   2.343440   1.377752   0.000000
     6  H    1.188890   2.433083   2.973148   2.433083   1.188890
     7  H    1.084522   2.210291   3.381841   3.484687   2.613371
     8  H    2.124466   1.083909   2.208361   3.302561   3.477695
     9  H    3.368959   2.207389   1.079899   2.207389   3.368959
    10  H    3.477695   3.302561   2.208361   1.083909   2.124466
    11  H    2.613371   3.484687   3.381841   2.210291   1.084522
                    6          7          8          9         10
     6  H    0.000000
     7  H    1.608301   0.000000
     8  H    3.300111   2.559155   0.000000
     9  H    4.053047   4.362142   2.658834   0.000000
    10  H    3.300111   4.519213   4.313252   2.658834   0.000000
    11  H    1.608301   3.216600   4.519213   4.362142   2.559155
                   11
    11  H    0.000000
 Stoichiometry    C5H6(1+,2)
 Framework group  C2V[C2(HCH),SGV(C4H4)]
 Deg. of freedom    10
 Full point group                 C2V     NOp   4
 Largest Abelian subgroup         C2V     NOp   4
 Largest concise Abelian subgroup C2      NOp   2
                         Standard orientation:                         
 ---------------------------------------------------------------------
 Center     Atomic      Atomic             Coordinates (Angstroms)
 Number     Number       Type             X           Y           Z
 ---------------------------------------------------------------------
      1          6           0        0.000000    0.878804   -0.931542
      2          6           0        0.000000    1.128157    0.423457
      3          6           0        0.000000   -0.000000    1.240879
      4          6           0       -0.000000   -1.128157    0.423457
      5          6           0       -0.000000   -0.878804   -0.931542
      6          1           0       -0.000000    0.000000   -1.732269
      7          1           0        0.000000    1.608300   -1.734053
      8          1           0        0.000000    2.156626    0.765670
      9          1           0        0.000000   -0.000000    2.320778
     10          1           0       -0.000000   -2.156626    0.765670
     11          1           0       -0.000000   -1.608300   -1.734053
 ---------------------------------------------------------------------
 Rotational constants (GHZ):           8.5259551           7.9375455           4.1106177
 Leave Link  202 at Thu Mar  5 13:01:46 2020, MaxMem=  6710886400 cpu:               0.3 elap:               0.0
 (Enter /opt/ohpc/pub/libs/gaussian/g16-A.03/sandybridge/g16/l301.exe)
 Standard basis: 6-31G (6D, 7F)
 Ernie: Thresh=  0.10000D-02 Tol=  0.10000D-05 Strict=F.
 There are    27 symmetry adapted cartesian basis functions of A1  symmetry.
 There are     4 symmetry adapted cartesian basis functions of A2  symmetry.
 There are     6 symmetry adapted cartesian basis functions of B1  symmetry.
 There are    20 symmetry adapted cartesian basis functions of B2  symmetry.
 There are    27 symmetry adapted basis functions of A1  symmetry.
 There are     4 symmetry adapted basis functions of A2  symmetry.
 There are     6 symmetry adapted basis functions of B1  symmetry.
 There are    20 symmetry adapted basis functions of B2  symmetry.
    57 basis functions,   134 primitive gaussians,    57 cartesian basis functions
    18 alpha electrons       17 beta electrons
       nuclear repulsion energy       156.0127424860 Hartrees.
 IExCor=33909 DFT=T Ex+Corr=LC-wHPBE ExCW=0 ScaHFX=  1.000000
 ScaDFX=  1.000000  1.000000  1.000000  1.000000 ScalE2=  1.000000  1.000000
 IRadAn=      5 IRanWt=     -1 IRanGd=            0 ICorTp=0 IEmpDi=  4
 HFx  wShort=  0.000000 wLong=  0.400000 cFull=  0.000000 cShort=  0.000000 cLong=  0.886900
 DFx  wShort=  0.000000 wLong=  0.400000 cFull=  0.000000 cShort=  1.000000 cLong=  0.886900
 NAtoms=   11 NActive=   11 NUniq=    7 SFac= 2.47D+00 NAtFMM=   60 NAOKFM=F Big=F
 Integral buffers will be    131072 words long.
 Raffenetti 2 integral format.
 Two-electron integral symmetry is turned on.
 Leave Link  301 at Thu Mar  5 13:01:46 2020, MaxMem=  6710886400 cpu:               1.0 elap:               0.1
 (Enter /opt/ohpc/pub/libs/gaussian/g16-A.03/sandybridge/g16/l302.exe)
 NPDir=0 NMtPBC=     1 NCelOv=     1 NCel=       1 NClECP=     1 NCelD=      1
         NCelK=      1 NCelE2=     1 NClLst=     1 CellRange=     0.0.
 One-electron integrals computed using PRISM.
 One-electron integral symmetry used in STVInt
 NBasis=    57 RedAO= T EigKep=  1.84D-03  NBF=    27     4     6    20
 NBsUse=    57 1.00D-06 EigRej= -1.00D+00 NBFU=    27     4     6    20
 Precomputing XC quadrature grid using
 IXCGrd= 4 IRadAn=           5 IRanWt=          -1 IRanGd=           0 AccXCQ= 0.00D+00.
 Generated NRdTot=       0 NPtTot=           0 NUsed=           0 NTot=          32
 NSgBfM=    57    57    57    57    57 MxSgAt=    11 MxSgA2=    11.
 Leave Link  302 at Thu Mar  5 13:01:46 2020, MaxMem=  6710886400 cpu:               2.4 elap:               0.2
 (Enter /opt/ohpc/pub/libs/gaussian/g16-A.03/sandybridge/g16/l303.exe)
 DipDrv:  MaxL=1.
 Leave Link  303 at Thu Mar  5 13:01:47 2020, MaxMem=  6710886400 cpu:               0.7 elap:               0.1
 (Enter /opt/ohpc/pub/libs/gaussian/g16-A.03/sandybridge/g16/l401.exe)
 ExpMin= 1.61D-01 ExpMax= 3.05D+03 ExpMxC= 4.57D+02 IAcc=3 IRadAn=         5 AccDes= 0.00D+00
 Harris functional with IExCor=33909 and IRadAn=       5 diagonalized for initial guess.
 HarFok:  IExCor=33909 AccDes= 0.00D+00 IRadAn=         5 IDoV= 1 UseB2=F ITyADJ=14
 ICtDFT=  3500011 ScaDFX=  1.000000  1.000000  1.000000  1.000000
 FoFCou: FMM=F IPFlag=           0 FMFlag=      100000 FMFlg1=           0
         NFxFlg=           0 DoJE=T BraDBF=F KetDBF=T FulRan=T
         wScrn=  0.000000 ICntrl=       500 IOpCl=  0 I1Cent=   200000004 NGrid=           0
         NMat0=    1 NMatS0=      1 NMatT0=    0 NMatD0=    1 NMtDS0=    0 NMtDT0=    0
 Petite list used in FoFCou.
 Harris En= -192.717681430702    
 JPrj=0 DoOrth=F DoCkMO=F.
 Initial guess orbital symmetries:
 Alpha Orbitals:
       Occupied  (A1) (B2) (A1) (B2) (A1) (A1) (A1) (B2) (A1) (B2)
                 (A1) (B2) (A1) (B2) (A1) (B1) (A2) (B1)
       Virtual   (A2) (B2) (B1) (A1) (A1) (B2) (A1) (B2) (A1) (B2)
                 (A1) (B2) (A1) (B2) (B1) (A1) (A2) (B1) (B2) (A1)
                 (A1) (A2) (B1) (B2) (B2) (A1) (B2) (A1) (A1) (B2)
                 (A1) (A1) (A1) (B2) (A1) (B2) (A1) (A1) (B2)
 Beta  Orbitals:
       Occupied  (A1) (B2) (A1) (B2) (A1) (A1) (A1) (B2) (A1) (B2)
                 (A1) (B2) (A1) (B2) (A1) (B1) (A2)
       Virtual   (B1) (A2) (B2) (B1) (A1) (A1) (B2) (A1) (B2) (A1)
                 (B2) (A1) (B2) (A1) (B2) (B1) (A1) (A2) (B1) (B2)
                 (A1) (A1) (A2) (B1) (B2) (B2) (A1) (B2) (A1) (A1)
                 (B2) (A1) (A1) (A1) (B2) (A1) (B2) (A1) (A1) (B2)
 The electronic state of the initial guess is 2-B1.
 Initial guess <Sx>= 0.0000 <Sy>= 0.0000 <Sz>= 0.5000 <S**2>= 0.7500 S= 0.5000
 Leave Link  401 at Thu Mar  5 13:01:47 2020, MaxMem=  6710886400 cpu:               3.0 elap:               0.2
 (Enter /opt/ohpc/pub/libs/gaussian/g16-A.03/sandybridge/g16/l502.exe)
 Keep R1 and R2 ints in memory in symmetry-blocked form, NReq=16815681.
 FoFCou: FMM=F IPFlag=           0 FMFlag=           0 FMFlg1=           0
         NFxFlg=           0 DoJE=F BraDBF=F KetDBF=F FulRan=T
         wScrn=  0.000000 ICntrl=       600 IOpCl=  0 I1Cent=           0 NGrid=           0
         NMat0=    1 NMatS0=   1653 NMatT0=    0 NMatD0=    1 NMtDS0=    0 NMtDT0=    0
 Petite list used in FoFCou.
 UHF open shell SCF:
 Using DIIS extrapolation, IDIIS=    10.
 NGot=  6710886400 LenX=  6710059561 LenY=  6710055871
 Requested convergence on RMS density matrix=1.00D-06 within  32 cycles.
 Requested convergence on MAX density matrix=1.00D-04.
 Requested convergence on             energy=1.00D-04.
 Virtual orbitals will be shifted by   0.500 hartree.
 No special actions if energy rises.
 Dynamic level shift is on during FON iterations.

 Cycle   1  Pass 1  IDiag  1:
 E= -198.705264416129    
 DIIS: error= 4.91D-02 at cycle   1 NSaved=   1.
 NSaved= 1 IEnMin= 1 EnMin= -198.705264416129     IErMin= 1 ErrMin= 4.91D-02
 ErrMax= 4.91D-02  0.00D+00 EMaxC= 1.00D+00 BMatC= 1.97D-01 BMatP= 1.97D-01
 IDIUse=1 WtCom= 1.00D+00 WtEn= 0.00D+00
 Coeff-Com:  0.100D+01
 Coeff:      0.100D+01
 Gap=     0.363 Goal=   None    Shift=    0.500
 T= 1791. Gap= 0.836 NK=0 IS=   19 IE=   57 IFin=   18
          NO(<0.9)=   0  NV(>0.1)=   0     18.00e < EF      0.00e >EF  Err=0.0D+00
 Gap=     0.238 Goal=   None    Shift=    0.500
 T= 1791. Gap= 0.741 NK=0 IS=   18 IE=   57 IFin=   17
          NO(<0.9)=   0  NV(>0.1)=   0     17.00e < EF      0.00e >EF  Err=0.0D+00
 GapD=    0.238 DampG=1.000 DampE=0.500 DampFc=0.5000 IDamp=-1.
 Damping current iteration by 5.00D-01
 RMSDP=6.99D-03 MaxDP=5.38D-02              OVMax= 1.03D-01

 Cycle   2  Pass 1  IDiag  1:
 E= -198.742577385705     Delta-E=       -0.037312969576 Rises=F Damp=T
 DIIS: error= 2.44D-02 at cycle   2 NSaved=   2.
 NSaved= 2 IEnMin= 2 EnMin= -198.742577385705     IErMin= 2 ErrMin= 2.44D-02
 ErrMax= 2.44D-02  0.00D+00 EMaxC= 1.00D+00 BMatC= 3.68D-02 BMatP= 1.97D-01
 IDIUse=1 WtCom= 1.00D+00 WtEn= 0.00D+00
 Coeff-Com: -0.576D+00 0.158D+01
 Coeff:     -0.576D+00 0.158D+01
 Gap=     0.429 Goal=   None    Shift=    0.500
 T= 1681. Gap= 0.916 NK=4 IS=   19 IE=   23 IFin=   18
          NO(<0.9)=   0  NV(>0.1)=   0     18.00e < EF      0.00e >EF  Err=0.0D+00
 Gap=     0.267 Goal=   None    Shift=    0.500
 T= 1681. Gap= 0.765 NK=4 IS=   18 IE=   23 IFin=   17
          NO(<0.9)=   0  NV(>0.1)=   0     17.00e < EF      0.00e >EF  Err=0.0D+00
 GapD=    0.267 DampG=1.000 DampE=0.500 DampFc=0.5000 IDamp=-1.
 Damping current iteration by 5.00D-01
 RMSDP=4.40D-03 MaxDP=3.40D-02 DE=-3.73D-02 OVMax= 1.86D-02

 Cycle   3  Pass 1  IDiag  1:
 E= -198.756432093774     Delta-E=       -0.013854708069 Rises=F Damp=T
 DIIS: error= 1.46D-02 at cycle   3 NSaved=   3.
 NSaved= 3 IEnMin= 3 EnMin= -198.756432093774     IErMin= 3 ErrMin= 1.46D-02
 ErrMax= 1.46D-02  0.00D+00 EMaxC= 1.00D+00 BMatC= 9.30D-03 BMatP= 3.68D-02
 IDIUse=1 WtCom= 1.00D+00 WtEn= 0.00D+00
 Coeff-Com:  0.330D+00-0.188D+01 0.255D+01
 Coeff:      0.330D+00-0.188D+01 0.255D+01
 Gap=     0.420 Goal=   None    Shift=    0.500
 T= 1483. Gap= 0.920 NK=0 IS=   19 IE=   57 IFin=   18
          NO(<0.9)=   0  NV(>0.1)=   0     18.00e < EF      0.00e >EF  Err=0.0D+00
 Gap=     0.272 Goal=   None    Shift=    0.500
 T= 1483. Gap= 0.772 NK=0 IS=   18 IE=   57 IFin=   17
          NO(<0.9)=   0  NV(>0.1)=   0     17.00e < EF      0.00e >EF  Err=0.0D+00
 GapD=    0.272 DampG=1.000 DampE=0.500 DampFc=0.5000 IDamp=-1.
 Damping current iteration by 5.00D-01
 RMSDP=2.57D-03 MaxDP=2.06D-02 DE=-1.39D-02 OVMax= 1.77D-02

 Cycle   4  Pass 1  IDiag  1:
 E= -198.763238653852     Delta-E=       -0.006806560077 Rises=F Damp=T
 DIIS: error= 9.70D-03 at cycle   4 NSaved=   4.
 NSaved= 4 IEnMin= 4 EnMin= -198.763238653852     IErMin= 4 ErrMin= 9.70D-03
 ErrMax= 9.70D-03  0.00D+00 EMaxC= 1.00D+00 BMatC= 3.35D-03 BMatP= 9.30D-03
 IDIUse=1 WtCom= 1.00D+00 WtEn= 0.00D+00
 Coeff-Com:  0.940D-02 0.862D+00-0.388D+01 0.401D+01
 Coeff:      0.940D-02 0.862D+00-0.388D+01 0.401D+01
 Gap=     0.425 Goal=   None    Shift=    0.500
 T= 1128. Gap= 0.926 NK=0 IS=   19 IE=   57 IFin=   18
          NO(<0.9)=   0  NV(>0.1)=   0     18.00e < EF      0.00e >EF  Err=0.0D+00
 Gap=     0.278 Goal=   None    Shift=    0.500
 T= 1128. Gap= 0.778 NK=0 IS=   18 IE=   57 IFin=   17
          NO(<0.9)=   0  NV(>0.1)=   0     17.00e < EF      0.00e >EF  Err=0.0D+00
 GapD=    0.278 DampG=1.000 DampE=1.000 DampFc=1.0000 IDamp=-1.
 RMSDP=1.68D-03 MaxDP=1.73D-02 DE=-6.81D-03 OVMax= 1.75D-02

 Cycle   5  Pass 1  IDiag  1:
 E= -198.771570714258     Delta-E=       -0.008332060407 Rises=F Damp=F
 DIIS: error= 4.78D-03 at cycle   5 NSaved=   5.
 NSaved= 5 IEnMin= 5 EnMin= -198.771570714258     IErMin= 5 ErrMin= 4.78D-03
 ErrMax= 4.78D-03  0.00D+00 EMaxC= 1.00D+00 BMatC= 5.64D-04 BMatP= 3.35D-03
 IDIUse=1 WtCom= 1.00D+00 WtEn= 0.00D+00
 Coeff-Com: -0.198D+00 0.970D+00-0.703D+00-0.106D+01 0.199D+01
 Coeff:     -0.198D+00 0.970D+00-0.703D+00-0.106D+01 0.199D+01
 Gap=     0.429 Goal=   None    Shift=    0.500
 T=  818. Gap= 0.929 NK=0 IS=   19 IE=   57 IFin=   18
          NO(<0.9)=   0  NV(>0.1)=   0     18.00e < EF      0.00e >EF  Err=0.0D+00
 Gap=     0.283 Goal=   None    Shift=    0.500
 T=  818. Gap= 0.783 NK=0 IS=   18 IE=   57 IFin=   17
          NO(<0.9)=   0  NV(>0.1)=   0     17.00e < EF      0.00e >EF  Err=0.0D+00
 GapD=    0.283 DampG=1.000 DampE=1.000 DampFc=1.0000 IDamp=-1.
 RMSDP=5.05D-04 MaxDP=8.15D-03 DE=-8.33D-03 OVMax= 1.80D-02

 Cycle   6  Pass 1  IDiag  1:
 E= -198.772417875724     Delta-E=       -0.000847161466 Rises=F Damp=F
 DIIS: error= 3.73D-03 at cycle   6 NSaved=   6.
 NSaved= 6 IEnMin= 6 EnMin= -198.772417875724     IErMin= 6 ErrMin= 3.73D-03
 ErrMax= 3.73D-03  0.00D+00 EMaxC= 1.00D+00 BMatC= 2.66D-04 BMatP= 5.64D-04
 IDIUse=1 WtCom= 1.00D+00 WtEn= 0.00D+00
 Coeff-Com:  0.689D-02-0.311D+00 0.867D+00-0.540D+00-0.173D+01 0.271D+01
 Coeff:      0.689D-02-0.311D+00 0.867D+00-0.540D+00-0.173D+01 0.271D+01
 Gap=     0.432 Goal=   None    Shift=    0.500
 T=  537. Gap= 0.932 NK=0 IS=   19 IE=   57 IFin=   18
          NO(<0.9)=   0  NV(>0.1)=   0     18.00e < EF      0.00e >EF  Err=0.0D+00
 Gap=     0.286 Goal=   None    Shift=    0.500
 T=  537. Gap= 0.786 NK=0 IS=   18 IE=   57 IFin=   17
          NO(<0.9)=   0  NV(>0.1)=   0     17.00e < EF      0.00e >EF  Err=0.0D+00
 GapD=    0.286 DampG=1.000 DampE=1.000 DampFc=1.0000 IDamp=-1.
 RMSDP=4.13D-04 MaxDP=6.60D-03 DE=-8.47D-04 OVMax= 1.64D-02

 Cycle   7  Pass 1  IDiag  1:
 E= -198.772910075504     Delta-E=       -0.000492199780 Rises=F Damp=F
 DIIS: error= 2.77D-03 at cycle   7 NSaved=   7.
 NSaved= 7 IEnMin= 7 EnMin= -198.772910075504     IErMin= 7 ErrMin= 2.77D-03
 ErrMax= 2.77D-03  0.00D+00 EMaxC= 1.00D+00 BMatC= 1.24D-04 BMatP= 2.66D-04
 IDIUse=1 WtCom= 1.00D+00 WtEn= 0.00D+00
 Coeff-Com:  0.176D-01-0.502D-01-0.209D+00 0.482D+00-0.251D+00-0.141D+01
 Coeff-Com:  0.242D+01
 Coeff:      0.176D-01-0.502D-01-0.209D+00 0.482D+00-0.251D+00-0.141D+01
 Coeff:      0.242D+01
 Gap=     0.433 Goal=   None    Shift=    0.500
 T=  250. Gap= 0.933 NK=0 IS=   19 IE=   57 IFin=   18
          NO(<0.9)=   0  NV(>0.1)=   0     18.00e < EF      0.00e >EF  Err=0.0D+00
 Gap=     0.287 Goal=   None    Shift=    0.500
 T=  250. Gap= 0.787 NK=0 IS=   18 IE=   57 IFin=   17
          NO(<0.9)=   0  NV(>0.1)=   0     17.00e < EF      0.00e >EF  Err=0.0D+00
 GapD=    0.287 DampG=1.000 DampE=1.000 DampFc=1.0000 IDamp=-1.
 RMSDP=2.90D-04 MaxDP=4.36D-03 DE=-4.92D-04 OVMax= 1.25D-02

 Cycle   8  Pass 1  IDiag  1:
 E= -198.773142625697     Delta-E=       -0.000232550193 Rises=F Damp=F
 DIIS: error= 2.02D-03 at cycle   8 NSaved=   8.
 NSaved= 8 IEnMin= 8 EnMin= -198.773142625697     IErMin= 8 ErrMin= 2.02D-03
 ErrMax= 2.02D-03  0.00D+00 EMaxC= 1.00D+00 BMatC= 6.31D-05 BMatP= 1.24D-04
 IDIUse=1 WtCom= 1.00D+00 WtEn= 0.00D+00
 Coeff-Com: -0.183D-01 0.318D+00-0.851D+00 0.554D+00 0.140D+01-0.275D+01
 Coeff-Com: -0.550D-01 0.239D+01
 Coeff:     -0.183D-01 0.318D+00-0.851D+00 0.554D+00 0.140D+01-0.275D+01
 Coeff:     -0.550D-01 0.239D+01
 Gap=     0.434 Goal=   None    Shift=    0.500
 T=   82. Gap= 0.934 NK=0 IS=   19 IE=   57 IFin=   18
          NO(<0.9)=   0  NV(>0.1)=   0     18.00e < EF      0.00e >EF  Err=0.0D+00
 Gap=     0.288 Goal=   None    Shift=    0.500
 T=   82. Gap= 0.788 NK=0 IS=   18 IE=   57 IFin=   17
          NO(<0.9)=   0  NV(>0.1)=   0     17.00e < EF      0.00e >EF  Err=0.0D+00
 GapD=    0.288 DampG=1.000 DampE=1.000 DampFc=1.0000 IDamp=-1.
 RMSDP=2.41D-04 MaxDP=3.50D-03 DE=-2.33D-04 OVMax= 1.09D-02

 Cycle   9  Pass 1  IDiag  1:
 E= -198.773272986026     Delta-E=       -0.000130360330 Rises=F Damp=F
 DIIS: error= 1.38D-03 at cycle   9 NSaved=   9.
 NSaved= 9 IEnMin= 9 EnMin= -198.773272986026     IErMin= 9 ErrMin= 1.38D-03
 ErrMax= 1.38D-03  0.00D+00 EMaxC= 1.00D+00 BMatC= 2.89D-05 BMatP= 6.31D-05
 IDIUse=1 WtCom= 1.00D+00 WtEn= 0.00D+00
 Coeff-Com:  0.536D-02-0.191D+00 0.702D+00-0.670D+00-0.646D+00 0.236D+01
 Coeff-Com: -0.121D+01-0.350D+01 0.415D+01
 Coeff:      0.536D-02-0.191D+00 0.702D+00-0.670D+00-0.646D+00 0.236D+01
 Coeff:     -0.121D+01-0.350D+01 0.415D+01
 Gap=     0.435 Goal=   None    Shift=    0.500
 Gap=     0.288 Goal=   None    Shift=    0.500
 GapD=    0.288 DampG=1.000 DampE=1.000 DampFc=1.0000 IDamp=-1.
 RMSDP=1.99D-04 MaxDP=3.16D-03 DE=-1.30D-04 OVMax= 9.56D-03

 Cycle  10  Pass 1  IDiag  1:
 E= -198.773343593004     Delta-E=       -0.000070606978 Rises=F Damp=F
 DIIS: error= 8.48D-04 at cycle  10 NSaved=  10.
 NSaved=10 IEnMin=10 EnMin= -198.773343593004     IErMin=10 ErrMin= 8.48D-04
 ErrMax= 8.48D-04  0.00D+00 EMaxC= 1.00D+00 BMatC= 1.18D-05 BMatP= 2.89D-05
 IDIUse=1 WtCom= 1.00D+00 WtEn= 0.00D+00
 Coeff-Com:  0.314D-02 0.558D-02-0.483D-01 0.562D-01 0.430D-01-0.222D+00
 Coeff-Com:  0.357D+00 0.917D-01-0.190D+01 0.262D+01
 Coeff:      0.314D-02 0.558D-02-0.483D-01 0.562D-01 0.430D-01-0.222D+00
 Coeff:      0.357D+00 0.917D-01-0.190D+01 0.262D+01
 Gap=     0.435 Goal=   None    Shift=    0.500
 Gap=     0.289 Goal=   None    Shift=    0.500
 RMSDP=1.20D-04 MaxDP=1.96D-03 DE=-7.06D-05 OVMax= 5.97D-03

 Cycle  11  Pass 1  IDiag  1:
 E= -198.773370502198     Delta-E=       -0.000026909194 Rises=F Damp=F
 DIIS: error= 5.19D-04 at cycle  11 NSaved=  11.
 NSaved=11 IEnMin=11 EnMin= -198.773370502198     IErMin=11 ErrMin= 5.19D-04
 ErrMax= 5.19D-04  0.00D+00 EMaxC= 1.00D+00 BMatC= 5.22D-06 BMatP= 1.18D-05
 IDIUse=1 WtCom= 1.00D+00 WtEn= 0.00D+00
 Coeff-Com:  0.319D-04-0.450D-01 0.204D+00-0.228D+00-0.851D-01 0.645D+00
 Coeff-Com: -0.671D+00-0.854D+00 0.355D+01-0.649D+01 0.497D+01
 Coeff:      0.319D-04-0.450D-01 0.204D+00-0.228D+00-0.851D-01 0.645D+00
 Coeff:     -0.671D+00-0.854D+00 0.355D+01-0.649D+01 0.497D+01
 Gap=     0.435 Goal=   None    Shift=    0.500
 Gap=     0.289 Goal=   None    Shift=    0.500
 RMSDP=8.14D-05 MaxDP=1.27D-03 DE=-2.69D-05 OVMax= 4.14D-03

 Cycle  12  Pass 1  IDiag  1:
 E= -198.773382091290     Delta-E=       -0.000011589092 Rises=F Damp=F
 DIIS: error= 2.98D-04 at cycle  12 NSaved=  12.
 NSaved=12 IEnMin=12 EnMin= -198.773382091290     IErMin=12 ErrMin= 2.98D-04
 ErrMax= 2.98D-04  0.00D+00 EMaxC= 1.00D+00 BMatC= 1.95D-06 BMatP= 5.22D-06
 IDIUse=1 WtCom= 1.00D+00 WtEn= 0.00D+00
 Coeff-Com:  0.929D-03-0.277D-01 0.102D+00-0.976D-01-0.832D-01 0.312D+00
 Coeff-Com: -0.824D-01-0.579D+00 0.468D+00 0.743D+00-0.265D+01 0.289D+01
 Coeff:      0.929D-03-0.277D-01 0.102D+00-0.976D-01-0.832D-01 0.312D+00
 Coeff:     -0.824D-01-0.579D+00 0.468D+00 0.743D+00-0.265D+01 0.289D+01
 Gap=     0.435 Goal=   None    Shift=    0.500
 Gap=     0.289 Goal=   None    Shift=    0.500
 RMSDP=4.92D-05 MaxDP=7.49D-04 DE=-1.16D-05 OVMax= 2.49D-03

 Cycle  13  Pass 1  IDiag  1:
 E= -198.773386246745     Delta-E=       -0.000004155454 Rises=F Damp=F
 DIIS: error= 1.67D-04 at cycle  13 NSaved=  13.
 NSaved=13 IEnMin=13 EnMin= -198.773386246745     IErMin=13 ErrMin= 1.67D-04
 ErrMax= 1.67D-04  0.00D+00 EMaxC= 1.00D+00 BMatC= 7.10D-07 BMatP= 1.95D-06
 IDIUse=1 WtCom= 1.00D+00 WtEn= 0.00D+00
 Coeff-Com:  0.419D-03 0.390D-03 0.476D-02-0.135D-01 0.308D-01-0.187D-02
 Coeff-Com: -0.125D+00 0.882D-01 0.625D+00-0.209D+01 0.358D+01-0.528D+01
 Coeff-Com:  0.417D+01
 Coeff:      0.419D-03 0.390D-03 0.476D-02-0.135D-01 0.308D-01-0.187D-02
 Coeff:     -0.125D+00 0.882D-01 0.625D+00-0.209D+01 0.358D+01-0.528D+01
 Coeff:      0.417D+01
 Gap=     0.435 Goal=   None    Shift=    0.500
 Gap=     0.289 Goal=   None    Shift=    0.500
 RMSDP=2.96D-05 MaxDP=4.52D-04 DE=-4.16D-06 OVMax= 1.51D-03

 Cycle  14  Pass 1  IDiag  1:
 E= -198.773387703301     Delta-E=       -0.000001456557 Rises=F Damp=F
 DIIS: error= 8.87D-05 at cycle  14 NSaved=  14.
 NSaved=14 IEnMin=14 EnMin= -198.773387703301     IErMin=14 ErrMin= 8.87D-05
 ErrMax= 8.87D-05  0.00D+00 EMaxC= 1.00D+00 BMatC= 2.62D-07 BMatP= 7.10D-07
 IDIUse=1 WtCom= 1.00D+00 WtEn= 0.00D+00
 Coeff-Com:  0.469D-03-0.100D-01 0.395D-01-0.417D-01-0.217D-01 0.107D+00
 Coeff-Com: -0.424D-01-0.199D+00 0.372D+00-0.346D+00-0.333D+00 0.181D+01
 Coeff-Com: -0.358D+01 0.325D+01
 Coeff:      0.469D-03-0.100D-01 0.395D-01-0.417D-01-0.217D-01 0.107D+00
 Coeff:     -0.424D-01-0.199D+00 0.372D+00-0.346D+00-0.333D+00 0.181D+01
 Coeff:     -0.358D+01 0.325D+01
 Gap=     0.435 Goal=   None    Shift=    0.500
 Gap=     0.289 Goal=   None    Shift=    0.500
 RMSDP=1.68D-05 MaxDP=2.53D-04 DE=-1.46D-06 OVMax= 8.67D-04

 Cycle  15  Pass 1  IDiag  1:
 E= -198.773388177456     Delta-E=       -0.000000474155 Rises=F Damp=F
 DIIS: error= 4.65D-05 at cycle  15 NSaved=  15.
 NSaved=15 IEnMin=15 EnMin= -198.773388177456     IErMin=15 ErrMin= 4.65D-05
 ErrMax= 4.65D-05  0.00D+00 EMaxC= 1.00D+00 BMatC= 8.82D-08 BMatP= 2.62D-07
 IDIUse=1 WtCom= 1.00D+00 WtEn= 0.00D+00
 Coeff-Com: -0.193D-03 0.367D-02-0.141D-01 0.149D-01 0.864D-02-0.384D-01
 Coeff-Com:  0.115D-01 0.836D-01-0.130D+00 0.762D-01 0.297D+00-0.141D+01
 Coeff-Com:  0.310D+01-0.494D+01 0.393D+01
 Coeff:     -0.193D-03 0.367D-02-0.141D-01 0.149D-01 0.864D-02-0.384D-01
 Coeff:      0.115D-01 0.836D-01-0.130D+00 0.762D-01 0.297D+00-0.141D+01
 Coeff:      0.310D+01-0.494D+01 0.393D+01
 Gap=     0.435 Goal=   None    Shift=    0.500
 Gap=     0.289 Goal=   None    Shift=    0.500
 RMSDP=9.08D-06 MaxDP=1.30D-04 DE=-4.74D-07 OVMax= 4.72D-04

 Cycle  16  Pass 1  IDiag  1:
 E= -198.773388320360     Delta-E=       -0.000000142904 Rises=F Damp=F
 DIIS: error= 2.70D-05 at cycle  16 NSaved=  16.
 NSaved=16 IEnMin=16 EnMin= -198.773388320360     IErMin=16 ErrMin= 2.70D-05
 ErrMax= 2.70D-05  0.00D+00 EMaxC= 1.00D+00 BMatC= 2.92D-08 BMatP= 8.82D-08
 IDIUse=1 WtCom= 1.00D+00 WtEn= 0.00D+00
 Coeff-Com:  0.720D-04-0.843D-03 0.537D-02-0.775D-02 0.431D-02 0.251D-02
 Coeff-Com: -0.206D-03-0.269D-01 0.102D+00-0.214D+00 0.190D+00 0.964D-01
 Coeff-Com: -0.878D+00 0.233D+01-0.410D+01 0.350D+01
 Coeff:      0.720D-04-0.843D-03 0.537D-02-0.775D-02 0.431D-02 0.251D-02
 Coeff:     -0.206D-03-0.269D-01 0.102D+00-0.214D+00 0.190D+00 0.964D-01
 Coeff:     -0.878D+00 0.233D+01-0.410D+01 0.350D+01
 Gap=     0.435 Goal=   None    Shift=    0.500
 Gap=     0.289 Goal=   None    Shift=    0.500
 RMSDP=4.79D-06 MaxDP=6.49D-05 DE=-1.43D-07 OVMax= 2.50D-04

 Cycle  17  Pass 1  IDiag  1:
 E= -198.773388362279     Delta-E=       -0.000000041919 Rises=F Damp=F
 DIIS: error= 1.58D-05 at cycle  17 NSaved=  17.
 NSaved=17 IEnMin=17 EnMin= -198.773388362279     IErMin=17 ErrMin= 1.58D-05
 ErrMax= 1.58D-05  0.00D+00 EMaxC= 1.00D+00 BMatC= 9.27D-09 BMatP= 2.92D-08
 IDIUse=1 WtCom= 1.00D+00 WtEn= 0.00D+00
 Coeff-Com: -0.254D-04 0.801D-03-0.433D-02 0.569D-02-0.881D-03-0.815D-02
 Coeff-Com:  0.725D-02 0.206D-01-0.654D-01 0.110D+00-0.560D-01-0.202D+00
 Coeff-Com:  0.744D+00-0.170D+01 0.297D+01-0.446D+01 0.364D+01
 Coeff:     -0.254D-04 0.801D-03-0.433D-02 0.569D-02-0.881D-03-0.815D-02
 Coeff:      0.725D-02 0.206D-01-0.654D-01 0.110D+00-0.560D-01-0.202D+00
 Coeff:      0.744D+00-0.170D+01 0.297D+01-0.446D+01 0.364D+01
 Gap=     0.435 Goal=   None    Shift=    0.500
 Gap=     0.289 Goal=   None    Shift=    0.500
 RMSDP=2.46D-06 MaxDP=3.29D-05 DE=-4.19D-08 OVMax= 1.29D-04

 Cycle  18  Pass 1  IDiag  1:
 E= -198.773388374350     Delta-E=       -0.000000012071 Rises=F Damp=F
 DIIS: error= 9.16D-06 at cycle  18 NSaved=  18.
 NSaved=18 IEnMin=18 EnMin= -198.773388374350     IErMin=18 ErrMin= 9.16D-06
 ErrMax= 9.16D-06  0.00D+00 EMaxC= 1.00D+00 BMatC= 2.87D-09 BMatP= 9.27D-09
 IDIUse=1 WtCom= 1.00D+00 WtEn= 0.00D+00
 Coeff-Com: -0.220D-04 0.361D-03-0.754D-03 0.222D-03 0.263D-02-0.631D-02
 Coeff-Com:  0.400D-02 0.308D-02 0.302D-02-0.255D-01 0.464D-01-0.531D-01
 Coeff-Com:  0.336D-02 0.175D+00-0.636D+00 0.166D+01-0.350D+01 0.333D+01
 Coeff:     -0.220D-04 0.361D-03-0.754D-03 0.222D-03 0.263D-02-0.631D-02
 Coeff:      0.400D-02 0.308D-02 0.302D-02-0.255D-01 0.464D-01-0.531D-01
 Coeff:      0.336D-02 0.175D+00-0.636D+00 0.166D+01-0.350D+01 0.333D+01
 Gap=     0.435 Goal=   None    Shift=    0.500
 Gap=     0.289 Goal=   None    Shift=    0.500
 RMSDP=1.24D-06 MaxDP=1.71D-05 DE=-1.21D-08 OVMax= 6.55D-05

 Cycle  19  Pass 1  IDiag  1:
 E= -198.773388377828     Delta-E=       -0.000000003477 Rises=F Damp=F
 DIIS: error= 5.32D-06 at cycle  19 NSaved=  19.
 NSaved=19 IEnMin=19 EnMin= -198.773388377828     IErMin=19 ErrMin= 5.32D-06
 ErrMax= 5.32D-06  0.00D+00 EMaxC= 1.00D+00 BMatC= 8.53D-10 BMatP= 2.87D-09
 IDIUse=1 WtCom= 1.00D+00 WtEn= 0.00D+00
 Coeff-Com: -0.131D-04 0.277D-03-0.103D-02 0.106D-02 0.679D-03-0.339D-02
 Coeff-Com:  0.297D-02 0.382D-02-0.113D-01 0.145D-01-0.668D-02-0.127D-01
 Coeff-Com:  0.367D-01-0.696D-01 0.131D+00-0.429D+00 0.121D+01-0.279D+01
 Coeff-Com:  0.292D+01
 Coeff:     -0.131D-04 0.277D-03-0.103D-02 0.106D-02 0.679D-03-0.339D-02
 Coeff:      0.297D-02 0.382D-02-0.113D-01 0.145D-01-0.668D-02-0.127D-01
 Coeff:      0.367D-01-0.696D-01 0.131D+00-0.429D+00 0.121D+01-0.279D+01
 Coeff:      0.292D+01
 Gap=     0.435 Goal=   None    Shift=    0.500
 Gap=     0.289 Goal=   None    Shift=    0.500
 RMSDP=6.47D-07 MaxDP=8.97D-06 DE=-3.48D-09 OVMax= 3.41D-05

 SCF Done:  E(ULC-wHPBE) =  -198.773388378     A.U. after   19 cycles
            NFock= 19  Conv=0.65D-06     -V/T= 2.0294
 <Sx>= 0.0000 <Sy>= 0.0000 <Sz>= 0.5000 <S**2>= 0.8406 S= 0.5443
 <L.S>= 0.000000000000E+00
 KE= 1.930948805282D+02 PE=-7.530150677790D+02 EE= 2.051340563870D+02
 Annihilation of the first spin contaminant:
 S**2 before annihilation     0.8406,   after     0.7546
 Leave Link  502 at Thu Mar  5 13:01:49 2020, MaxMem=  6710886400 cpu:              36.2 elap:               2.3
 (Enter /opt/ohpc/pub/libs/gaussian/g16-A.03/sandybridge/g16/l508.exe)
 QCSCF skips out because SCF is already converged.
 Leave Link  508 at Thu Mar  5 13:01:49 2020, MaxMem=  6710886400 cpu:               0.1 elap:               0.0
 (Enter /opt/ohpc/pub/libs/gaussian/g16-A.03/sandybridge/g16/l601.exe)
 Copying SCF densities to generalized density rwf, IOpCl= 1 IROHF=0.

 **********************************************************************

            Population analysis using the SCF density.

 **********************************************************************

 Orbital symmetries:
 Alpha Orbitals:
       Occupied  (B2) (A1) (A1) (B2) (A1) (A1) (A1) (B2) (A1) (B2)
                 (A1) (B2) (A1) (A1) (B1) (B2) (A2) (B1)
       Virtual   (A2) (B2) (B1) (A1) (A1) (B2) (A1) (A1) (B2) (A1)
                 (B2) (A1) (B2) (B1) (B2) (B1) (A2) (A1) (A1) (B2)
                 (A1) (A2) (B1) (B2) (B2) (A1) (A1) (A1) (B2) (A1)
                 (B2) (A1) (A1) (B2) (A1) (B2) (A1) (A1) (B2)
 Beta  Orbitals:
       Occupied  (B2) (A1) (B2) (A1) (A1) (A1) (A1) (B2) (A1) (B2)
                 (A1) (B2) (A1) (A1) (B2) (B1) (A2)
       Virtual   (B1) (B2) (A2) (A1) (B1) (A1) (B2) (A1) (B2) (A1)
                 (A1) (B2) (A1) (B2) (B2) (B1) (A2) (A1) (B1) (A1)
                 (B2) (A1) (A2) (B1) (B2) (B2) (A1) (A1) (B2) (A1)
                 (B2) (A1) (A1) (A1) (B2) (A1) (B2) (A1) (A1) (B2)
 The electronic state is 2-B1.
 Alpha  occ. eigenvalues --  -10.53295 -10.53292 -10.48132 -10.47368 -10.47367
 Alpha  occ. eigenvalues --   -1.39712  -1.26632  -1.21680  -1.07625  -1.05346
 Alpha  occ. eigenvalues --   -1.00499  -0.90520  -0.88268  -0.87172  -0.85964
 Alpha  occ. eigenvalues --   -0.84801  -0.70852  -0.69889
 Alpha virt. eigenvalues --   -0.26410  -0.25823  -0.19192  -0.18507  -0.11516
 Alpha virt. eigenvalues --   -0.06799  -0.04724  -0.02315  -0.02253   0.08409
 Alpha virt. eigenvalues --    0.08710   0.18958   0.19198   0.27478   0.28437
 Alpha virt. eigenvalues --    0.35247   0.35735   0.36509   0.38421   0.39293
 Alpha virt. eigenvalues --    0.39628   0.43323   0.44801   0.52249   0.59210
 Alpha virt. eigenvalues --    0.61517   0.62524   0.65156   0.65242   0.71140
 Alpha virt. eigenvalues --    0.71407   0.75694   0.79863   0.86557   0.94620
 Alpha virt. eigenvalues --    0.95477   1.01387   1.22899   1.24414
  Beta  occ. eigenvalues --  -10.52611 -10.52606 -10.47769 -10.47768 -10.47102
  Beta  occ. eigenvalues --   -1.38315  -1.24543  -1.21510  -1.06469  -1.04572
  Beta  occ. eigenvalues --   -1.00271  -0.90264  -0.88010  -0.86605  -0.84679
  Beta  occ. eigenvalues --   -0.80949  -0.69409
  Beta virt. eigenvalues --   -0.40526  -0.24108  -0.23133  -0.18284  -0.15534
  Beta virt. eigenvalues --   -0.11064  -0.06515  -0.04541  -0.02374  -0.01622
  Beta virt. eigenvalues --    0.08908   0.09026   0.19358   0.19560   0.28871
  Beta virt. eigenvalues --    0.30106   0.36895   0.37115   0.38356   0.38755
  Beta virt. eigenvalues --    0.39602   0.40815   0.43815   0.46492   0.52868
  Beta virt. eigenvalues --    0.59656   0.62468   0.63004   0.65105   0.65621
  Beta virt. eigenvalues --    0.71668   0.71896   0.76525   0.80736   0.86460
  Beta virt. eigenvalues --    0.95075   0.96037   1.02664   1.23868   1.25302
          Condensed to atoms (all electrons):
               1          2          3          4          5          6
     1  C    5.384302   0.490024  -0.042607  -0.121733   0.175209   0.161666
     2  C    0.490024   4.981656   0.448151  -0.024695  -0.121733  -0.021586
     3  C   -0.042607   0.448151   4.912081   0.448151  -0.042607   0.007640
     4  C   -0.121733  -0.024695   0.448151   4.981656   0.490024  -0.021586
     5  C    0.175209  -0.121733  -0.042607   0.490024   5.384302   0.161666
     6  H    0.161666  -0.021586   0.007640  -0.021586   0.161666   0.345309
     7  H    0.335041   0.005234  -0.000558   0.002970  -0.014138  -0.010151
     8  H   -0.022152   0.359885  -0.010946   0.003579   0.000607   0.000274
     9  H    0.004469  -0.024539   0.361960  -0.024539   0.004469  -0.000019
    10  H    0.000607   0.003579  -0.010946   0.359885  -0.022152   0.000274
    11  H   -0.014138   0.002970  -0.000558   0.005234   0.335041  -0.010151
               7          8          9         10         11
     1  C    0.335041  -0.022152   0.004469   0.000607  -0.014138
     2  C    0.005234   0.359885  -0.024539   0.003579   0.002970
     3  C   -0.000558  -0.010946   0.361960  -0.010946  -0.000558
     4  C    0.002970   0.003579  -0.024539   0.359885   0.005234
     5  C   -0.014138   0.000607   0.004469  -0.022152   0.335041
     6  H   -0.010151   0.000274  -0.000019   0.000274  -0.010151
     7  H    0.333259   0.000290  -0.000045  -0.000013   0.000364
     8  H    0.000290   0.371483  -0.000928  -0.000069  -0.000013
     9  H   -0.000045  -0.000928   0.389255  -0.000928  -0.000045
    10  H   -0.000013  -0.000069  -0.000928   0.371483   0.000290
    11  H    0.000364  -0.000013  -0.000045   0.000290   0.333259
          Atomic-Atomic Spin Densities.
               1          2          3          4          5          6
     1  C    0.567422  -0.040650  -0.022028  -0.009611   0.016855  -0.004730
     2  C   -0.040650  -0.327516   0.027274   0.001035  -0.009611   0.000483
     3  C   -0.022028   0.027274   0.767520   0.027274  -0.022028   0.000185
     4  C   -0.009611   0.001035   0.027274  -0.327516  -0.040650   0.000483
     5  C    0.016855  -0.009611  -0.022028  -0.040650   0.567422  -0.004730
     6  H   -0.004730   0.000483   0.000185   0.000483  -0.004730  -0.017658
     7  H   -0.003650  -0.000615   0.000137  -0.000126   0.000149  -0.000082
     8  H   -0.000397   0.002355  -0.001077  -0.000154   0.000087   0.000030
     9  H   -0.000008   0.000032  -0.001821   0.000032  -0.000008  -0.000002
    10  H    0.000087  -0.000154  -0.001077   0.002355  -0.000397   0.000030
    11  H    0.000149  -0.000126   0.000137  -0.000615  -0.003650  -0.000082
               7          8          9         10         11
     1  C   -0.003650  -0.000397  -0.000008   0.000087   0.000149
     2  C   -0.000615   0.002355   0.000032  -0.000154  -0.000126
     3  C    0.000137  -0.001077  -0.001821  -0.001077   0.000137
     4  C   -0.000126  -0.000154   0.000032   0.002355  -0.000615
     5  C    0.000149   0.000087  -0.000008  -0.000397  -0.003650
     6  H   -0.000082   0.000030  -0.000002   0.000030  -0.000082
     7  H   -0.020867   0.000043   0.000004  -0.000000  -0.000081
     8  H    0.000043   0.010154   0.000004  -0.000000  -0.000000
     9  H    0.000004   0.000004  -0.030474   0.000004   0.000004
    10  H   -0.000000  -0.000000   0.000004   0.010154   0.000043
    11  H   -0.000081  -0.000000   0.000004   0.000043  -0.020867
 Mulliken charges and spin densities:
               1          2
     1  C   -0.350689   0.503439
     2  C   -0.098946  -0.347493
     3  C   -0.069760   0.774494
     4  C   -0.098946  -0.347493
     5  C   -0.350689   0.503439
     6  H    0.386664  -0.026071
     7  H    0.347747  -0.025089
     8  H    0.297990   0.011046
     9  H    0.290892  -0.032232
    10  H    0.297990   0.011046
    11  H    0.347747  -0.025089
 Sum of Mulliken charges =   1.00000   1.00000
 Mulliken charges and spin densities with hydrogens summed into heavy atoms:
               1          2
     1  C    0.383722   0.452280
     2  C    0.199044  -0.336447
     3  C    0.221131   0.742262
     4  C    0.199044  -0.336447
     5  C   -0.002942   0.478351
 Electronic spatial extent (au):  <R**2>=            317.1954
 Charge=              1.0000 electrons
 Dipole moment (field-independent basis, Debye):
    X=             -0.0000    Y=             -0.0000    Z=             -2.0731  Tot=              2.0731
 Quadrupole moment (field-independent basis, Debye-Ang):
   XX=            -30.5906   YY=            -16.7067   ZZ=            -12.4120
   XY=              0.0000   XZ=              0.0000   YZ=             -0.0000
 Traceless Quadrupole moment (field-independent basis, Debye-Ang):
   XX=            -10.6875   YY=              3.1964   ZZ=              7.4911
   XY=              0.0000   XZ=              0.0000   YZ=             -0.0000
 Octapole moment (field-independent basis, Debye-Ang**2):
  XXX=              0.0000  YYY=              0.0000  ZZZ=             -7.6666  XYY=             -0.0000
  XXY=             -0.0000  XXZ=              0.6183  XZZ=              0.0000  YZZ=             -0.0000
  YYZ=             -2.6833  XYZ=             -0.0000
 Hexadecapole moment (field-independent basis, Debye-Ang**3):
 XXXX=            -29.8227 YYYY=           -137.3855 ZZZZ=           -118.4816 XXXY=             -0.0000
 XXXZ=             -0.0000 YYYX=             -0.0000 YYYZ=             -0.0000 ZZZX=              0.0000
 ZZZY=              0.0000 XXYY=            -40.9246 XXZZ=            -37.5824 YYZZ=            -40.4112
 XXYZ=              0.0000 YYXZ=             -0.0000 ZZXY=             -0.0000
 N-N= 1.560127424860D+02 E-N=-7.530150734969D+02  KE= 1.930948805282D+02
 Symmetry A1   KE= 1.115325780206D+02
 Symmetry A2   KE= 2.584586117796D+00
 Symmetry B1   KE= 3.338009185468D+00
 Symmetry B2   KE= 7.563970720433D+01
 Symmetry A1   SP= 2.257342253861D-14
 Symmetry A2   SP=-5.479991460611D-15
 Symmetry B1   SP= 1.000000000000D+00
 Symmetry B2   SP= 1.192754526874D-14
                          Isotropic Fermi Contact Couplings
        Atom                 a.u.       MegaHertz       Gauss      10(-4) cm-1
     1  C(13)              0.08450      94.99611      33.89697      31.68729
     2  C(13)             -0.06206     -69.76190     -24.89278     -23.27006
     3  C(13)              0.11998     134.87566      48.12699      44.98968
     4  C(13)             -0.06206     -69.76190     -24.89278     -23.27006
     5  C(13)              0.08450      94.99611      33.89697      31.68729
     6  H(1)              -0.01009     -45.08750     -16.08834     -15.03957
     7  H(1)              -0.01116     -49.89199     -17.80270     -16.64218
     8  H(1)               0.00464      20.73221       7.39777       6.91552
     9  H(1)              -0.01515     -67.73351     -24.16900     -22.59347
    10  H(1)               0.00464      20.73221       7.39777       6.91552
    11  H(1)              -0.01116     -49.89199     -17.80270     -16.64218
 --------------------------------------------------------
       Center         ----  Spin Dipole Couplings  ----
                      3XX-RR        3YY-RR        3ZZ-RR
 --------------------------------------------------------
     1   Atom        0.530345     -0.258266     -0.272079
     2   Atom       -0.240354      0.117693      0.122661
     3   Atom        0.731148     -0.373955     -0.357193
     4   Atom       -0.240354      0.117693      0.122661
     5   Atom        0.530345     -0.258266     -0.272079
     6   Atom       -0.009537      0.009604     -0.000067
     7   Atom       -0.007105      0.007551     -0.000446
     8   Atom       -0.005953     -0.003825      0.009778
     9   Atom       -0.008781     -0.047392      0.056173
    10   Atom       -0.005953     -0.003825      0.009778
    11   Atom       -0.007105      0.007551     -0.000446
 --------------------------------------------------------
                        XY            XZ            YZ
 --------------------------------------------------------
     1   Atom       -0.000000      0.000000     -0.008796
     2   Atom       -0.000000      0.000000     -0.004669
     3   Atom       -0.000000     -0.000000      0.000000
     4   Atom       -0.000000     -0.000000      0.004669
     5   Atom        0.000000      0.000000      0.008796
     6   Atom       -0.000000      0.000000     -0.000000
     7   Atom        0.000000      0.000000     -0.037954
     8   Atom       -0.000000      0.000000     -0.007670
     9   Atom       -0.000000     -0.000000      0.000000
    10   Atom        0.000000     -0.000000      0.007670
    11   Atom       -0.000000     -0.000000      0.037954
 --------------------------------------------------------


 ---------------------------------------------------------------------------------
              Anisotropic Spin Dipole Couplings in Principal Axis System
 ---------------------------------------------------------------------------------

       Atom             a.u.   MegaHertz   Gauss  10(-4) cm-1        Axes

              Baa    -0.2764   -37.084   -13.233   -12.370 -0.0000  0.4373  0.8993
     1 C(13)  Bbb    -0.2540   -34.083   -12.162   -11.369 -0.0000  0.8993 -0.4373
              Bcc     0.5303    71.167    25.394    23.739  1.0000  0.0000  0.0000
 
              Baa    -0.2404   -32.253   -11.509   -10.758  1.0000  0.0000  0.0000
     2 C(13)  Bbb     0.1149    15.417     5.501     5.143 -0.0000  0.8572  0.5149
              Bcc     0.1255    16.836     6.008     5.616  0.0000 -0.5149  0.8572
 
              Baa    -0.3740   -50.181   -17.906   -16.739 -0.0000  1.0000  0.0000
     3 C(13)  Bbb    -0.3572   -47.932   -17.103   -15.988  0.0000  0.0000  1.0000
              Bcc     0.7311    98.113    35.009    32.727  1.0000  0.0000  0.0000
 
              Baa    -0.2404   -32.253   -11.509   -10.758  1.0000  0.0000  0.0000
     4 C(13)  Bbb     0.1149    15.417     5.501     5.143 -0.0000  0.8572 -0.5149
              Bcc     0.1255    16.836     6.008     5.616 -0.0000  0.5149  0.8572
 
              Baa    -0.2764   -37.084   -13.233   -12.370 -0.0000 -0.4373  0.8993
     5 C(13)  Bbb    -0.2540   -34.083   -12.162   -11.369  0.0000  0.8993  0.4373
              Bcc     0.5303    71.167    25.394    23.739  1.0000 -0.0000  0.0000
 
              Baa    -0.0095    -5.089    -1.816    -1.697  1.0000  0.0000 -0.0000
     6 H(1)   Bbb    -0.0001    -0.036    -0.013    -0.012  0.0000  0.0000  1.0000
              Bcc     0.0096     5.124     1.829     1.709 -0.0000  1.0000 -0.0000
 
              Baa    -0.0346   -18.467    -6.589    -6.160 -0.0000  0.6690  0.7432
     7 H(1)   Bbb    -0.0071    -3.791    -1.353    -1.264  1.0000  0.0000  0.0000
              Bcc     0.0417    22.258     7.942     7.424 -0.0000  0.7432 -0.6690
 
              Baa    -0.0073    -3.882    -1.385    -1.295 -0.0000  0.9120  0.4102
     8 H(1)   Bbb    -0.0060    -3.176    -1.133    -1.059  1.0000  0.0000  0.0000
              Bcc     0.0132     7.058     2.518     2.354  0.0000 -0.4102  0.9120
 
              Baa    -0.0474   -25.286    -9.023    -8.435 -0.0000  1.0000 -0.0000
     9 H(1)   Bbb    -0.0088    -4.685    -1.672    -1.563  1.0000 -0.0000  0.0000
              Bcc     0.0562    29.971    10.695     9.997  0.0000  0.0000  1.0000
 
              Baa    -0.0073    -3.882    -1.385    -1.295 -0.0000  0.9120 -0.4102
    10 H(1)   Bbb    -0.0060    -3.176    -1.133    -1.059  1.0000  0.0000 -0.0000
              Bcc     0.0132     7.058     2.518     2.354  0.0000  0.4102  0.9120
 
              Baa    -0.0346   -18.467    -6.589    -6.160  0.0000 -0.6690  0.7432
    11 H(1)   Bbb    -0.0071    -3.791    -1.353    -1.264  1.0000  0.0000  0.0000
              Bcc     0.0417    22.258     7.942     7.424 -0.0000  0.7432  0.6690
 

 ---------------------------------------------------------------------------------

 No NMR shielding tensors so no spin-rotation constants.
 Leave Link  601 at Thu Mar  5 13:01:49 2020, MaxMem=  6710886400 cpu:               4.3 elap:               0.3
 (Enter /opt/ohpc/pub/libs/gaussian/g16-A.03/sandybridge/g16/l9999.exe)

 Test job not archived.
 1\1\GINC-CNODE212\SP\ULC-wHPBE\6-31G\C5H6(1+,2)\SMGO234\05-Mar-2020\0\
 \#P uLC-wHPBE/6-31G iop(3/130=0113100000, 3/131=0113100000, 3/119=0886
 900000, 3/120=0886900000) scf=(conver=6,fermi,ndamp=35,noincfock,novar
 acc,vshift=500,xqc)\\H6 C5\\1,2\C,0,0.,0.878804,-0.931542\C,0,0.,1.128
 157,0.423457\C,0,0.,0.,1.240879\C,0,0.,-1.128157,0.423457\C,0,0.,-0.87
 8804,-0.931542\H,0,0.,0.,-1.732269\H,0,0.,1.6083,-1.734053\H,0,0.,2.15
 6626,0.76567\H,0,0.,0.,2.320778\H,0,0.,-2.156626,0.76567\H,0,0.,-1.608
 3,-1.734053\\Version=EM64L-G16RevA.03\State=2-B1\HF=-198.7733884\S2=0.
 840585\S2-1=0.\S2A=0.754584\RMSD=6.470e-07\Dipole=0.,0.,-0.8156099\Qua
 drupole=-7.9458992,2.376458,5.5694412,0.,0.,0.\PG=C02V [C2(H1C1H1),SGV
 (C4H4)]\\@


 THERE IS AN OLD, OLD RECIPE IN MAINE FOR STEWING COOT. PLACE THE
 BIRD IN A KETTLE OF WATER WITH A RED BUILDING BRICK FREE OF MORTAR AND
 BLEMISHES. PARBOIL THE COOT AND BRICK TOGETHER FOR THREE HOURS.
 POUR OFF THE WATER, REFILL THE KETTLE, AND AGAIN PARBOIL FOR THREE HOURS.
 ONCE AGAIN POUR OFF THE WATER, FOR THE LAST TIME ADD FRESH WATER,
 AND LET THE COOT AND BRICK SIMMER TOGETHER OVERNIGHT. IN THE MORNING,
 THROW AWAY THE COOT AND EAT THE BRICK.
 Job cpu time:       0 days  0 hours  1 minutes  6.8 seconds.
 Elapsed time:       0 days  0 hours  0 minutes  4.5 seconds.
 File lengths (MBytes):  RWF=    272 Int=      0 D2E=      0 Chk=     32 Scr=     32
 Normal termination of Gaussian 16 at Thu Mar  5 13:01:50 2020.
