 Entering Gaussian System, Link 0=g16
 Input=a1b_tune_c6.gjf
 Output=a1b_tune_c6.log
 Initial command:
 /opt/ohpc/pub/libs/gaussian/g16-A.03/sandybridge/g16/l1.exe "/scratch/smgo234/Ocelot/test/a1b/tuning_a1b_acycle2/Gau-86298.inp" -scrdir="/scratch/smgo234/Ocelot/test/a1b/tuning_a1b_acycle2/"
 Entering Link 1 = /opt/ohpc/pub/libs/gaussian/g16-A.03/sandybridge/g16/l1.exe PID=     86299.
  
 Copyright (c) 1988,1990,1992,1993,1995,1998,2003,2009,2016,
            Gaussian, Inc.  All Rights Reserved.
  
 This is part of the Gaussian(R) 16 program.  It is based on
 the Gaussian(R) 09 system (copyright 2009, Gaussian, Inc.),
 the Gaussian(R) 03 system (copyright 2003, Gaussian, Inc.),
 the Gaussian(R) 98 system (copyright 1998, Gaussian, Inc.),
 the Gaussian(R) 94 system (copyright 1995, Gaussian, Inc.),
 the Gaussian 92(TM) system (copyright 1992, Gaussian, Inc.),
 the Gaussian 90(TM) system (copyright 1990, Gaussian, Inc.),
 the Gaussian 88(TM) system (copyright 1988, Gaussian, Inc.),
 the Gaussian 86(TM) system (copyright 1986, Carnegie Mellon
 University), and the Gaussian 82(TM) system (copyright 1983,
 Carnegie Mellon University). Gaussian is a federally registered
 trademark of Gaussian, Inc.
  
 This software contains proprietary and confidential information,
 including trade secrets, belonging to Gaussian, Inc.
  
 This software is provided under written license and may be
 used, copied, transmitted, or stored only in accord with that
 written license.
  
 The following legend is applicable only to US Government
 contracts under FAR:
  
                    RESTRICTED RIGHTS LEGEND
  
 Use, reproduction and disclosure by the US Government is
 subject to restrictions as set forth in subparagraphs (a)
 and (c) of the Commercial Computer Software - Restricted
 Rights clause in FAR 52.227-19.
  
 Gaussian, Inc.
 340 Quinnipiac St., Bldg. 40, Wallingford CT 06492
  
  
 ---------------------------------------------------------------
 Warning -- This program may not be used in any manner that
 competes with the business of Gaussian, Inc. or will provide
 assistance to any competitor of Gaussian, Inc.  The licensee
 of this program is prohibited from giving any competitor of
 Gaussian, Inc. access to this program.  By using this program,
 the user acknowledges that Gaussian, Inc. is engaged in the
 business of creating and licensing software in the field of
 computational chemistry and represents and warrants to the
 licensee that it is not a competitor of Gaussian, Inc. and that
 it will not use this program in any manner prohibited above.
 ---------------------------------------------------------------
  

 Cite this work as:
 Gaussian 16, Revision A.03,
 M. J. Frisch, G. W. Trucks, H. B. Schlegel, G. E. Scuseria, 
 M. A. Robb, J. R. Cheeseman, G. Scalmani, V. Barone, 
 G. A. Petersson, H. Nakatsuji, X. Li, M. Caricato, A. V. Marenich, 
 J. Bloino, B. G. Janesko, R. Gomperts, B. Mennucci, H. P. Hratchian, 
 J. V. Ortiz, A. F. Izmaylov, J. L. Sonnenberg, D. Williams-Young, 
 F. Ding, F. Lipparini, F. Egidi, J. Goings, B. Peng, A. Petrone, 
 T. Henderson, D. Ranasinghe, V. G. Zakrzewski, J. Gao, N. Rega, 
 G. Zheng, W. Liang, M. Hada, M. Ehara, K. Toyota, R. Fukuda, 
 J. Hasegawa, M. Ishida, T. Nakajima, Y. Honda, O. Kitao, H. Nakai, 
 T. Vreven, K. Throssell, J. A. Montgomery, Jr., J. E. Peralta, 
 F. Ogliaro, M. J. Bearpark, J. J. Heyd, E. N. Brothers, K. N. Kudin, 
 V. N. Staroverov, T. A. Keith, R. Kobayashi, J. Normand, 
 K. Raghavachari, A. P. Rendell, J. C. Burant, S. S. Iyengar, 
 J. Tomasi, M. Cossi, J. M. Millam, M. Klene, C. Adamo, R. Cammi, 
 J. W. Ochterski, R. L. Martin, K. Morokuma, O. Farkas, 
 J. B. Foresman, and D. J. Fox, Gaussian, Inc., Wallingford CT, 2016.
 
 ******************************************
 Gaussian 16:  EM64L-G16RevA.03 25-Dec-2016
                 5-Mar-2020 
 ******************************************
 %mem=50GB
 %nproc=16
 Will use up to   16 processors via shared memory.
 ----------------------------------------------------------------------
 #P uLC-wHPBE/6-31G iop(3/130=0115300000, 3/131=0115300000, 3/119=08847
 00000, 3/120=0884700000) scf=(conver=6,fermi,ndamp=35,noincfock,novara
 cc,vshift=500,xqc)
 ----------------------------------------------------------------------
 1/38=1,172=1/1;
 2/12=2,17=6,18=5,40=1/2;
 3/5=1,6=6,11=2,25=1,30=1,74=-71,116=2,119=884700000,120=884700000,130=115300000,131=115300000/1,2,3;
 4//1;
 5/5=100002,6=6,8=3,10=500,13=1,18=-1,22=13,38=1,93=35/2,8;
 6/7=2,8=2,9=2,10=2,28=1/1;
 99/5=1,9=1/99;
 Leave Link    1 at Thu Mar  5 13:01:18 2020, MaxMem=  6710886400 cpu:              18.5 elap:               1.2
 (Enter /opt/ohpc/pub/libs/gaussian/g16-A.03/sandybridge/g16/l101.exe)
 -----
 H6 C5
 -----
 Symbolic Z-matrix:
 Charge =  1 Multiplicity = 2
 C                     0.        0.8788   -0.93154 
 C                     0.        1.12816   0.42346 
 C                     0.        0.        1.24088 
 C                     0.       -1.12816   0.42346 
 C                     0.       -0.8788   -0.93154 
 H                     0.        0.       -1.73227 
 H                     0.        1.6083   -1.73405 
 H                     0.        2.15663   0.76567 
 H                     0.        0.        2.32078 
 H                     0.       -2.15663   0.76567 
 H                     0.       -1.6083   -1.73405 
 
 ITRead=  0  0  0  0  0  0  0  0  0  0  0
 MicOpt= -1 -1 -1 -1 -1 -1 -1 -1 -1 -1 -1
 NAtoms=     11 NQM=       11 NQMF=       0 NMMI=      0 NMMIF=      0
                NMic=       0 NMicF=      0.
                    Isotopes and Nuclear Properties:
 (Nuclear quadrupole moments (NQMom) in fm**2, nuclear magnetic moments (NMagM)
  in nuclear magnetons)

  Atom         1           2           3           4           5           6           7           8           9          10
 IAtWgt=          12          12          12          12          12           1           1           1           1           1
 AtmWgt=  12.0000000  12.0000000  12.0000000  12.0000000  12.0000000   1.0078250   1.0078250   1.0078250   1.0078250   1.0078250
 NucSpn=           0           0           0           0           0           1           1           1           1           1
 AtZEff=  -0.0000000  -0.0000000  -0.0000000  -0.0000000  -0.0000000  -0.0000000  -0.0000000  -0.0000000  -0.0000000  -0.0000000
 NQMom=    0.0000000   0.0000000   0.0000000   0.0000000   0.0000000   0.0000000   0.0000000   0.0000000   0.0000000   0.0000000
 NMagM=    0.0000000   0.0000000   0.0000000   0.0000000   0.0000000   2.7928460   2.7928460   2.7928460   2.7928460   2.7928460
 AtZNuc=   6.0000000   6.0000000   6.0000000   6.0000000   6.0000000   1.0000000   1.0000000   1.0000000   1.0000000   1.0000000

  Atom        11
 IAtWgt=           1
 AtmWgt=   1.0078250
 NucSpn=           1
 AtZEff=  -0.0000000
 NQMom=    0.0000000
 NMagM=    2.7928460
 AtZNuc=   1.0000000
 Leave Link  101 at Thu Mar  5 13:01:18 2020, MaxMem=  6710886400 cpu:               2.8 elap:               0.2
 (Enter /opt/ohpc/pub/libs/gaussian/g16-A.03/sandybridge/g16/l202.exe)
                          Input orientation:                          
 ---------------------------------------------------------------------
 Center     Atomic      Atomic             Coordinates (Angstroms)
 Number     Number       Type             X           Y           Z
 ---------------------------------------------------------------------
      1          6           0        0.000000    0.878804   -0.931542
      2          6           0        0.000000    1.128157    0.423457
      3          6           0        0.000000    0.000000    1.240879
      4          6           0        0.000000   -1.128157    0.423457
      5          6           0        0.000000   -0.878804   -0.931542
      6          1           0        0.000000    0.000000   -1.732269
      7          1           0        0.000000    1.608300   -1.734053
      8          1           0        0.000000    2.156626    0.765670
      9          1           0        0.000000    0.000000    2.320778
     10          1           0        0.000000   -2.156626    0.765670
     11          1           0        0.000000   -1.608300   -1.734053
 ---------------------------------------------------------------------
                    Distance matrix (angstroms):
                    1          2          3          4          5
     1  C    0.000000
     2  C    1.377752   0.000000
     3  C    2.343440   1.393168   0.000000
     4  C    2.421552   2.256314   1.393168   0.000000
     5  C    1.757608   2.421552   2.343440   1.377752   0.000000
     6  H    1.188890   2.433083   2.973148   2.433083   1.188890
     7  H    1.084522   2.210291   3.381841   3.484687   2.613371
     8  H    2.124466   1.083909   2.208361   3.302561   3.477695
     9  H    3.368959   2.207389   1.079899   2.207389   3.368959
    10  H    3.477695   3.302561   2.208361   1.083909   2.124466
    11  H    2.613371   3.484687   3.381841   2.210291   1.084522
                    6          7          8          9         10
     6  H    0.000000
     7  H    1.608301   0.000000
     8  H    3.300111   2.559155   0.000000
     9  H    4.053047   4.362142   2.658834   0.000000
    10  H    3.300111   4.519213   4.313252   2.658834   0.000000
    11  H    1.608301   3.216600   4.519213   4.362142   2.559155
                   11
    11  H    0.000000
 Stoichiometry    C5H6(1+,2)
 Framework group  C2V[C2(HCH),SGV(C4H4)]
 Deg. of freedom    10
 Full point group                 C2V     NOp   4
 Largest Abelian subgroup         C2V     NOp   4
 Largest concise Abelian subgroup C2      NOp   2
                         Standard orientation:                         
 ---------------------------------------------------------------------
 Center     Atomic      Atomic             Coordinates (Angstroms)
 Number     Number       Type             X           Y           Z
 ---------------------------------------------------------------------
      1          6           0        0.000000    0.878804   -0.931542
      2          6           0        0.000000    1.128157    0.423457
      3          6           0        0.000000   -0.000000    1.240879
      4          6           0       -0.000000   -1.128157    0.423457
      5          6           0       -0.000000   -0.878804   -0.931542
      6          1           0       -0.000000    0.000000   -1.732269
      7          1           0        0.000000    1.608300   -1.734053
      8          1           0        0.000000    2.156626    0.765670
      9          1           0        0.000000   -0.000000    2.320778
     10          1           0       -0.000000   -2.156626    0.765670
     11          1           0       -0.000000   -1.608300   -1.734053
 ---------------------------------------------------------------------
 Rotational constants (GHZ):           8.5259551           7.9375455           4.1106177
 Leave Link  202 at Thu Mar  5 13:01:18 2020, MaxMem=  6710886400 cpu:               0.5 elap:               0.1
 (Enter /opt/ohpc/pub/libs/gaussian/g16-A.03/sandybridge/g16/l301.exe)
 Standard basis: 6-31G (6D, 7F)
 Ernie: Thresh=  0.10000D-02 Tol=  0.10000D-05 Strict=F.
 There are    27 symmetry adapted cartesian basis functions of A1  symmetry.
 There are     4 symmetry adapted cartesian basis functions of A2  symmetry.
 There are     6 symmetry adapted cartesian basis functions of B1  symmetry.
 There are    20 symmetry adapted cartesian basis functions of B2  symmetry.
 There are    27 symmetry adapted basis functions of A1  symmetry.
 There are     4 symmetry adapted basis functions of A2  symmetry.
 There are     6 symmetry adapted basis functions of B1  symmetry.
 There are    20 symmetry adapted basis functions of B2  symmetry.
    57 basis functions,   134 primitive gaussians,    57 cartesian basis functions
    18 alpha electrons       17 beta electrons
       nuclear repulsion energy       156.0127424860 Hartrees.
 IExCor=33909 DFT=T Ex+Corr=LC-wHPBE ExCW=0 ScaHFX=  1.000000
 ScaDFX=  1.000000  1.000000  1.000000  1.000000 ScalE2=  1.000000  1.000000
 IRadAn=      5 IRanWt=     -1 IRanGd=            0 ICorTp=0 IEmpDi=  4
 HFx  wShort=  0.000000 wLong=  0.400000 cFull=  0.000000 cShort=  0.000000 cLong=  0.884700
 DFx  wShort=  0.000000 wLong=  0.400000 cFull=  0.000000 cShort=  1.000000 cLong=  0.884700
 NAtoms=   11 NActive=   11 NUniq=    7 SFac= 2.47D+00 NAtFMM=   60 NAOKFM=F Big=F
 Integral buffers will be    131072 words long.
 Raffenetti 2 integral format.
 Two-electron integral symmetry is turned on.
 Leave Link  301 at Thu Mar  5 13:01:18 2020, MaxMem=  6710886400 cpu:               1.0 elap:               0.1
 (Enter /opt/ohpc/pub/libs/gaussian/g16-A.03/sandybridge/g16/l302.exe)
 NPDir=0 NMtPBC=     1 NCelOv=     1 NCel=       1 NClECP=     1 NCelD=      1
         NCelK=      1 NCelE2=     1 NClLst=     1 CellRange=     0.0.
 One-electron integrals computed using PRISM.
 One-electron integral symmetry used in STVInt
 NBasis=    57 RedAO= T EigKep=  1.84D-03  NBF=    27     4     6    20
 NBsUse=    57 1.00D-06 EigRej= -1.00D+00 NBFU=    27     4     6    20
 Precomputing XC quadrature grid using
 IXCGrd= 4 IRadAn=           5 IRanWt=          -1 IRanGd=           0 AccXCQ= 0.00D+00.
 Generated NRdTot=       0 NPtTot=           0 NUsed=           0 NTot=          32
 NSgBfM=    57    57    57    57    57 MxSgAt=    11 MxSgA2=    11.
 Leave Link  302 at Thu Mar  5 13:01:18 2020, MaxMem=  6710886400 cpu:               2.2 elap:               0.2
 (Enter /opt/ohpc/pub/libs/gaussian/g16-A.03/sandybridge/g16/l303.exe)
 DipDrv:  MaxL=1.
 Leave Link  303 at Thu Mar  5 13:01:18 2020, MaxMem=  6710886400 cpu:               0.5 elap:               0.1
 (Enter /opt/ohpc/pub/libs/gaussian/g16-A.03/sandybridge/g16/l401.exe)
 ExpMin= 1.61D-01 ExpMax= 3.05D+03 ExpMxC= 4.57D+02 IAcc=3 IRadAn=         5 AccDes= 0.00D+00
 Harris functional with IExCor=33909 and IRadAn=       5 diagonalized for initial guess.
 HarFok:  IExCor=33909 AccDes= 0.00D+00 IRadAn=         5 IDoV= 1 UseB2=F ITyADJ=14
 ICtDFT=  3500011 ScaDFX=  1.000000  1.000000  1.000000  1.000000
 FoFCou: FMM=F IPFlag=           0 FMFlag=      100000 FMFlg1=           0
         NFxFlg=           0 DoJE=T BraDBF=F KetDBF=T FulRan=T
         wScrn=  0.000000 ICntrl=       500 IOpCl=  0 I1Cent=   200000004 NGrid=           0
         NMat0=    1 NMatS0=      1 NMatT0=    0 NMatD0=    1 NMtDS0=    0 NMtDT0=    0
 Petite list used in FoFCou.
 Harris En= -192.702617349830    
 JPrj=0 DoOrth=F DoCkMO=F.
 Initial guess orbital symmetries:
 Alpha Orbitals:
       Occupied  (A1) (B2) (A1) (B2) (A1) (A1) (A1) (B2) (A1) (B2)
                 (A1) (B2) (A1) (B2) (A1) (B1) (A2) (B1)
       Virtual   (A2) (B2) (B1) (A1) (A1) (B2) (A1) (B2) (A1) (B2)
                 (A1) (B2) (A1) (B2) (B1) (A1) (A2) (B1) (B2) (A1)
                 (A1) (A2) (B1) (B2) (B2) (A1) (B2) (A1) (A1) (B2)
                 (A1) (A1) (A1) (B2) (A1) (B2) (A1) (A1) (B2)
 Beta  Orbitals:
       Occupied  (A1) (B2) (A1) (B2) (A1) (A1) (A1) (B2) (A1) (B2)
                 (A1) (B2) (A1) (B2) (A1) (B1) (A2)
       Virtual   (B1) (A2) (B2) (B1) (A1) (A1) (B2) (A1) (B2) (A1)
                 (B2) (A1) (B2) (A1) (B2) (B1) (A1) (A2) (B1) (B2)
                 (A1) (A1) (A2) (B1) (B2) (B2) (A1) (B2) (A1) (A1)
                 (B2) (A1) (A1) (A1) (B2) (A1) (B2) (A1) (A1) (B2)
 The electronic state of the initial guess is 2-B1.
 Initial guess <Sx>= 0.0000 <Sy>= 0.0000 <Sz>= 0.5000 <S**2>= 0.7500 S= 0.5000
 Leave Link  401 at Thu Mar  5 13:01:19 2020, MaxMem=  6710886400 cpu:               3.0 elap:               0.2
 (Enter /opt/ohpc/pub/libs/gaussian/g16-A.03/sandybridge/g16/l502.exe)
 Keep R1 and R2 ints in memory in symmetry-blocked form, NReq=16815681.
 FoFCou: FMM=F IPFlag=           0 FMFlag=           0 FMFlg1=           0
         NFxFlg=           0 DoJE=F BraDBF=F KetDBF=F FulRan=T
         wScrn=  0.000000 ICntrl=       600 IOpCl=  0 I1Cent=           0 NGrid=           0
         NMat0=    1 NMatS0=   1653 NMatT0=    0 NMatD0=    1 NMtDS0=    0 NMtDT0=    0
 Petite list used in FoFCou.
 UHF open shell SCF:
 Using DIIS extrapolation, IDIIS=    10.
 NGot=  6710886400 LenX=  6710059561 LenY=  6710055871
 Requested convergence on RMS density matrix=1.00D-06 within  32 cycles.
 Requested convergence on MAX density matrix=1.00D-04.
 Requested convergence on             energy=1.00D-04.
 Virtual orbitals will be shifted by   0.500 hartree.
 No special actions if energy rises.
 Dynamic level shift is on during FON iterations.

 Cycle   1  Pass 1  IDiag  1:
 E= -198.674914500378    
 DIIS: error= 4.90D-02 at cycle   1 NSaved=   1.
 NSaved= 1 IEnMin= 1 EnMin= -198.674914500378     IErMin= 1 ErrMin= 4.90D-02
 ErrMax= 4.90D-02  0.00D+00 EMaxC= 1.00D+00 BMatC= 1.97D-01 BMatP= 1.97D-01
 IDIUse=1 WtCom= 1.00D+00 WtEn= 0.00D+00
 Coeff-Com:  0.100D+01
 Coeff:      0.100D+01
 Gap=     0.363 Goal=   None    Shift=    0.500
 T= 1791. Gap= 0.835 NK=0 IS=   19 IE=   57 IFin=   18
          NO(<0.9)=   0  NV(>0.1)=   0     18.00e < EF      0.00e >EF  Err=0.0D+00
 Gap=     0.238 Goal=   None    Shift=    0.500
 T= 1791. Gap= 0.740 NK=0 IS=   18 IE=   57 IFin=   17
          NO(<0.9)=   0  NV(>0.1)=   0     17.00e < EF      0.00e >EF  Err=0.0D+00
 GapD=    0.238 DampG=1.000 DampE=0.500 DampFc=0.5000 IDamp=-1.
 Damping current iteration by 5.00D-01
 RMSDP=6.99D-03 MaxDP=5.38D-02              OVMax= 1.04D-01

 Cycle   2  Pass 1  IDiag  1:
 E= -198.712234464775     Delta-E=       -0.037319964397 Rises=F Damp=T
 DIIS: error= 2.44D-02 at cycle   2 NSaved=   2.
 NSaved= 2 IEnMin= 2 EnMin= -198.712234464775     IErMin= 2 ErrMin= 2.44D-02
 ErrMax= 2.44D-02  0.00D+00 EMaxC= 1.00D+00 BMatC= 3.67D-02 BMatP= 1.97D-01
 IDIUse=1 WtCom= 1.00D+00 WtEn= 0.00D+00
 Coeff-Com: -0.576D+00 0.158D+01
 Coeff:     -0.576D+00 0.158D+01
 Gap=     0.429 Goal=   None    Shift=    0.500
 T= 1681. Gap= 0.915 NK=4 IS=   19 IE=   23 IFin=   18
          NO(<0.9)=   0  NV(>0.1)=   0     18.00e < EF      0.00e >EF  Err=0.0D+00
 Gap=     0.266 Goal=   None    Shift=    0.500
 T= 1681. Gap= 0.765 NK=4 IS=   18 IE=   23 IFin=   17
          NO(<0.9)=   0  NV(>0.1)=   0     17.00e < EF      0.00e >EF  Err=0.0D+00
 GapD=    0.266 DampG=1.000 DampE=0.500 DampFc=0.5000 IDamp=-1.
 Damping current iteration by 5.00D-01
 RMSDP=4.40D-03 MaxDP=3.40D-02 DE=-3.73D-02 OVMax= 1.86D-02

 Cycle   3  Pass 1  IDiag  1:
 E= -198.726077475778     Delta-E=       -0.013843011003 Rises=F Damp=T
 DIIS: error= 1.46D-02 at cycle   3 NSaved=   3.
 NSaved= 3 IEnMin= 3 EnMin= -198.726077475778     IErMin= 3 ErrMin= 1.46D-02
 ErrMax= 1.46D-02  0.00D+00 EMaxC= 1.00D+00 BMatC= 9.27D-03 BMatP= 3.67D-02
 IDIUse=1 WtCom= 1.00D+00 WtEn= 0.00D+00
 Coeff-Com:  0.330D+00-0.188D+01 0.255D+01
 Coeff:      0.330D+00-0.188D+01 0.255D+01
 Gap=     0.419 Goal=   None    Shift=    0.500
 T= 1482. Gap= 0.919 NK=0 IS=   19 IE=   57 IFin=   18
          NO(<0.9)=   0  NV(>0.1)=   0     18.00e < EF      0.00e >EF  Err=0.0D+00
 Gap=     0.271 Goal=   None    Shift=    0.500
 T= 1482. Gap= 0.772 NK=0 IS=   18 IE=   57 IFin=   17
          NO(<0.9)=   0  NV(>0.1)=   0     17.00e < EF      0.00e >EF  Err=0.0D+00
 GapD=    0.271 DampG=1.000 DampE=0.500 DampFc=0.5000 IDamp=-1.
 Damping current iteration by 5.00D-01
 RMSDP=2.57D-03 MaxDP=2.06D-02 DE=-1.38D-02 OVMax= 1.76D-02

 Cycle   4  Pass 1  IDiag  1:
 E= -198.732873905333     Delta-E=       -0.006796429555 Rises=F Damp=T
 DIIS: error= 9.67D-03 at cycle   4 NSaved=   4.
 NSaved= 4 IEnMin= 4 EnMin= -198.732873905333     IErMin= 4 ErrMin= 9.67D-03
 ErrMax= 9.67D-03  0.00D+00 EMaxC= 1.00D+00 BMatC= 3.34D-03 BMatP= 9.27D-03
 IDIUse=1 WtCom= 1.00D+00 WtEn= 0.00D+00
 Coeff-Com:  0.972D-02 0.858D+00-0.387D+01 0.400D+01
 Coeff:      0.972D-02 0.858D+00-0.387D+01 0.400D+01
 Gap=     0.425 Goal=   None    Shift=    0.500
 T= 1126. Gap= 0.925 NK=0 IS=   19 IE=   57 IFin=   18
          NO(<0.9)=   0  NV(>0.1)=   0     18.00e < EF      0.00e >EF  Err=0.0D+00
 Gap=     0.277 Goal=   None    Shift=    0.500
 T= 1126. Gap= 0.778 NK=0 IS=   18 IE=   57 IFin=   17
          NO(<0.9)=   0  NV(>0.1)=   0     17.00e < EF      0.00e >EF  Err=0.0D+00
 GapD=    0.277 DampG=1.000 DampE=1.000 DampFc=1.0000 IDamp=-1.
 RMSDP=1.67D-03 MaxDP=1.73D-02 DE=-6.80D-03 OVMax= 1.75D-02

 Cycle   5  Pass 1  IDiag  1:
 E= -198.741186686915     Delta-E=       -0.008312781582 Rises=F Damp=F
 DIIS: error= 4.77D-03 at cycle   5 NSaved=   5.
 NSaved= 5 IEnMin= 5 EnMin= -198.741186686915     IErMin= 5 ErrMin= 4.77D-03
 ErrMax= 4.77D-03  0.00D+00 EMaxC= 1.00D+00 BMatC= 5.61D-04 BMatP= 3.34D-03
 IDIUse=1 WtCom= 1.00D+00 WtEn= 0.00D+00
 Coeff-Com: -0.198D+00 0.969D+00-0.706D+00-0.105D+01 0.198D+01
 Coeff:     -0.198D+00 0.969D+00-0.706D+00-0.105D+01 0.198D+01
 Gap=     0.428 Goal=   None    Shift=    0.500
 T=  817. Gap= 0.929 NK=0 IS=   19 IE=   57 IFin=   18
          NO(<0.9)=   0  NV(>0.1)=   0     18.00e < EF      0.00e >EF  Err=0.0D+00
 Gap=     0.282 Goal=   None    Shift=    0.500
 T=  817. Gap= 0.782 NK=0 IS=   18 IE=   57 IFin=   17
          NO(<0.9)=   0  NV(>0.1)=   0     17.00e < EF      0.00e >EF  Err=0.0D+00
 GapD=    0.282 DampG=1.000 DampE=1.000 DampFc=1.0000 IDamp=-1.
 RMSDP=5.04D-04 MaxDP=8.12D-03 DE=-8.31D-03 OVMax= 1.79D-02

 Cycle   6  Pass 1  IDiag  1:
 E= -198.742029520587     Delta-E=       -0.000842833672 Rises=F Damp=F
 DIIS: error= 3.72D-03 at cycle   6 NSaved=   6.
 NSaved= 6 IEnMin= 6 EnMin= -198.742029520587     IErMin= 6 ErrMin= 3.72D-03
 ErrMax= 3.72D-03  0.00D+00 EMaxC= 1.00D+00 BMatC= 2.65D-04 BMatP= 5.61D-04
 IDIUse=1 WtCom= 1.00D+00 WtEn= 0.00D+00
 Coeff-Com:  0.666D-02-0.310D+00 0.865D+00-0.541D+00-0.173D+01 0.271D+01
 Coeff:      0.666D-02-0.310D+00 0.865D+00-0.541D+00-0.173D+01 0.271D+01
 Gap=     0.432 Goal=   None    Shift=    0.500
 T=  536. Gap= 0.932 NK=0 IS=   19 IE=   57 IFin=   18
          NO(<0.9)=   0  NV(>0.1)=   0     18.00e < EF      0.00e >EF  Err=0.0D+00
 Gap=     0.285 Goal=   None    Shift=    0.500
 T=  536. Gap= 0.785 NK=0 IS=   18 IE=   57 IFin=   17
          NO(<0.9)=   0  NV(>0.1)=   0     17.00e < EF      0.00e >EF  Err=0.0D+00
 GapD=    0.285 DampG=1.000 DampE=1.000 DampFc=1.0000 IDamp=-1.
 RMSDP=4.12D-04 MaxDP=6.59D-03 DE=-8.43D-04 OVMax= 1.64D-02

 Cycle   7  Pass 1  IDiag  1:
 E= -198.742519143581     Delta-E=       -0.000489622994 Rises=F Damp=F
 DIIS: error= 2.76D-03 at cycle   7 NSaved=   7.
 NSaved= 7 IEnMin= 7 EnMin= -198.742519143581     IErMin= 7 ErrMin= 2.76D-03
 ErrMax= 2.76D-03  0.00D+00 EMaxC= 1.00D+00 BMatC= 1.23D-04 BMatP= 2.65D-04
 IDIUse=1 WtCom= 1.00D+00 WtEn= 0.00D+00
 Coeff-Com:  0.177D-01-0.514D-01-0.205D+00 0.479D+00-0.255D+00-0.140D+01
 Coeff-Com:  0.241D+01
 Coeff:      0.177D-01-0.514D-01-0.205D+00 0.479D+00-0.255D+00-0.140D+01
 Coeff:      0.241D+01
 Gap=     0.432 Goal=   None    Shift=    0.500
 T=  248. Gap= 0.932 NK=0 IS=   19 IE=   57 IFin=   18
          NO(<0.9)=   0  NV(>0.1)=   0     18.00e < EF      0.00e >EF  Err=0.0D+00
 Gap=     0.287 Goal=   None    Shift=    0.500
 T=  248. Gap= 0.787 NK=0 IS=   18 IE=   57 IFin=   17
          NO(<0.9)=   0  NV(>0.1)=   0     17.00e < EF      0.00e >EF  Err=0.0D+00
 GapD=    0.287 DampG=1.000 DampE=1.000 DampFc=1.0000 IDamp=-1.
 RMSDP=2.89D-04 MaxDP=4.34D-03 DE=-4.90D-04 OVMax= 1.25D-02

 Cycle   8  Pass 1  IDiag  1:
 E= -198.742750309731     Delta-E=       -0.000231166150 Rises=F Damp=F
 DIIS: error= 2.01D-03 at cycle   8 NSaved=   8.
 NSaved= 8 IEnMin= 8 EnMin= -198.742750309731     IErMin= 8 ErrMin= 2.01D-03
 ErrMax= 2.01D-03  0.00D+00 EMaxC= 1.00D+00 BMatC= 6.28D-05 BMatP= 1.23D-04
 IDIUse=1 WtCom= 1.00D+00 WtEn= 0.00D+00
 Coeff-Com: -0.180D-01 0.317D+00-0.849D+00 0.554D+00 0.140D+01-0.274D+01
 Coeff-Com: -0.564D-01 0.240D+01
 Coeff:     -0.180D-01 0.317D+00-0.849D+00 0.554D+00 0.140D+01-0.274D+01
 Coeff:     -0.564D-01 0.240D+01
 Gap=     0.433 Goal=   None    Shift=    0.500
 T=   80. Gap= 0.934 NK=0 IS=   19 IE=   57 IFin=   18
          NO(<0.9)=   0  NV(>0.1)=   0     18.00e < EF      0.00e >EF  Err=0.0D+00
 Gap=     0.287 Goal=   None    Shift=    0.500
 T=   80. Gap= 0.787 NK=0 IS=   18 IE=   57 IFin=   17
          NO(<0.9)=   0  NV(>0.1)=   0     17.00e < EF      0.00e >EF  Err=0.0D+00
 GapD=    0.287 DampG=1.000 DampE=1.000 DampFc=1.0000 IDamp=-1.
 RMSDP=2.41D-04 MaxDP=3.49D-03 DE=-2.31D-04 OVMax= 1.09D-02

 Cycle   9  Pass 1  IDiag  1:
 E= -198.742879834781     Delta-E=       -0.000129525050 Rises=F Damp=F
 DIIS: error= 1.38D-03 at cycle   9 NSaved=   9.
 NSaved= 9 IEnMin= 9 EnMin= -198.742879834781     IErMin= 9 ErrMin= 1.38D-03
 ErrMax= 1.38D-03  0.00D+00 EMaxC= 1.00D+00 BMatC= 2.87D-05 BMatP= 6.28D-05
 IDIUse=1 WtCom= 1.00D+00 WtEn= 0.00D+00
 Coeff-Com:  0.511D-02-0.189D+00 0.698D+00-0.668D+00-0.643D+00 0.236D+01
 Coeff-Com: -0.121D+01-0.350D+01 0.415D+01
 Coeff:      0.511D-02-0.189D+00 0.698D+00-0.668D+00-0.643D+00 0.236D+01
 Coeff:     -0.121D+01-0.350D+01 0.415D+01
 Gap=     0.434 Goal=   None    Shift=    0.500
 Gap=     0.288 Goal=   None    Shift=    0.500
 GapD=    0.288 DampG=1.000 DampE=1.000 DampFc=1.0000 IDamp=-1.
 RMSDP=1.98D-04 MaxDP=3.14D-03 DE=-1.30D-04 OVMax= 9.52D-03

 Cycle  10  Pass 1  IDiag  1:
 E= -198.742949886670     Delta-E=       -0.000070051888 Rises=F Damp=F
 DIIS: error= 8.45D-04 at cycle  10 NSaved=  10.
 NSaved=10 IEnMin=10 EnMin= -198.742949886670     IErMin=10 ErrMin= 8.45D-04
 ErrMax= 8.45D-04  0.00D+00 EMaxC= 1.00D+00 BMatC= 1.18D-05 BMatP= 2.87D-05
 IDIUse=1 WtCom= 1.00D+00 WtEn= 0.00D+00
 Coeff-Com:  0.313D-02 0.553D-02-0.481D-01 0.560D-01 0.427D-01-0.221D+00
 Coeff-Com:  0.355D+00 0.932D-01-0.190D+01 0.262D+01
 Coeff:      0.313D-02 0.553D-02-0.481D-01 0.560D-01 0.427D-01-0.221D+00
 Coeff:      0.355D+00 0.932D-01-0.190D+01 0.262D+01
 Gap=     0.434 Goal=   None    Shift=    0.500
 Gap=     0.288 Goal=   None    Shift=    0.500
 RMSDP=1.19D-04 MaxDP=1.95D-03 DE=-7.01D-05 OVMax= 5.94D-03

 Cycle  11  Pass 1  IDiag  1:
 E= -198.742976567312     Delta-E=       -0.000026680643 Rises=F Damp=F
 DIIS: error= 5.17D-04 at cycle  11 NSaved=  11.
 NSaved=11 IEnMin=11 EnMin= -198.742976567312     IErMin=11 ErrMin= 5.17D-04
 ErrMax= 5.17D-04  0.00D+00 EMaxC= 1.00D+00 BMatC= 5.18D-06 BMatP= 1.18D-05
 IDIUse=1 WtCom= 1.00D+00 WtEn= 0.00D+00
 Coeff-Com: -0.439D-04-0.441D-01 0.201D+00-0.225D+00-0.831D-01 0.638D+00
 Coeff-Com: -0.665D+00-0.850D+00 0.353D+01-0.647D+01 0.497D+01
 Coeff:     -0.439D-04-0.441D-01 0.201D+00-0.225D+00-0.831D-01 0.638D+00
 Coeff:     -0.665D+00-0.850D+00 0.353D+01-0.647D+01 0.497D+01
 Gap=     0.434 Goal=   None    Shift=    0.500
 Gap=     0.288 Goal=   None    Shift=    0.500
 RMSDP=8.09D-05 MaxDP=1.27D-03 DE=-2.67D-05 OVMax= 4.11D-03

 Cycle  12  Pass 1  IDiag  1:
 E= -198.742988051745     Delta-E=       -0.000011484433 Rises=F Damp=F
 DIIS: error= 2.97D-04 at cycle  12 NSaved=  12.
 NSaved=12 IEnMin=12 EnMin= -198.742988051745     IErMin=12 ErrMin= 2.97D-04
 ErrMax= 2.97D-04  0.00D+00 EMaxC= 1.00D+00 BMatC= 1.93D-06 BMatP= 5.18D-06
 IDIUse=1 WtCom= 1.00D+00 WtEn= 0.00D+00
 Coeff-Com:  0.897D-03-0.275D-01 0.101D+00-0.975D-01-0.831D-01 0.312D+00
 Coeff-Com: -0.824D-01-0.580D+00 0.471D+00 0.738D+00-0.264D+01 0.289D+01
 Coeff:      0.897D-03-0.275D-01 0.101D+00-0.975D-01-0.831D-01 0.312D+00
 Coeff:     -0.824D-01-0.580D+00 0.471D+00 0.738D+00-0.264D+01 0.289D+01
 Gap=     0.434 Goal=   None    Shift=    0.500
 Gap=     0.288 Goal=   None    Shift=    0.500
 RMSDP=4.89D-05 MaxDP=7.44D-04 DE=-1.15D-05 OVMax= 2.48D-03

 Cycle  13  Pass 1  IDiag  1:
 E= -198.742992170951     Delta-E=       -0.000004119206 Rises=F Damp=F
 DIIS: error= 1.67D-04 at cycle  13 NSaved=  13.
 NSaved=13 IEnMin=13 EnMin= -198.742992170951     IErMin=13 ErrMin= 1.67D-04
 ErrMax= 1.67D-04  0.00D+00 EMaxC= 1.00D+00 BMatC= 7.04D-07 BMatP= 1.93D-06
 IDIUse=1 WtCom= 1.00D+00 WtEn= 0.00D+00
 Coeff-Com:  0.408D-03 0.645D-03 0.375D-02-0.124D-01 0.313D-01-0.488D-02
 Coeff-Com: -0.123D+00 0.916D-01 0.614D+00-0.207D+01 0.357D+01-0.527D+01
 Coeff-Com:  0.417D+01
 Coeff:      0.408D-03 0.645D-03 0.375D-02-0.124D-01 0.313D-01-0.488D-02
 Coeff:     -0.123D+00 0.916D-01 0.614D+00-0.207D+01 0.357D+01-0.527D+01
 Coeff:      0.417D+01
 Gap=     0.434 Goal=   None    Shift=    0.500
 Gap=     0.288 Goal=   None    Shift=    0.500
 RMSDP=2.95D-05 MaxDP=4.50D-04 DE=-4.12D-06 OVMax= 1.50D-03

 Cycle  14  Pass 1  IDiag  1:
 E= -198.742993616225     Delta-E=       -0.000001445274 Rises=F Damp=F
 DIIS: error= 8.87D-05 at cycle  14 NSaved=  14.
 NSaved=14 IEnMin=14 EnMin= -198.742993616225     IErMin=14 ErrMin= 8.87D-05
 ErrMax= 8.87D-05  0.00D+00 EMaxC= 1.00D+00 BMatC= 2.59D-07 BMatP= 7.04D-07
 IDIUse=1 WtCom= 1.00D+00 WtEn= 0.00D+00
 Coeff-Com:  0.455D-03-0.993D-02 0.393D-01-0.416D-01-0.215D-01 0.106D+00
 Coeff-Com: -0.422D-01-0.199D+00 0.374D+00-0.352D+00-0.325D+00 0.180D+01
 Coeff-Com: -0.358D+01 0.325D+01
 Coeff:      0.455D-03-0.993D-02 0.393D-01-0.416D-01-0.215D-01 0.106D+00
 Coeff:     -0.422D-01-0.199D+00 0.374D+00-0.352D+00-0.325D+00 0.180D+01
 Coeff:     -0.358D+01 0.325D+01
 Gap=     0.434 Goal=   None    Shift=    0.500
 Gap=     0.288 Goal=   None    Shift=    0.500
 RMSDP=1.67D-05 MaxDP=2.52D-04 DE=-1.45D-06 OVMax= 8.64D-04

 Cycle  15  Pass 1  IDiag  1:
 E= -198.742994087322     Delta-E=       -0.000000471097 Rises=F Damp=F
 DIIS: error= 4.65D-05 at cycle  15 NSaved=  15.
 NSaved=15 IEnMin=15 EnMin= -198.742994087322     IErMin=15 ErrMin= 4.65D-05
 ErrMax= 4.65D-05  0.00D+00 EMaxC= 1.00D+00 BMatC= 8.76D-08 BMatP= 2.59D-07
 IDIUse=1 WtCom= 1.00D+00 WtEn= 0.00D+00
 Coeff-Com: -0.187D-03 0.365D-02-0.141D-01 0.150D-01 0.859D-02-0.385D-01
 Coeff-Com:  0.117D-01 0.840D-01-0.132D+00 0.812D-01 0.291D+00-0.140D+01
 Coeff-Com:  0.310D+01-0.494D+01 0.394D+01
 Coeff:     -0.187D-03 0.365D-02-0.141D-01 0.150D-01 0.859D-02-0.385D-01
 Coeff:      0.117D-01 0.840D-01-0.132D+00 0.812D-01 0.291D+00-0.140D+01
 Coeff:      0.310D+01-0.494D+01 0.394D+01
 Gap=     0.434 Goal=   None    Shift=    0.500
 Gap=     0.288 Goal=   None    Shift=    0.500
 RMSDP=9.06D-06 MaxDP=1.30D-04 DE=-4.71D-07 OVMax= 4.71D-04

 Cycle  16  Pass 1  IDiag  1:
 E= -198.742994229542     Delta-E=       -0.000000142220 Rises=F Damp=F
 DIIS: error= 2.69D-05 at cycle  16 NSaved=  16.
 NSaved=16 IEnMin=16 EnMin= -198.742994229542     IErMin=16 ErrMin= 2.69D-05
 ErrMax= 2.69D-05  0.00D+00 EMaxC= 1.00D+00 BMatC= 2.91D-08 BMatP= 8.76D-08
 IDIUse=1 WtCom= 1.00D+00 WtEn= 0.00D+00
 Coeff-Com:  0.696D-04-0.817D-03 0.530D-02-0.769D-02 0.440D-02 0.228D-02
 Coeff-Com: -0.164D-03-0.266D-01 0.102D+00-0.216D+00 0.194D+00 0.885D-01
 Coeff-Com: -0.868D+00 0.232D+01-0.409D+01 0.349D+01
 Coeff:      0.696D-04-0.817D-03 0.530D-02-0.769D-02 0.440D-02 0.228D-02
 Coeff:     -0.164D-03-0.266D-01 0.102D+00-0.216D+00 0.194D+00 0.885D-01
 Coeff:     -0.868D+00 0.232D+01-0.409D+01 0.349D+01
 Gap=     0.434 Goal=   None    Shift=    0.500
 Gap=     0.288 Goal=   None    Shift=    0.500
 RMSDP=4.78D-06 MaxDP=6.49D-05 DE=-1.42D-07 OVMax= 2.49D-04

 Cycle  17  Pass 1  IDiag  1:
 E= -198.742994271317     Delta-E=       -0.000000041775 Rises=F Damp=F
 DIIS: error= 1.57D-05 at cycle  17 NSaved=  17.
 NSaved=17 IEnMin=17 EnMin= -198.742994271317     IErMin=17 ErrMin= 1.57D-05
 ErrMax= 1.57D-05  0.00D+00 EMaxC= 1.00D+00 BMatC= 9.23D-09 BMatP= 2.91D-08
 IDIUse=1 WtCom= 1.00D+00 WtEn= 0.00D+00
 Coeff-Com: -0.230D-04 0.782D-03-0.429D-02 0.566D-02-0.942D-03-0.800D-02
 Coeff-Com:  0.719D-02 0.205D-01-0.655D-01 0.111D+00-0.582D-01-0.198D+00
 Coeff-Com:  0.739D+00-0.170D+01 0.297D+01-0.446D+01 0.364D+01
 Coeff:     -0.230D-04 0.782D-03-0.429D-02 0.566D-02-0.942D-03-0.800D-02
 Coeff:      0.719D-02 0.205D-01-0.655D-01 0.111D+00-0.582D-01-0.198D+00
 Coeff:      0.739D+00-0.170D+01 0.297D+01-0.446D+01 0.364D+01
 Gap=     0.434 Goal=   None    Shift=    0.500
 Gap=     0.288 Goal=   None    Shift=    0.500
 RMSDP=2.46D-06 MaxDP=3.28D-05 DE=-4.18D-08 OVMax= 1.29D-04

 Cycle  18  Pass 1  IDiag  1:
 E= -198.742994283357     Delta-E=       -0.000000012040 Rises=F Damp=F
 DIIS: error= 9.13D-06 at cycle  18 NSaved=  18.
 NSaved=18 IEnMin=18 EnMin= -198.742994283357     IErMin=18 ErrMin= 9.13D-06
 ErrMax= 9.13D-06  0.00D+00 EMaxC= 1.00D+00 BMatC= 2.87D-09 BMatP= 9.23D-09
 IDIUse=1 WtCom= 1.00D+00 WtEn= 0.00D+00
 Coeff-Com: -0.220D-04 0.366D-03-0.781D-03 0.257D-03 0.263D-02-0.637D-02
 Coeff-Com:  0.403D-02 0.324D-02 0.268D-02-0.251D-01 0.466D-01-0.549D-01
 Coeff-Com:  0.797D-02 0.166D+00-0.626D+00 0.164D+01-0.349D+01 0.333D+01
 Coeff:     -0.220D-04 0.366D-03-0.781D-03 0.257D-03 0.263D-02-0.637D-02
 Coeff:      0.403D-02 0.324D-02 0.268D-02-0.251D-01 0.466D-01-0.549D-01
 Coeff:      0.797D-02 0.166D+00-0.626D+00 0.164D+01-0.349D+01 0.333D+01
 Gap=     0.434 Goal=   None    Shift=    0.500
 Gap=     0.288 Goal=   None    Shift=    0.500
 RMSDP=1.24D-06 MaxDP=1.71D-05 DE=-1.20D-08 OVMax= 6.55D-05

 Cycle  19  Pass 1  IDiag  1:
 E= -198.742994286831     Delta-E=       -0.000000003474 Rises=F Damp=F
 DIIS: error= 5.31D-06 at cycle  19 NSaved=  19.
 NSaved=19 IEnMin=19 EnMin= -198.742994286831     IErMin=19 ErrMin= 5.31D-06
 ErrMax= 5.31D-06  0.00D+00 EMaxC= 1.00D+00 BMatC= 8.51D-10 BMatP= 2.87D-09
 IDIUse=1 WtCom= 1.00D+00 WtEn= 0.00D+00
 Coeff-Com: -0.125D-04 0.273D-03-0.102D-02 0.105D-02 0.674D-03-0.337D-02
 Coeff-Com:  0.296D-02 0.383D-02-0.113D-01 0.145D-01-0.672D-02-0.126D-01
 Coeff-Com:  0.362D-01-0.686D-01 0.129D+00-0.429D+00 0.122D+01-0.279D+01
 Coeff-Com:  0.292D+01
 Coeff:     -0.125D-04 0.273D-03-0.102D-02 0.105D-02 0.674D-03-0.337D-02
 Coeff:      0.296D-02 0.383D-02-0.113D-01 0.145D-01-0.672D-02-0.126D-01
 Coeff:      0.362D-01-0.686D-01 0.129D+00-0.429D+00 0.122D+01-0.279D+01
 Coeff:      0.292D+01
 Gap=     0.434 Goal=   None    Shift=    0.500
 Gap=     0.288 Goal=   None    Shift=    0.500
 RMSDP=6.47D-07 MaxDP=8.97D-06 DE=-3.47D-09 OVMax= 3.41D-05

 SCF Done:  E(ULC-wHPBE) =  -198.742994287     A.U. after   19 cycles
            NFock= 19  Conv=0.65D-06     -V/T= 2.0293
 <Sx>= 0.0000 <Sy>= 0.0000 <Sz>= 0.5000 <S**2>= 0.8401 S= 0.5441
 <L.S>= 0.000000000000E+00
 KE= 1.930920828802D+02 PE=-7.530085730367D+02 EE= 2.051607533837D+02
 Annihilation of the first spin contaminant:
 S**2 before annihilation     0.8401,   after     0.7545
 Leave Link  502 at Thu Mar  5 13:01:21 2020, MaxMem=  6710886400 cpu:              28.8 elap:               1.8
 (Enter /opt/ohpc/pub/libs/gaussian/g16-A.03/sandybridge/g16/l508.exe)
 QCSCF skips out because SCF is already converged.
 Leave Link  508 at Thu Mar  5 13:01:21 2020, MaxMem=  6710886400 cpu:               0.1 elap:               0.0
 (Enter /opt/ohpc/pub/libs/gaussian/g16-A.03/sandybridge/g16/l601.exe)
 Copying SCF densities to generalized density rwf, IOpCl= 1 IROHF=0.

 **********************************************************************

            Population analysis using the SCF density.

 **********************************************************************

 Orbital symmetries:
 Alpha Orbitals:
       Occupied  (B2) (A1) (A1) (B2) (A1) (A1) (A1) (B2) (A1) (B2)
                 (A1) (B2) (A1) (A1) (B1) (B2) (A2) (B1)
       Virtual   (A2) (B2) (B1) (A1) (A1) (B2) (A1) (A1) (B2) (A1)
                 (B2) (A1) (B2) (B1) (B2) (B1) (A2) (A1) (A1) (B2)
                 (A1) (A2) (B1) (B2) (B2) (A1) (A1) (A1) (B2) (A1)
                 (B2) (A1) (A1) (B2) (A1) (B2) (A1) (A1) (B2)
 Beta  Orbitals:
       Occupied  (B2) (A1) (B2) (A1) (A1) (A1) (A1) (B2) (A1) (B2)
                 (A1) (B2) (A1) (A1) (B2) (B1) (A2)
       Virtual   (B1) (B2) (A2) (A1) (B1) (A1) (B2) (A1) (B2) (A1)
                 (A1) (B2) (A1) (B2) (B2) (B1) (A2) (A1) (B1) (A1)
                 (B2) (A1) (A2) (B1) (B2) (B2) (A1) (A1) (B2) (A1)
                 (B2) (A1) (A1) (A1) (B2) (A1) (B2) (A1) (A1) (B2)
 The electronic state is 2-B1.
 Alpha  occ. eigenvalues --  -10.53164 -10.53161 -10.48004 -10.47238 -10.47237
 Alpha  occ. eigenvalues --   -1.39585  -1.26508  -1.21556  -1.07505  -1.05227
 Alpha  occ. eigenvalues --   -1.00382  -0.90405  -0.88154  -0.87057  -0.85850
 Alpha  occ. eigenvalues --   -0.84687  -0.70742  -0.69779
 Alpha virt. eigenvalues --   -0.26364  -0.25778  -0.19151  -0.18466  -0.11482
 Alpha virt. eigenvalues --   -0.06764  -0.04692  -0.02283  -0.02221   0.08443
 Alpha virt. eigenvalues --    0.08744   0.18991   0.19234   0.27512   0.28471
 Alpha virt. eigenvalues --    0.35279   0.35768   0.36543   0.38456   0.39327
 Alpha virt. eigenvalues --    0.39662   0.43352   0.44831   0.52284   0.59242
 Alpha virt. eigenvalues --    0.61548   0.62557   0.65188   0.65273   0.71174
 Alpha virt. eigenvalues --    0.71439   0.75726   0.79897   0.86589   0.94652
 Alpha virt. eigenvalues --    0.95511   1.01420   1.22931   1.24447
  Beta  occ. eigenvalues --  -10.52481 -10.52476 -10.47638 -10.47637 -10.46975
  Beta  occ. eigenvalues --   -1.38190  -1.24421  -1.21385  -1.06351  -1.04453
  Beta  occ. eigenvalues --   -1.00154  -0.90149  -0.87896  -0.86490  -0.84564
  Beta  occ. eigenvalues --   -0.80843  -0.69301
  Beta virt. eigenvalues --   -0.40486  -0.24066  -0.23091  -0.18244  -0.15496
  Beta virt. eigenvalues --   -0.11031  -0.06480  -0.04508  -0.02341  -0.01590
  Beta virt. eigenvalues --    0.08941   0.09061   0.19392   0.19596   0.28904
  Beta virt. eigenvalues --    0.30136   0.36927   0.37149   0.38385   0.38790
  Beta virt. eigenvalues --    0.39637   0.40848   0.43846   0.46521   0.52903
  Beta virt. eigenvalues --    0.59687   0.62499   0.63037   0.65136   0.65653
  Beta virt. eigenvalues --    0.71700   0.71929   0.76557   0.80768   0.86493
  Beta virt. eigenvalues --    0.95108   0.96070   1.02696   1.23900   1.25334
          Condensed to atoms (all electrons):
               1          2          3          4          5          6
     1  C    5.384100   0.490137  -0.042628  -0.121770   0.175275   0.161673
     2  C    0.490137   4.981348   0.448332  -0.024744  -0.121770  -0.021577
     3  C   -0.042628   0.448332   4.911627   0.448332  -0.042628   0.007633
     4  C   -0.121770  -0.024744   0.448332   4.981348   0.490137  -0.021577
     5  C    0.175275  -0.121770  -0.042628   0.490137   5.384100   0.161673
     6  H    0.161673  -0.021577   0.007633  -0.021577   0.161673   0.345343
     7  H    0.335046   0.005225  -0.000555   0.002972  -0.014160  -0.010143
     8  H   -0.022170   0.359895  -0.010959   0.003582   0.000610   0.000275
     9  H    0.004476  -0.024565   0.361979  -0.024565   0.004476  -0.000019
    10  H    0.000610   0.003582  -0.010959   0.359895  -0.022170   0.000275
    11  H   -0.014160   0.002972  -0.000555   0.005225   0.335046  -0.010143
               7          8          9         10         11
     1  C    0.335046  -0.022170   0.004476   0.000610  -0.014160
     2  C    0.005225   0.359895  -0.024565   0.003582   0.002972
     3  C   -0.000555  -0.010959   0.361979  -0.010959  -0.000555
     4  C    0.002972   0.003582  -0.024565   0.359895   0.005225
     5  C   -0.014160   0.000610   0.004476  -0.022170   0.335046
     6  H   -0.010143   0.000275  -0.000019   0.000275  -0.010143
     7  H    0.333364   0.000287  -0.000045  -0.000013   0.000364
     8  H    0.000287   0.371599  -0.000932  -0.000069  -0.000013
     9  H   -0.000045  -0.000932   0.389391  -0.000932  -0.000045
    10  H   -0.000013  -0.000069  -0.000932   0.371599   0.000287
    11  H    0.000364  -0.000013  -0.000045   0.000287   0.333364
          Atomic-Atomic Spin Densities.
               1          2          3          4          5          6
     1  C    0.566594  -0.040649  -0.022041  -0.009609   0.016960  -0.004720
     2  C   -0.040649  -0.326518   0.027283   0.001015  -0.009609   0.000481
     3  C   -0.022041   0.027283   0.766896   0.027283  -0.022041   0.000186
     4  C   -0.009609   0.001015   0.027283  -0.326518  -0.040649   0.000481
     5  C    0.016960  -0.009609  -0.022041  -0.040649   0.566594  -0.004720
     6  H   -0.004720   0.000481   0.000186   0.000481  -0.004720  -0.017629
     7  H   -0.003638  -0.000614   0.000136  -0.000126   0.000150  -0.000083
     8  H   -0.000397   0.002351  -0.001078  -0.000154   0.000087   0.000030
     9  H   -0.000008   0.000030  -0.001811   0.000030  -0.000008  -0.000002
    10  H    0.000087  -0.000154  -0.001078   0.002351  -0.000397   0.000030
    11  H    0.000150  -0.000126   0.000136  -0.000614  -0.003638  -0.000083
               7          8          9         10         11
     1  C   -0.003638  -0.000397  -0.000008   0.000087   0.000150
     2  C   -0.000614   0.002351   0.000030  -0.000154  -0.000126
     3  C    0.000136  -0.001078  -0.001811  -0.001078   0.000136
     4  C   -0.000126  -0.000154   0.000030   0.002351  -0.000614
     5  C    0.000150   0.000087  -0.000008  -0.000397  -0.003638
     6  H   -0.000083   0.000030  -0.000002   0.000030  -0.000083
     7  H   -0.020833   0.000043   0.000004  -0.000000  -0.000080
     8  H    0.000043   0.010115   0.000005  -0.000000  -0.000000
     9  H    0.000004   0.000005  -0.030447   0.000005   0.000004
    10  H   -0.000000  -0.000000   0.000005   0.010115   0.000043
    11  H   -0.000080  -0.000000   0.000004   0.000043  -0.020833
 Mulliken charges and spin densities:
               1          2
     1  C   -0.350588   0.502728
     2  C   -0.098836  -0.346509
     3  C   -0.069620   0.773870
     4  C   -0.098836  -0.346509
     5  C   -0.350588   0.502728
     6  H    0.386587  -0.026028
     7  H    0.347657  -0.025042
     8  H    0.297893   0.011001
     9  H    0.290782  -0.032197
    10  H    0.297893   0.011001
    11  H    0.347657  -0.025042
 Sum of Mulliken charges =   1.00000   1.00000
 Mulliken charges and spin densities with hydrogens summed into heavy atoms:
               1          2
     1  C    0.383655   0.451658
     2  C    0.199057  -0.335508
     3  C    0.221162   0.741672
     4  C    0.199057  -0.335508
     5  C   -0.002932   0.477686
 Electronic spatial extent (au):  <R**2>=            317.2057
 Charge=              1.0000 electrons
 Dipole moment (field-independent basis, Debye):
    X=             -0.0000    Y=             -0.0000    Z=             -2.0725  Tot=              2.0725
 Quadrupole moment (field-independent basis, Debye-Ang):
   XX=            -30.5952   YY=            -16.7116   ZZ=            -12.4164
   XY=              0.0000   XZ=              0.0000   YZ=              0.0000
 Traceless Quadrupole moment (field-independent basis, Debye-Ang):
   XX=            -10.6875   YY=              3.1961   ZZ=              7.4913
   XY=              0.0000   XZ=              0.0000   YZ=              0.0000
 Octapole moment (field-independent basis, Debye-Ang**2):
  XXX=              0.0000  YYY=              0.0000  ZZZ=             -7.6651  XYY=             -0.0000
  XXY=              0.0000  XXZ=              0.6189  XZZ=              0.0000  YZZ=              0.0000
  YYZ=             -2.6838  XYZ=             -0.0000
 Hexadecapole moment (field-independent basis, Debye-Ang**3):
 XXXX=            -29.8320 YYYY=           -137.4314 ZZZZ=           -118.5240 XXXY=             -0.0000
 XXXZ=             -0.0000 YYYX=             -0.0000 YYYZ=             -0.0000 ZZZX=              0.0000
 ZZZY=             -0.0000 XXYY=            -40.9332 XXZZ=            -37.5899 YYZZ=            -40.4255
 XXYZ=              0.0000 YYXZ=             -0.0000 ZZXY=             -0.0000
 N-N= 1.560127424860D+02 E-N=-7.530085787431D+02  KE= 1.930920828802D+02
 Symmetry A1   KE= 1.115316095679D+02
 Symmetry A2   KE= 2.584097462595D+00
 Symmetry B1   KE= 3.337285356697D+00
 Symmetry B2   KE= 7.563909049303D+01
 Symmetry A1   SP=-3.451141341766D-14
 Symmetry A2   SP=-3.113828639378D-16
 Symmetry B1   SP= 1.000000000000D+00
 Symmetry B2   SP= 1.203398004076D-14
                          Isotropic Fermi Contact Couplings
        Atom                 a.u.       MegaHertz       Gauss      10(-4) cm-1
     1  C(13)              0.08432      94.79356      33.82470      31.61973
     2  C(13)             -0.06188     -69.56252     -24.82164     -23.20356
     3  C(13)              0.11981     134.68828      48.06013      44.92717
     4  C(13)             -0.06188     -69.56252     -24.82164     -23.20356
     5  C(13)              0.08432      94.79356      33.82470      31.61973
     6  H(1)              -0.01007     -44.99938     -16.05690     -15.01018
     7  H(1)              -0.01114     -49.77855     -17.76222     -16.60434
     8  H(1)               0.00462      20.63594       7.36342       6.88341
     9  H(1)              -0.01513     -67.62923     -24.13179     -22.55868
    10  H(1)               0.00462      20.63594       7.36342       6.88341
    11  H(1)              -0.01114     -49.77855     -17.76222     -16.60434
 --------------------------------------------------------
       Center         ----  Spin Dipole Couplings  ----
                      3XX-RR        3YY-RR        3ZZ-RR
 --------------------------------------------------------
     1   Atom        0.529530     -0.257869     -0.271661
     2   Atom       -0.239532      0.117292      0.122240
     3   Atom        0.730685     -0.373713     -0.356972
     4   Atom       -0.239532      0.117292      0.122240
     5   Atom        0.529530     -0.257869     -0.271661
     6   Atom       -0.009511      0.009572     -0.000061
     7   Atom       -0.007096      0.007538     -0.000442
     8   Atom       -0.005958     -0.003775      0.009733
     9   Atom       -0.008777     -0.047365      0.056142
    10   Atom       -0.005958     -0.003775      0.009733
    11   Atom       -0.007096      0.007538     -0.000442
 --------------------------------------------------------
                        XY            XZ            YZ
 --------------------------------------------------------
     1   Atom       -0.000000      0.000000     -0.008786
     2   Atom       -0.000000      0.000000     -0.004681
     3   Atom       -0.000000     -0.000000      0.000000
     4   Atom       -0.000000     -0.000000      0.004681
     5   Atom        0.000000      0.000000      0.008786
     6   Atom       -0.000000      0.000000      0.000000
     7   Atom        0.000000      0.000000     -0.037905
     8   Atom       -0.000000      0.000000     -0.007644
     9   Atom       -0.000000     -0.000000     -0.000000
    10   Atom        0.000000     -0.000000      0.007644
    11   Atom       -0.000000     -0.000000      0.037905
 --------------------------------------------------------


 ---------------------------------------------------------------------------------
              Anisotropic Spin Dipole Couplings in Principal Axis System
 ---------------------------------------------------------------------------------

       Atom             a.u.   MegaHertz   Gauss  10(-4) cm-1        Axes

              Baa    -0.2759   -37.028   -13.212   -12.351 -0.0000  0.4374  0.8993
     1 C(13)  Bbb    -0.2536   -34.030   -12.143   -11.351 -0.0000  0.8993 -0.4374
              Bcc     0.5295    71.058    25.355    23.702  1.0000  0.0000  0.0000
 
              Baa    -0.2395   -32.143   -11.469   -10.722  1.0000  0.0000  0.0000
     2 C(13)  Bbb     0.1145    15.361     5.481     5.124 -0.0000  0.8565  0.5161
              Bcc     0.1251    16.782     5.988     5.598  0.0000 -0.5161  0.8565
 
              Baa    -0.3737   -50.149   -17.894   -16.728  0.0000  1.0000  0.0000
     3 C(13)  Bbb    -0.3570   -47.902   -17.093   -15.978  0.0000  0.0000  1.0000
              Bcc     0.7307    98.051    34.987    32.706  1.0000  0.0000  0.0000
 
              Baa    -0.2395   -32.143   -11.469   -10.722  1.0000  0.0000  0.0000
     4 C(13)  Bbb     0.1145    15.361     5.481     5.124 -0.0000  0.8565 -0.5161
              Bcc     0.1251    16.782     5.988     5.598 -0.0000  0.5161  0.8565
 
              Baa    -0.2759   -37.028   -13.212   -12.351 -0.0000 -0.4374  0.8993
     5 C(13)  Bbb    -0.2536   -34.030   -12.143   -11.351  0.0000  0.8993  0.4374
              Bcc     0.5295    71.058    25.355    23.702  1.0000 -0.0000  0.0000
 
              Baa    -0.0095    -5.074    -1.811    -1.693  1.0000 -0.0000 -0.0000
     6 H(1)   Bbb    -0.0001    -0.033    -0.012    -0.011  0.0000 -0.0000  1.0000
              Bcc     0.0096     5.107     1.822     1.704 -0.0000  1.0000 -0.0000
 
              Baa    -0.0346   -18.443    -6.581    -6.152 -0.0000  0.6691  0.7432
     7 H(1)   Bbb    -0.0071    -3.786    -1.351    -1.263  1.0000  0.0000  0.0000
              Bcc     0.0417    22.229     7.932     7.415 -0.0000  0.7432 -0.6691
 
              Baa    -0.0072    -3.853    -1.375    -1.285 -0.0000  0.9116  0.4110
     8 H(1)   Bbb    -0.0060    -3.179    -1.134    -1.060  1.0000  0.0000  0.0000
              Bcc     0.0132     7.032     2.509     2.346  0.0000 -0.4110  0.9116
 
              Baa    -0.0474   -25.272    -9.018    -8.430  0.0000  1.0000 -0.0000
     9 H(1)   Bbb    -0.0088    -4.683    -1.671    -1.562  1.0000 -0.0000 -0.0000
              Bcc     0.0561    29.955    10.689     9.992  0.0000  0.0000  1.0000
 
              Baa    -0.0072    -3.853    -1.375    -1.285 -0.0000  0.9116 -0.4110
    10 H(1)   Bbb    -0.0060    -3.179    -1.134    -1.060  1.0000  0.0000 -0.0000
              Bcc     0.0132     7.032     2.509     2.346  0.0000  0.4110  0.9116
 
              Baa    -0.0346   -18.443    -6.581    -6.152  0.0000 -0.6691  0.7432
    11 H(1)   Bbb    -0.0071    -3.786    -1.351    -1.263  1.0000  0.0000  0.0000
              Bcc     0.0417    22.229     7.932     7.415 -0.0000  0.7432  0.6691
 

 ---------------------------------------------------------------------------------

 No NMR shielding tensors so no spin-rotation constants.
 Leave Link  601 at Thu Mar  5 13:01:21 2020, MaxMem=  6710886400 cpu:               3.1 elap:               0.2
 (Enter /opt/ohpc/pub/libs/gaussian/g16-A.03/sandybridge/g16/l9999.exe)

 Test job not archived.
 1\1\GINC-CNODE212\SP\ULC-wHPBE\6-31G\C5H6(1+,2)\SMGO234\05-Mar-2020\0\
 \#P uLC-wHPBE/6-31G iop(3/130=0115300000, 3/131=0115300000, 3/119=0884
 700000, 3/120=0884700000) scf=(conver=6,fermi,ndamp=35,noincfock,novar
 acc,vshift=500,xqc)\\H6 C5\\1,2\C,0,0.,0.878804,-0.931542\C,0,0.,1.128
 157,0.423457\C,0,0.,0.,1.240879\C,0,0.,-1.128157,0.423457\C,0,0.,-0.87
 8804,-0.931542\H,0,0.,0.,-1.732269\H,0,0.,1.6083,-1.734053\H,0,0.,2.15
 6626,0.76567\H,0,0.,0.,2.320778\H,0,0.,-2.156626,0.76567\H,0,0.,-1.608
 3,-1.734053\\Version=EM64L-G16RevA.03\State=2-B1\HF=-198.7429943\S2=0.
 840095\S2-1=0.\S2A=0.754536\RMSD=6.468e-07\Dipole=0.,0.,-0.8153847\Qua
 drupole=-7.9458716,2.3762434,5.5696282,0.,0.,0.\PG=C02V [C2(H1C1H1),SG
 V(C4H4)]\\@


 GOOD SENSE ABOUT TRIVIALITIES IS BETTER THAN NONSENSE
 ABOUT THINGS THAT MATTER

                                       -- MAX BEERBOHM
 Job cpu time:       0 days  0 hours  1 minutes  1.3 seconds.
 Elapsed time:       0 days  0 hours  0 minutes  4.1 seconds.
 File lengths (MBytes):  RWF=    272 Int=      0 D2E=      0 Chk=     32 Scr=     32
 Normal termination of Gaussian 16 at Thu Mar  5 13:01:21 2020.
