 Entering Gaussian System, Link 0=g16
 Input=a1b_tune_c2.gjf
 Output=a1b_tune_c2.log
 Initial command:
 /opt/ohpc/pub/libs/gaussian/g16-A.03/sandybridge/g16/l1.exe "/scratch/smgo234/Ocelot/test/a1b/tuning_a1b_acycle2/Gau-84564.inp" -scrdir="/scratch/smgo234/Ocelot/test/a1b/tuning_a1b_acycle2/"
 Entering Link 1 = /opt/ohpc/pub/libs/gaussian/g16-A.03/sandybridge/g16/l1.exe PID=     84565.
  
 Copyright (c) 1988,1990,1992,1993,1995,1998,2003,2009,2016,
            Gaussian, Inc.  All Rights Reserved.
  
 This is part of the Gaussian(R) 16 program.  It is based on
 the Gaussian(R) 09 system (copyright 2009, Gaussian, Inc.),
 the Gaussian(R) 03 system (copyright 2003, Gaussian, Inc.),
 the Gaussian(R) 98 system (copyright 1998, Gaussian, Inc.),
 the Gaussian(R) 94 system (copyright 1995, Gaussian, Inc.),
 the Gaussian 92(TM) system (copyright 1992, Gaussian, Inc.),
 the Gaussian 90(TM) system (copyright 1990, Gaussian, Inc.),
 the Gaussian 88(TM) system (copyright 1988, Gaussian, Inc.),
 the Gaussian 86(TM) system (copyright 1986, Carnegie Mellon
 University), and the Gaussian 82(TM) system (copyright 1983,
 Carnegie Mellon University). Gaussian is a federally registered
 trademark of Gaussian, Inc.
  
 This software contains proprietary and confidential information,
 including trade secrets, belonging to Gaussian, Inc.
  
 This software is provided under written license and may be
 used, copied, transmitted, or stored only in accord with that
 written license.
  
 The following legend is applicable only to US Government
 contracts under FAR:
  
                    RESTRICTED RIGHTS LEGEND
  
 Use, reproduction and disclosure by the US Government is
 subject to restrictions as set forth in subparagraphs (a)
 and (c) of the Commercial Computer Software - Restricted
 Rights clause in FAR 52.227-19.
  
 Gaussian, Inc.
 340 Quinnipiac St., Bldg. 40, Wallingford CT 06492
  
  
 ---------------------------------------------------------------
 Warning -- This program may not be used in any manner that
 competes with the business of Gaussian, Inc. or will provide
 assistance to any competitor of Gaussian, Inc.  The licensee
 of this program is prohibited from giving any competitor of
 Gaussian, Inc. access to this program.  By using this program,
 the user acknowledges that Gaussian, Inc. is engaged in the
 business of creating and licensing software in the field of
 computational chemistry and represents and warrants to the
 licensee that it is not a competitor of Gaussian, Inc. and that
 it will not use this program in any manner prohibited above.
 ---------------------------------------------------------------
  

 Cite this work as:
 Gaussian 16, Revision A.03,
 M. J. Frisch, G. W. Trucks, H. B. Schlegel, G. E. Scuseria, 
 M. A. Robb, J. R. Cheeseman, G. Scalmani, V. Barone, 
 G. A. Petersson, H. Nakatsuji, X. Li, M. Caricato, A. V. Marenich, 
 J. Bloino, B. G. Janesko, R. Gomperts, B. Mennucci, H. P. Hratchian, 
 J. V. Ortiz, A. F. Izmaylov, J. L. Sonnenberg, D. Williams-Young, 
 F. Ding, F. Lipparini, F. Egidi, J. Goings, B. Peng, A. Petrone, 
 T. Henderson, D. Ranasinghe, V. G. Zakrzewski, J. Gao, N. Rega, 
 G. Zheng, W. Liang, M. Hada, M. Ehara, K. Toyota, R. Fukuda, 
 J. Hasegawa, M. Ishida, T. Nakajima, Y. Honda, O. Kitao, H. Nakai, 
 T. Vreven, K. Throssell, J. A. Montgomery, Jr., J. E. Peralta, 
 F. Ogliaro, M. J. Bearpark, J. J. Heyd, E. N. Brothers, K. N. Kudin, 
 V. N. Staroverov, T. A. Keith, R. Kobayashi, J. Normand, 
 K. Raghavachari, A. P. Rendell, J. C. Burant, S. S. Iyengar, 
 J. Tomasi, M. Cossi, J. M. Millam, M. Klene, C. Adamo, R. Cammi, 
 J. W. Ochterski, R. L. Martin, K. Morokuma, O. Farkas, 
 J. B. Foresman, and D. J. Fox, Gaussian, Inc., Wallingford CT, 2016.
 
 ******************************************
 Gaussian 16:  EM64L-G16RevA.03 25-Dec-2016
                 5-Mar-2020 
 ******************************************
 %mem=50GB
 %nproc=16
 Will use up to   16 processors via shared memory.
 ----------------------------------------------------------------------
 #P uLC-wHPBE/6-31G iop(3/130=0137600000, 3/131=0137600000, 3/119=08624
 00000, 3/120=0862400000) scf=(conver=6,fermi,ndamp=35,noincfock,novara
 cc,vshift=500,xqc)
 ----------------------------------------------------------------------
 1/38=1,172=1/1;
 2/12=2,17=6,18=5,40=1/2;
 3/5=1,6=6,11=2,25=1,30=1,74=-71,116=2,119=862400000,120=862400000,130=137600000,131=137600000/1,2,3;
 4//1;
 5/5=100002,6=6,8=3,10=500,13=1,18=-1,22=13,38=1,93=35/2,8;
 6/7=2,8=2,9=2,10=2,28=1/1;
 99/5=1,9=1/99;
 Leave Link    1 at Thu Mar  5 12:54:12 2020, MaxMem=  6710886400 cpu:              17.0 elap:               1.1
 (Enter /opt/ohpc/pub/libs/gaussian/g16-A.03/sandybridge/g16/l101.exe)
 -----
 H6 C5
 -----
 Symbolic Z-matrix:
 Charge =  1 Multiplicity = 2
 C                     0.        0.8788   -0.93154 
 C                     0.        1.12816   0.42346 
 C                     0.        0.        1.24088 
 C                     0.       -1.12816   0.42346 
 C                     0.       -0.8788   -0.93154 
 H                     0.        0.       -1.73227 
 H                     0.        1.6083   -1.73405 
 H                     0.        2.15663   0.76567 
 H                     0.        0.        2.32078 
 H                     0.       -2.15663   0.76567 
 H                     0.       -1.6083   -1.73405 
 
 ITRead=  0  0  0  0  0  0  0  0  0  0  0
 MicOpt= -1 -1 -1 -1 -1 -1 -1 -1 -1 -1 -1
 NAtoms=     11 NQM=       11 NQMF=       0 NMMI=      0 NMMIF=      0
                NMic=       0 NMicF=      0.
                    Isotopes and Nuclear Properties:
 (Nuclear quadrupole moments (NQMom) in fm**2, nuclear magnetic moments (NMagM)
  in nuclear magnetons)

  Atom         1           2           3           4           5           6           7           8           9          10
 IAtWgt=          12          12          12          12          12           1           1           1           1           1
 AtmWgt=  12.0000000  12.0000000  12.0000000  12.0000000  12.0000000   1.0078250   1.0078250   1.0078250   1.0078250   1.0078250
 NucSpn=           0           0           0           0           0           1           1           1           1           1
 AtZEff=  -0.0000000  -0.0000000  -0.0000000  -0.0000000  -0.0000000  -0.0000000  -0.0000000  -0.0000000  -0.0000000  -0.0000000
 NQMom=    0.0000000   0.0000000   0.0000000   0.0000000   0.0000000   0.0000000   0.0000000   0.0000000   0.0000000   0.0000000
 NMagM=    0.0000000   0.0000000   0.0000000   0.0000000   0.0000000   2.7928460   2.7928460   2.7928460   2.7928460   2.7928460
 AtZNuc=   6.0000000   6.0000000   6.0000000   6.0000000   6.0000000   1.0000000   1.0000000   1.0000000   1.0000000   1.0000000

  Atom        11
 IAtWgt=           1
 AtmWgt=   1.0078250
 NucSpn=           1
 AtZEff=  -0.0000000
 NQMom=    0.0000000
 NMagM=    2.7928460
 AtZNuc=   1.0000000
 Leave Link  101 at Thu Mar  5 12:54:12 2020, MaxMem=  6710886400 cpu:               3.7 elap:               0.3
 (Enter /opt/ohpc/pub/libs/gaussian/g16-A.03/sandybridge/g16/l202.exe)
                          Input orientation:                          
 ---------------------------------------------------------------------
 Center     Atomic      Atomic             Coordinates (Angstroms)
 Number     Number       Type             X           Y           Z
 ---------------------------------------------------------------------
      1          6           0        0.000000    0.878804   -0.931542
      2          6           0        0.000000    1.128157    0.423457
      3          6           0        0.000000    0.000000    1.240879
      4          6           0        0.000000   -1.128157    0.423457
      5          6           0        0.000000   -0.878804   -0.931542
      6          1           0        0.000000    0.000000   -1.732269
      7          1           0        0.000000    1.608300   -1.734053
      8          1           0        0.000000    2.156626    0.765670
      9          1           0        0.000000    0.000000    2.320778
     10          1           0        0.000000   -2.156626    0.765670
     11          1           0        0.000000   -1.608300   -1.734053
 ---------------------------------------------------------------------
                    Distance matrix (angstroms):
                    1          2          3          4          5
     1  C    0.000000
     2  C    1.377752   0.000000
     3  C    2.343440   1.393168   0.000000
     4  C    2.421552   2.256314   1.393168   0.000000
     5  C    1.757608   2.421552   2.343440   1.377752   0.000000
     6  H    1.188890   2.433083   2.973148   2.433083   1.188890
     7  H    1.084522   2.210291   3.381841   3.484687   2.613371
     8  H    2.124466   1.083909   2.208361   3.302561   3.477695
     9  H    3.368959   2.207389   1.079899   2.207389   3.368959
    10  H    3.477695   3.302561   2.208361   1.083909   2.124466
    11  H    2.613371   3.484687   3.381841   2.210291   1.084522
                    6          7          8          9         10
     6  H    0.000000
     7  H    1.608301   0.000000
     8  H    3.300111   2.559155   0.000000
     9  H    4.053047   4.362142   2.658834   0.000000
    10  H    3.300111   4.519213   4.313252   2.658834   0.000000
    11  H    1.608301   3.216600   4.519213   4.362142   2.559155
                   11
    11  H    0.000000
 Stoichiometry    C5H6(1+,2)
 Framework group  C2V[C2(HCH),SGV(C4H4)]
 Deg. of freedom    10
 Full point group                 C2V     NOp   4
 Largest Abelian subgroup         C2V     NOp   4
 Largest concise Abelian subgroup C2      NOp   2
                         Standard orientation:                         
 ---------------------------------------------------------------------
 Center     Atomic      Atomic             Coordinates (Angstroms)
 Number     Number       Type             X           Y           Z
 ---------------------------------------------------------------------
      1          6           0        0.000000    0.878804   -0.931542
      2          6           0        0.000000    1.128157    0.423457
      3          6           0        0.000000   -0.000000    1.240879
      4          6           0       -0.000000   -1.128157    0.423457
      5          6           0       -0.000000   -0.878804   -0.931542
      6          1           0       -0.000000    0.000000   -1.732269
      7          1           0        0.000000    1.608300   -1.734053
      8          1           0        0.000000    2.156626    0.765670
      9          1           0        0.000000   -0.000000    2.320778
     10          1           0       -0.000000   -2.156626    0.765670
     11          1           0       -0.000000   -1.608300   -1.734053
 ---------------------------------------------------------------------
 Rotational constants (GHZ):           8.5259551           7.9375455           4.1106177
 Leave Link  202 at Thu Mar  5 12:54:12 2020, MaxMem=  6710886400 cpu:               0.2 elap:               0.0
 (Enter /opt/ohpc/pub/libs/gaussian/g16-A.03/sandybridge/g16/l301.exe)
 Standard basis: 6-31G (6D, 7F)
 Ernie: Thresh=  0.10000D-02 Tol=  0.10000D-05 Strict=F.
 There are    27 symmetry adapted cartesian basis functions of A1  symmetry.
 There are     4 symmetry adapted cartesian basis functions of A2  symmetry.
 There are     6 symmetry adapted cartesian basis functions of B1  symmetry.
 There are    20 symmetry adapted cartesian basis functions of B2  symmetry.
 There are    27 symmetry adapted basis functions of A1  symmetry.
 There are     4 symmetry adapted basis functions of A2  symmetry.
 There are     6 symmetry adapted basis functions of B1  symmetry.
 There are    20 symmetry adapted basis functions of B2  symmetry.
    57 basis functions,   134 primitive gaussians,    57 cartesian basis functions
    18 alpha electrons       17 beta electrons
       nuclear repulsion energy       156.0127424860 Hartrees.
 IExCor=33909 DFT=T Ex+Corr=LC-wHPBE ExCW=0 ScaHFX=  1.000000
 ScaDFX=  1.000000  1.000000  1.000000  1.000000 ScalE2=  1.000000  1.000000
 IRadAn=      5 IRanWt=     -1 IRanGd=            0 ICorTp=0 IEmpDi=  4
 HFx  wShort=  0.000000 wLong=  0.400000 cFull=  0.000000 cShort=  0.000000 cLong=  0.862400
 DFx  wShort=  0.000000 wLong=  0.400000 cFull=  0.000000 cShort=  1.000000 cLong=  0.862400
 NAtoms=   11 NActive=   11 NUniq=    7 SFac= 2.47D+00 NAtFMM=   60 NAOKFM=F Big=F
 Integral buffers will be    131072 words long.
 Raffenetti 2 integral format.
 Two-electron integral symmetry is turned on.
 Leave Link  301 at Thu Mar  5 12:54:12 2020, MaxMem=  6710886400 cpu:               1.0 elap:               0.1
 (Enter /opt/ohpc/pub/libs/gaussian/g16-A.03/sandybridge/g16/l302.exe)
 NPDir=0 NMtPBC=     1 NCelOv=     1 NCel=       1 NClECP=     1 NCelD=      1
         NCelK=      1 NCelE2=     1 NClLst=     1 CellRange=     0.0.
 One-electron integrals computed using PRISM.
 One-electron integral symmetry used in STVInt
 NBasis=    57 RedAO= T EigKep=  1.84D-03  NBF=    27     4     6    20
 NBsUse=    57 1.00D-06 EigRej= -1.00D+00 NBFU=    27     4     6    20
 Precomputing XC quadrature grid using
 IXCGrd= 4 IRadAn=           5 IRanWt=          -1 IRanGd=           0 AccXCQ= 0.00D+00.
 Generated NRdTot=       0 NPtTot=           0 NUsed=           0 NTot=          32
 NSgBfM=    57    57    57    57    57 MxSgAt=    11 MxSgA2=    11.
 Leave Link  302 at Thu Mar  5 12:54:12 2020, MaxMem=  6710886400 cpu:               2.1 elap:               0.1
 (Enter /opt/ohpc/pub/libs/gaussian/g16-A.03/sandybridge/g16/l303.exe)
 DipDrv:  MaxL=1.
 Leave Link  303 at Thu Mar  5 12:54:12 2020, MaxMem=  6710886400 cpu:               0.3 elap:               0.0
 (Enter /opt/ohpc/pub/libs/gaussian/g16-A.03/sandybridge/g16/l401.exe)
 ExpMin= 1.61D-01 ExpMax= 3.05D+03 ExpMxC= 4.57D+02 IAcc=3 IRadAn=         5 AccDes= 0.00D+00
 Harris functional with IExCor=33909 and IRadAn=       5 diagonalized for initial guess.
 HarFok:  IExCor=33909 AccDes= 0.00D+00 IRadAn=         5 IDoV= 1 UseB2=F ITyADJ=14
 ICtDFT=  3500011 ScaDFX=  1.000000  1.000000  1.000000  1.000000
 FoFCou: FMM=F IPFlag=           0 FMFlag=      100000 FMFlg1=           0
         NFxFlg=           0 DoJE=T BraDBF=F KetDBF=T FulRan=T
         wScrn=  0.000000 ICntrl=       500 IOpCl=  0 I1Cent=   200000004 NGrid=           0
         NMat0=    1 NMatS0=      1 NMatT0=    0 NMatD0=    1 NMtDS0=    0 NMtDT0=    0
 Petite list used in FoFCou.
 Harris En= -192.549928056027    
 JPrj=0 DoOrth=F DoCkMO=F.
 Initial guess orbital symmetries:
 Alpha Orbitals:
       Occupied  (A1) (B2) (A1) (B2) (A1) (A1) (A1) (B2) (A1) (B2)
                 (A1) (B2) (A1) (B2) (A1) (B1) (A2) (B1)
       Virtual   (A2) (B2) (B1) (A1) (A1) (B2) (A1) (B2) (A1) (B2)
                 (A1) (B2) (A1) (B2) (B1) (A1) (A2) (B1) (B2) (A1)
                 (A1) (A2) (B1) (B2) (B2) (A1) (B2) (A1) (A1) (B2)
                 (A1) (A1) (A1) (B2) (A1) (B2) (A1) (A1) (B2)
 Beta  Orbitals:
       Occupied  (A1) (B2) (A1) (B2) (A1) (A1) (A1) (B2) (A1) (B2)
                 (A1) (B2) (A1) (B2) (A1) (B1) (A2)
       Virtual   (B1) (A2) (B2) (B1) (A1) (A1) (B2) (A1) (B2) (A1)
                 (B2) (A1) (B2) (A1) (B2) (B1) (A1) (A2) (B1) (B2)
                 (A1) (A1) (A2) (B1) (B2) (B2) (A1) (B2) (A1) (A1)
                 (B2) (A1) (A1) (A1) (B2) (A1) (B2) (A1) (A1) (B2)
 The electronic state of the initial guess is 2-B1.
 Initial guess <Sx>= 0.0000 <Sy>= 0.0000 <Sz>= 0.5000 <S**2>= 0.7500 S= 0.5000
 Leave Link  401 at Thu Mar  5 12:54:13 2020, MaxMem=  6710886400 cpu:               3.1 elap:               0.2
 (Enter /opt/ohpc/pub/libs/gaussian/g16-A.03/sandybridge/g16/l502.exe)
 Keep R1 and R2 ints in memory in symmetry-blocked form, NReq=16815681.
 FoFCou: FMM=F IPFlag=           0 FMFlag=           0 FMFlg1=           0
         NFxFlg=           0 DoJE=F BraDBF=F KetDBF=F FulRan=T
         wScrn=  0.000000 ICntrl=       600 IOpCl=  0 I1Cent=           0 NGrid=           0
         NMat0=    1 NMatS0=   1653 NMatT0=    0 NMatD0=    1 NMtDS0=    0 NMtDT0=    0
 Petite list used in FoFCou.
 UHF open shell SCF:
 Using DIIS extrapolation, IDIIS=    10.
 NGot=  6710886400 LenX=  6710059561 LenY=  6710055871
 Requested convergence on RMS density matrix=1.00D-06 within  32 cycles.
 Requested convergence on MAX density matrix=1.00D-04.
 Requested convergence on             energy=1.00D-04.
 Virtual orbitals will be shifted by   0.500 hartree.
 No special actions if energy rises.
 Dynamic level shift is on during FON iterations.

 Cycle   1  Pass 1  IDiag  1:
 E= -198.367292337141    
 DIIS: error= 4.89D-02 at cycle   1 NSaved=   1.
 NSaved= 1 IEnMin= 1 EnMin= -198.367292337141     IErMin= 1 ErrMin= 4.89D-02
 ErrMax= 4.89D-02  0.00D+00 EMaxC= 1.00D+00 BMatC= 1.97D-01 BMatP= 1.97D-01
 IDIUse=1 WtCom= 1.00D+00 WtEn= 0.00D+00
 Coeff-Com:  0.100D+01
 Coeff:      0.100D+01
 Gap=     0.356 Goal=   None    Shift=    0.500
 T= 1790. Gap= 0.829 NK=0 IS=   19 IE=   57 IFin=   18
          NO(<0.9)=   0  NV(>0.1)=   0     18.00e < EF      0.00e >EF  Err=0.0D+00
 Gap=     0.232 Goal=   None    Shift=    0.500
 T= 1790. Gap= 0.734 NK=0 IS=   18 IE=   57 IFin=   17
          NO(<0.9)=   0  NV(>0.1)=   0     17.00e < EF      0.00e >EF  Err=0.0D+00
 GapD=    0.232 DampG=1.000 DampE=0.500 DampFc=0.5000 IDamp=-1.
 Damping current iteration by 5.00D-01
 RMSDP=6.99D-03 MaxDP=5.37D-02              OVMax= 1.04D-01

 Cycle   2  Pass 1  IDiag  1:
 E= -198.404685016699     Delta-E=       -0.037392679558 Rises=F Damp=T
 DIIS: error= 2.41D-02 at cycle   2 NSaved=   2.
 NSaved= 2 IEnMin= 2 EnMin= -198.404685016699     IErMin= 2 ErrMin= 2.41D-02
 ErrMax= 2.41D-02  0.00D+00 EMaxC= 1.00D+00 BMatC= 3.61D-02 BMatP= 1.97D-01
 IDIUse=1 WtCom= 1.00D+00 WtEn= 0.00D+00
 Coeff-Com: -0.566D+00 0.157D+01
 Coeff:     -0.566D+00 0.157D+01
 Gap=     0.423 Goal=   None    Shift=    0.500
 T= 1678. Gap= 0.909 NK=4 IS=   19 IE=   23 IFin=   18
          NO(<0.9)=   0  NV(>0.1)=   0     18.00e < EF      0.00e >EF  Err=0.0D+00
 Gap=     0.260 Goal=   None    Shift=    0.500
 T= 1678. Gap= 0.758 NK=4 IS=   18 IE=   23 IFin=   17
          NO(<0.9)=   0  NV(>0.1)=   0     17.00e < EF      0.00e >EF  Err=0.0D+00
 GapD=    0.260 DampG=1.000 DampE=0.500 DampFc=0.5000 IDamp=-1.
 Damping current iteration by 5.00D-01
 RMSDP=4.36D-03 MaxDP=3.37D-02 DE=-3.74D-02 OVMax= 1.83D-02

 Cycle   3  Pass 1  IDiag  1:
 E= -198.418410018721     Delta-E=       -0.013725002022 Rises=F Damp=T
 DIIS: error= 1.43D-02 at cycle   3 NSaved=   3.
 NSaved= 3 IEnMin= 3 EnMin= -198.418410018721     IErMin= 3 ErrMin= 1.43D-02
 ErrMax= 1.43D-02  0.00D+00 EMaxC= 1.00D+00 BMatC= 8.96D-03 BMatP= 3.61D-02
 IDIUse=1 WtCom= 1.00D+00 WtEn= 0.00D+00
 Coeff-Com:  0.327D+00-0.186D+01 0.253D+01
 Coeff:      0.327D+00-0.186D+01 0.253D+01
 Gap=     0.413 Goal=   None    Shift=    0.500
 T= 1478. Gap= 0.914 NK=0 IS=   19 IE=   57 IFin=   18
          NO(<0.9)=   0  NV(>0.1)=   0     18.00e < EF      0.00e >EF  Err=0.0D+00
 Gap=     0.265 Goal=   None    Shift=    0.500
 T= 1478. Gap= 0.765 NK=0 IS=   18 IE=   57 IFin=   17
          NO(<0.9)=   0  NV(>0.1)=   0     17.00e < EF      0.00e >EF  Err=0.0D+00
 GapD=    0.265 DampG=1.000 DampE=0.500 DampFc=0.5000 IDamp=-1.
 Damping current iteration by 5.00D-01
 RMSDP=2.52D-03 MaxDP=2.02D-02 DE=-1.37D-02 OVMax= 1.73D-02

 Cycle   4  Pass 1  IDiag  1:
 E= -198.425104610461     Delta-E=       -0.006694591739 Rises=F Damp=T
 DIIS: error= 9.41D-03 at cycle   4 NSaved=   4.
 NSaved= 4 IEnMin= 4 EnMin= -198.425104610461     IErMin= 4 ErrMin= 9.41D-03
 ErrMax= 9.41D-03  0.00D+00 EMaxC= 1.00D+00 BMatC= 3.21D-03 BMatP= 8.96D-03
 IDIUse=1 WtCom= 1.00D+00 WtEn= 0.00D+00
 Coeff-Com:  0.130D-01 0.827D+00-0.380D+01 0.396D+01
 Coeff:      0.130D-01 0.827D+00-0.380D+01 0.396D+01
 Gap=     0.419 Goal=   None    Shift=    0.500
 T= 1116. Gap= 0.919 NK=0 IS=   19 IE=   57 IFin=   18
          NO(<0.9)=   0  NV(>0.1)=   0     18.00e < EF      0.00e >EF  Err=0.0D+00
 Gap=     0.271 Goal=   None    Shift=    0.500
 T= 1116. Gap= 0.771 NK=0 IS=   18 IE=   57 IFin=   17
          NO(<0.9)=   0  NV(>0.1)=   0     17.00e < EF      0.00e >EF  Err=0.0D+00
 GapD=    0.271 DampG=1.000 DampE=1.000 DampFc=1.0000 IDamp=-1.
 RMSDP=1.63D-03 MaxDP=1.69D-02 DE=-6.69D-03 OVMax= 1.68D-02

 Cycle   5  Pass 1  IDiag  1:
 E= -198.433224900707     Delta-E=       -0.008120290246 Rises=F Damp=F
 DIIS: error= 4.61D-03 at cycle   5 NSaved=   5.
 NSaved= 5 IEnMin= 5 EnMin= -198.433224900707     IErMin= 5 ErrMin= 4.61D-03
 ErrMax= 4.61D-03  0.00D+00 EMaxC= 1.00D+00 BMatC= 5.37D-04 BMatP= 3.21D-03
 IDIUse=1 WtCom= 1.00D+00 WtEn= 0.00D+00
 Coeff-Com: -0.194D+00 0.960D+00-0.731D+00-0.100D+01 0.197D+01
 Coeff:     -0.194D+00 0.960D+00-0.731D+00-0.100D+01 0.197D+01
 Gap=     0.422 Goal=   None    Shift=    0.500
 T=  802. Gap= 0.922 NK=0 IS=   19 IE=   57 IFin=   18
          NO(<0.9)=   0  NV(>0.1)=   0     18.00e < EF      0.00e >EF  Err=0.0D+00
 Gap=     0.276 Goal=   None    Shift=    0.500
 T=  802. Gap= 0.776 NK=0 IS=   18 IE=   57 IFin=   17
          NO(<0.9)=   0  NV(>0.1)=   0     17.00e < EF      0.00e >EF  Err=0.0D+00
 GapD=    0.276 DampG=1.000 DampE=1.000 DampFc=1.0000 IDamp=-1.
 RMSDP=4.90D-04 MaxDP=7.89D-03 DE=-8.12D-03 OVMax= 1.73D-02

 Cycle   6  Pass 1  IDiag  1:
 E= -198.434024841452     Delta-E=       -0.000799940745 Rises=F Damp=F
 DIIS: error= 3.61D-03 at cycle   6 NSaved=   6.
 NSaved= 6 IEnMin= 6 EnMin= -198.434024841452     IErMin= 6 ErrMin= 3.61D-03
 ErrMax= 3.61D-03  0.00D+00 EMaxC= 1.00D+00 BMatC= 2.53D-04 BMatP= 5.37D-04
 IDIUse=1 WtCom= 1.00D+00 WtEn= 0.00D+00
 Coeff-Com:  0.435D-02-0.296D+00 0.850D+00-0.547D+00-0.172D+01 0.271D+01
 Coeff:      0.435D-02-0.296D+00 0.850D+00-0.547D+00-0.172D+01 0.271D+01
 Gap=     0.425 Goal=   None    Shift=    0.500
 T=  518. Gap= 0.926 NK=0 IS=   19 IE=   57 IFin=   18
          NO(<0.9)=   0  NV(>0.1)=   0     18.00e < EF      0.00e >EF  Err=0.0D+00
 Gap=     0.278 Goal=   None    Shift=    0.500
 T=  518. Gap= 0.778 NK=0 IS=   18 IE=   57 IFin=   17
          NO(<0.9)=   0  NV(>0.1)=   0     17.00e < EF      0.00e >EF  Err=0.0D+00
 GapD=    0.278 DampG=1.000 DampE=1.000 DampFc=1.0000 IDamp=-1.
 RMSDP=3.99D-04 MaxDP=6.41D-03 DE=-8.00D-04 OVMax= 1.58D-02

 Cycle   7  Pass 1  IDiag  1:
 E= -198.434488936679     Delta-E=       -0.000464095227 Rises=F Damp=F
 DIIS: error= 2.67D-03 at cycle   7 NSaved=   7.
 NSaved= 7 IEnMin= 7 EnMin= -198.434488936679     IErMin= 7 ErrMin= 2.67D-03
 ErrMax= 2.67D-03  0.00D+00 EMaxC= 1.00D+00 BMatC= 1.17D-04 BMatP= 2.53D-04
 IDIUse=1 WtCom= 1.00D+00 WtEn= 0.00D+00
 Coeff-Com:  0.183D-01-0.632D-01-0.167D+00 0.447D+00-0.297D+00-0.130D+01
 Coeff-Com:  0.237D+01
 Coeff:      0.183D-01-0.632D-01-0.167D+00 0.447D+00-0.297D+00-0.130D+01
 Coeff:      0.237D+01
 Gap=     0.426 Goal=   None    Shift=    0.500
 T=  229. Gap= 0.926 NK=0 IS=   19 IE=   57 IFin=   18
          NO(<0.9)=   0  NV(>0.1)=   0     18.00e < EF      0.00e >EF  Err=0.0D+00
 Gap=     0.280 Goal=   None    Shift=    0.500
 T=  229. Gap= 0.780 NK=0 IS=   18 IE=   57 IFin=   17
          NO(<0.9)=   0  NV(>0.1)=   0     17.00e < EF      0.00e >EF  Err=0.0D+00
 GapD=    0.280 DampG=1.000 DampE=1.000 DampFc=1.0000 IDamp=-1.
 RMSDP=2.79D-04 MaxDP=4.17D-03 DE=-4.64D-04 OVMax= 1.20D-02

 Cycle   8  Pass 1  IDiag  1:
 E= -198.434706539950     Delta-E=       -0.000217603271 Rises=F Damp=F
 DIIS: error= 1.95D-03 at cycle   8 NSaved=   8.
 NSaved= 8 IEnMin= 8 EnMin= -198.434706539950     IErMin= 8 ErrMin= 1.95D-03
 ErrMax= 1.95D-03  0.00D+00 EMaxC= 1.00D+00 BMatC= 5.94D-05 BMatP= 1.17D-04
 IDIUse=1 WtCom= 1.00D+00 WtEn= 0.00D+00
 Coeff-Com: -0.156D-01 0.301D+00-0.829D+00 0.555D+00 0.138D+01-0.273D+01
 Coeff-Com: -0.704D-01 0.241D+01
 Coeff:     -0.156D-01 0.301D+00-0.829D+00 0.555D+00 0.138D+01-0.273D+01
 Coeff:     -0.704D-01 0.241D+01
 Gap=     0.427 Goal=   None    Shift=    0.500
 T=   61. Gap= 0.927 NK=0 IS=   19 IE=   57 IFin=   18
          NO(<0.9)=   0  NV(>0.1)=   0     18.00e < EF      0.00e >EF  Err=0.0D+00
 Gap=     0.280 Goal=   None    Shift=    0.500
 T=   61. Gap= 0.780 NK=0 IS=   18 IE=   57 IFin=   17
          NO(<0.9)=   0  NV(>0.1)=   0     17.00e < EF      0.00e >EF  Err=0.0D+00
 GapD=    0.280 DampG=1.000 DampE=1.000 DampFc=1.0000 IDamp=-1.
 RMSDP=2.32D-04 MaxDP=3.36D-03 DE=-2.18D-04 OVMax= 1.05D-02

 Cycle   9  Pass 1  IDiag  1:
 E= -198.434827910610     Delta-E=       -0.000121370660 Rises=F Damp=F
 DIIS: error= 1.34D-03 at cycle   9 NSaved=   9.
 NSaved= 9 IEnMin= 9 EnMin= -198.434827910610     IErMin= 9 ErrMin= 1.34D-03
 ErrMax= 1.34D-03  0.00D+00 EMaxC= 1.00D+00 BMatC= 2.70D-05 BMatP= 5.94D-05
 IDIUse=1 WtCom= 1.00D+00 WtEn= 0.00D+00
 Coeff-Com:  0.262D-02-0.172D+00 0.662D+00-0.647D+00-0.609D+00 0.229D+01
 Coeff-Com: -0.116D+01-0.351D+01 0.415D+01
 Coeff:      0.262D-02-0.172D+00 0.662D+00-0.647D+00-0.609D+00 0.229D+01
 Coeff:     -0.116D+01-0.351D+01 0.415D+01
 Gap=     0.427 Goal=   None    Shift=    0.500
 Gap=     0.281 Goal=   None    Shift=    0.500
 GapD=    0.281 DampG=1.000 DampE=1.000 DampFc=1.0000 IDamp=-1.
 RMSDP=1.89D-04 MaxDP=2.98D-03 DE=-1.21D-04 OVMax= 9.08D-03

 Cycle  10  Pass 1  IDiag  1:
 E= -198.434892601948     Delta-E=       -0.000064691338 Rises=F Damp=F
 DIIS: error= 8.19D-04 at cycle  10 NSaved=  10.
 NSaved=10 IEnMin=10 EnMin= -198.434892601948     IErMin=10 ErrMin= 8.19D-04
 ErrMax= 8.19D-04  0.00D+00 EMaxC= 1.00D+00 BMatC= 1.10D-05 BMatP= 2.70D-05
 IDIUse=1 WtCom= 1.00D+00 WtEn= 0.00D+00
 Coeff-Com:  0.305D-02 0.495D-02-0.460D-01 0.542D-01 0.398D-01-0.210D+00
 Coeff-Com:  0.334D+00 0.107D+00-0.190D+01 0.262D+01
 Coeff:      0.305D-02 0.495D-02-0.460D-01 0.542D-01 0.398D-01-0.210D+00
 Coeff:      0.334D+00 0.107D+00-0.190D+01 0.262D+01
 Gap=     0.428 Goal=   None    Shift=    0.500
 Gap=     0.281 Goal=   None    Shift=    0.500
 RMSDP=1.13D-04 MaxDP=1.84D-03 DE=-6.47D-05 OVMax= 5.66D-03

 Cycle  11  Pass 1  IDiag  1:
 E= -198.434917085569     Delta-E=       -0.000024483621 Rises=F Damp=F
 DIIS: error= 5.02D-04 at cycle  11 NSaved=  11.
 NSaved=11 IEnMin=11 EnMin= -198.434917085569     IErMin=11 ErrMin= 5.02D-04
 ErrMax= 5.02D-04  0.00D+00 EMaxC= 1.00D+00 BMatC= 4.79D-06 BMatP= 1.10D-05
 IDIUse=1 WtCom= 1.00D+00 WtEn= 0.00D+00
 Coeff-Com: -0.744D-03-0.355D-01 0.175D+00-0.201D+00-0.629D-01 0.563D+00
 Coeff-Com: -0.600D+00-0.804D+00 0.339D+01-0.634D+01 0.492D+01
 Coeff:     -0.744D-03-0.355D-01 0.175D+00-0.201D+00-0.629D-01 0.563D+00
 Coeff:     -0.600D+00-0.804D+00 0.339D+01-0.634D+01 0.492D+01
 Gap=     0.428 Goal=   None    Shift=    0.500
 Gap=     0.281 Goal=   None    Shift=    0.500
 RMSDP=7.66D-05 MaxDP=1.19D-03 DE=-2.45D-05 OVMax= 3.90D-03

 Cycle  12  Pass 1  IDiag  1:
 E= -198.434927563426     Delta-E=       -0.000010477857 Rises=F Damp=F
 DIIS: error= 2.90D-04 at cycle  12 NSaved=  12.
 NSaved=12 IEnMin=12 EnMin= -198.434927563426     IErMin=12 ErrMin= 2.90D-04
 ErrMax= 2.90D-04  0.00D+00 EMaxC= 1.00D+00 BMatC= 1.79D-06 BMatP= 4.79D-06
 IDIUse=1 WtCom= 1.00D+00 WtEn= 0.00D+00
 Coeff-Com:  0.569D-03-0.258D-01 0.987D-01-0.968D-01-0.811D-01 0.311D+00
 Coeff-Com: -0.825D-01-0.590D+00 0.503D+00 0.686D+00-0.261D+01 0.288D+01
 Coeff:      0.569D-03-0.258D-01 0.987D-01-0.968D-01-0.811D-01 0.311D+00
 Coeff:     -0.825D-01-0.590D+00 0.503D+00 0.686D+00-0.261D+01 0.288D+01
 Gap=     0.428 Goal=   None    Shift=    0.500
 Gap=     0.281 Goal=   None    Shift=    0.500
 RMSDP=4.63D-05 MaxDP=7.00D-04 DE=-1.05D-05 OVMax= 2.36D-03

 Cycle  13  Pass 1  IDiag  1:
 E= -198.434931331818     Delta-E=       -0.000003768392 Rises=F Damp=F
 DIIS: error= 1.64D-04 at cycle  13 NSaved=  13.
 NSaved=13 IEnMin=13 EnMin= -198.434931331818     IErMin=13 ErrMin= 1.64D-04
 ErrMax= 1.64D-04  0.00D+00 EMaxC= 1.00D+00 BMatC= 6.49D-07 BMatP= 1.79D-06
 IDIUse=1 WtCom= 1.00D+00 WtEn= 0.00D+00
 Coeff-Com:  0.336D-03 0.290D-02-0.571D-02-0.197D-02 0.364D-01-0.336D-01
 Coeff-Com: -0.964D-01 0.125D+00 0.495D+00-0.189D+01 0.342D+01-0.522D+01
 Coeff-Com:  0.417D+01
 Coeff:      0.336D-03 0.290D-02-0.571D-02-0.197D-02 0.364D-01-0.336D-01
 Coeff:     -0.964D-01 0.125D+00 0.495D+00-0.189D+01 0.342D+01-0.522D+01
 Coeff:      0.417D+01
 Gap=     0.428 Goal=   None    Shift=    0.500
 Gap=     0.281 Goal=   None    Shift=    0.500
 RMSDP=2.81D-05 MaxDP=4.27D-04 DE=-3.77D-06 OVMax= 1.44D-03

 Cycle  14  Pass 1  IDiag  1:
 E= -198.434932666089     Delta-E=       -0.000001334271 Rises=F Damp=F
 DIIS: error= 8.81D-05 at cycle  14 NSaved=  14.
 NSaved=14 IEnMin=14 EnMin= -198.434932666089     IErMin=14 ErrMin= 8.81D-05
 ErrMax= 8.81D-05  0.00D+00 EMaxC= 1.00D+00 BMatC= 2.39D-07 BMatP= 6.49D-07
 IDIUse=1 WtCom= 1.00D+00 WtEn= 0.00D+00
 Coeff-Com:  0.311D-03-0.883D-02 0.368D-01-0.399D-01-0.191D-01 0.100D+00
 Coeff-Com: -0.396D-01-0.197D+00 0.386D+00-0.399D+00-0.251D+00 0.173D+01
 Coeff-Com: -0.355D+01 0.325D+01
 Coeff:      0.311D-03-0.883D-02 0.368D-01-0.399D-01-0.191D-01 0.100D+00
 Coeff:     -0.396D-01-0.197D+00 0.386D+00-0.399D+00-0.251D+00 0.173D+01
 Coeff:     -0.355D+01 0.325D+01
 Gap=     0.428 Goal=   None    Shift=    0.500
 Gap=     0.281 Goal=   None    Shift=    0.500
 RMSDP=1.61D-05 MaxDP=2.42D-04 DE=-1.33D-06 OVMax= 8.33D-04

 Cycle  15  Pass 1  IDiag  1:
 E= -198.434933106629     Delta-E=       -0.000000440540 Rises=F Damp=F
 DIIS: error= 4.67D-05 at cycle  15 NSaved=  15.
 NSaved=15 IEnMin=15 EnMin= -198.434933106629     IErMin=15 ErrMin= 4.67D-05
 ErrMax= 4.67D-05  0.00D+00 EMaxC= 1.00D+00 BMatC= 8.14D-08 BMatP= 2.39D-07
 IDIUse=1 WtCom= 1.00D+00 WtEn= 0.00D+00
 Coeff-Com: -0.123D-03 0.340D-02-0.141D-01 0.156D-01 0.780D-02-0.387D-01
 Coeff-Com:  0.132D-01 0.871D-01-0.152D+00 0.128D+00 0.224D+00-0.133D+01
 Coeff-Com:  0.304D+01-0.495D+01 0.396D+01
 Coeff:     -0.123D-03 0.340D-02-0.141D-01 0.156D-01 0.780D-02-0.387D-01
 Coeff:      0.132D-01 0.871D-01-0.152D+00 0.128D+00 0.224D+00-0.133D+01
 Coeff:      0.304D+01-0.495D+01 0.396D+01
 Gap=     0.428 Goal=   None    Shift=    0.500
 Gap=     0.281 Goal=   None    Shift=    0.500
 RMSDP=8.81D-06 MaxDP=1.27D-04 DE=-4.41D-07 OVMax= 4.59D-04

 Cycle  16  Pass 1  IDiag  1:
 E= -198.434933241870     Delta-E=       -0.000000135241 Rises=F Damp=F
 DIIS: error= 2.55D-05 at cycle  16 NSaved=  16.
 NSaved=16 IEnMin=16 EnMin= -198.434933241870     IErMin=16 ErrMin= 2.55D-05
 ErrMax= 2.55D-05  0.00D+00 EMaxC= 1.00D+00 BMatC= 2.74D-08 BMatP= 8.14D-08
 IDIUse=1 WtCom= 1.00D+00 WtEn= 0.00D+00
 Coeff-Com:  0.458D-04-0.528D-03 0.440D-02-0.687D-02 0.529D-02-0.374D-03
 Coeff-Com:  0.495D-03-0.224D-01 0.100D+00-0.229D+00 0.232D+00 0.964D-02
 Coeff-Com: -0.757D+00 0.221D+01-0.404D+01 0.349D+01
 Coeff:      0.458D-04-0.528D-03 0.440D-02-0.687D-02 0.529D-02-0.374D-03
 Coeff:      0.495D-03-0.224D-01 0.100D+00-0.229D+00 0.232D+00 0.964D-02
 Coeff:     -0.757D+00 0.221D+01-0.404D+01 0.349D+01
 Gap=     0.428 Goal=   None    Shift=    0.500
 Gap=     0.281 Goal=   None    Shift=    0.500
 RMSDP=4.70D-06 MaxDP=6.43D-05 DE=-1.35D-07 OVMax= 2.46D-04

 Cycle  17  Pass 1  IDiag  1:
 E= -198.434933282162     Delta-E=       -0.000000040292 Rises=F Damp=F
 DIIS: error= 1.51D-05 at cycle  17 NSaved=  17.
 NSaved=17 IEnMin=17 EnMin= -198.434933282162     IErMin=17 ErrMin= 1.51D-05
 ErrMax= 1.51D-05  0.00D+00 EMaxC= 1.00D+00 BMatC= 8.86D-09 BMatP= 2.74D-08
 IDIUse=1 WtCom= 1.00D+00 WtEn= 0.00D+00
 Coeff-Com:  0.859D-06 0.573D-03-0.372D-02 0.519D-02-0.156D-02-0.630D-02
 Coeff-Com:  0.648D-02 0.189D-01-0.654D-01 0.119D+00-0.782D-01-0.159D+00
 Coeff-Com:  0.685D+00-0.165D+01 0.296D+01-0.453D+01 0.370D+01
 Coeff:      0.859D-06 0.573D-03-0.372D-02 0.519D-02-0.156D-02-0.630D-02
 Coeff:      0.648D-02 0.189D-01-0.654D-01 0.119D+00-0.782D-01-0.159D+00
 Coeff:      0.685D+00-0.165D+01 0.296D+01-0.453D+01 0.370D+01
 Gap=     0.428 Goal=   None    Shift=    0.500
 Gap=     0.281 Goal=   None    Shift=    0.500
 RMSDP=2.43D-06 MaxDP=3.25D-05 DE=-4.03D-08 OVMax= 1.28D-04

 Cycle  18  Pass 1  IDiag  1:
 E= -198.434933293897     Delta-E=       -0.000000011735 Rises=F Damp=F
 DIIS: error= 8.80D-06 at cycle  18 NSaved=  18.
 NSaved=18 IEnMin=18 EnMin= -198.434933293897     IErMin=18 ErrMin= 8.80D-06
 ErrMax= 8.80D-06  0.00D+00 EMaxC= 1.00D+00 BMatC= 2.79D-09 BMatP= 8.86D-09
 IDIUse=1 WtCom= 1.00D+00 WtEn= 0.00D+00
 Coeff-Com: -0.208D-04 0.406D-03-0.105D-02 0.616D-03 0.267D-02-0.700D-02
 Coeff-Com:  0.428D-02 0.495D-02-0.994D-03-0.208D-01 0.477D-01-0.726D-01
 Coeff-Com:  0.529D-01 0.870D-01-0.526D+00 0.155D+01-0.342D+01 0.330D+01
 Coeff:     -0.208D-04 0.406D-03-0.105D-02 0.616D-03 0.267D-02-0.700D-02
 Coeff:      0.428D-02 0.495D-02-0.994D-03-0.208D-01 0.477D-01-0.726D-01
 Coeff:      0.529D-01 0.870D-01-0.526D+00 0.155D+01-0.342D+01 0.330D+01
 Gap=     0.428 Goal=   None    Shift=    0.500
 Gap=     0.281 Goal=   None    Shift=    0.500
 RMSDP=1.24D-06 MaxDP=1.70D-05 DE=-1.17D-08 OVMax= 6.53D-05

 Cycle  19  Pass 1  IDiag  1:
 E= -198.434933297304     Delta-E=       -0.000000003406 Rises=F Damp=F
 DIIS: error= 5.15D-06 at cycle  19 NSaved=  19.
 NSaved=19 IEnMin=19 EnMin= -198.434933297304     IErMin=19 ErrMin= 5.15D-06
 ErrMax= 5.15D-06  0.00D+00 EMaxC= 1.00D+00 BMatC= 8.38D-10 BMatP= 2.79D-09
 IDIUse=1 WtCom= 1.00D+00 WtEn= 0.00D+00
 Coeff-Com: -0.670D-05 0.236D-03-0.917D-03 0.958D-03 0.623D-03-0.320D-02
 Coeff-Com:  0.282D-02 0.380D-02-0.110D-01 0.141D-01-0.684D-02-0.108D-01
 Coeff-Com:  0.317D-01-0.586D-01 0.115D+00-0.430D+00 0.124D+01-0.284D+01
 Coeff-Com:  0.295D+01
 Coeff:     -0.670D-05 0.236D-03-0.917D-03 0.958D-03 0.623D-03-0.320D-02
 Coeff:      0.282D-02 0.380D-02-0.110D-01 0.141D-01-0.684D-02-0.108D-01
 Coeff:      0.317D-01-0.586D-01 0.115D+00-0.430D+00 0.124D+01-0.284D+01
 Coeff:      0.295D+01
 Gap=     0.428 Goal=   None    Shift=    0.500
 Gap=     0.281 Goal=   None    Shift=    0.500
 RMSDP=6.46D-07 MaxDP=8.95D-06 DE=-3.41D-09 OVMax= 3.41D-05

 SCF Done:  E(ULC-wHPBE) =  -198.434933297     A.U. after   19 cycles
            NFock= 19  Conv=0.65D-06     -V/T= 2.0278
 <Sx>= 0.0000 <Sy>= 0.0000 <Sz>= 0.5000 <S**2>= 0.8353 S= 0.5418
 <L.S>= 0.000000000000E+00
 KE= 1.930637714379D+02 PE=-7.529427071907D+02 EE= 2.054312599695D+02
 Annihilation of the first spin contaminant:
 S**2 before annihilation     0.8353,   after     0.7541
 Leave Link  502 at Thu Mar  5 12:54:15 2020, MaxMem=  6710886400 cpu:              33.8 elap:               2.2
 (Enter /opt/ohpc/pub/libs/gaussian/g16-A.03/sandybridge/g16/l508.exe)
 QCSCF skips out because SCF is already converged.
 Leave Link  508 at Thu Mar  5 12:54:15 2020, MaxMem=  6710886400 cpu:               0.0 elap:               0.0
 (Enter /opt/ohpc/pub/libs/gaussian/g16-A.03/sandybridge/g16/l601.exe)
 Copying SCF densities to generalized density rwf, IOpCl= 1 IROHF=0.

 **********************************************************************

            Population analysis using the SCF density.

 **********************************************************************

 Orbital symmetries:
 Alpha Orbitals:
       Occupied  (B2) (A1) (A1) (B2) (A1) (A1) (A1) (B2) (A1) (B2)
                 (A1) (B2) (A1) (A1) (B1) (B2) (A2) (B1)
       Virtual   (A2) (B2) (B1) (A1) (A1) (B2) (A1) (A1) (B2) (A1)
                 (B2) (A1) (B2) (B1) (B2) (B1) (A2) (A1) (A1) (B2)
                 (A1) (A2) (B1) (B2) (B2) (A1) (A1) (A1) (B2) (A1)
                 (B2) (A1) (A1) (B2) (A1) (B2) (A1) (A1) (B2)
 Beta  Orbitals:
       Occupied  (B2) (A1) (B2) (A1) (A1) (A1) (A1) (B2) (A1) (B2)
                 (A1) (B2) (A1) (A1) (B2) (B1) (A2)
       Virtual   (B1) (B2) (A2) (A1) (B1) (A1) (B2) (A1) (B2) (A1)
                 (A1) (B2) (A1) (B2) (B2) (B1) (A2) (A1) (B1) (A1)
                 (B2) (A1) (A2) (B1) (B2) (B2) (A1) (A1) (B2) (A1)
                 (B2) (A1) (A1) (A1) (B2) (A1) (B2) (A1) (A1) (B2)
 The electronic state is 2-B1.
 Alpha  occ. eigenvalues --  -10.51838 -10.51835 -10.46708 -10.45924 -10.45923
 Alpha  occ. eigenvalues --   -1.38301  -1.25251  -1.20301  -1.06297  -1.04015
 Alpha  occ. eigenvalues --   -0.99196  -0.89239  -0.86998  -0.85894  -0.84697
 Alpha  occ. eigenvalues --   -0.83527  -0.69635  -0.68662
 Alpha virt. eigenvalues --   -0.25900  -0.25322  -0.18739  -0.18054  -0.11139
 Alpha virt. eigenvalues --   -0.06415  -0.04360  -0.01949  -0.01895   0.08781
 Alpha virt. eigenvalues --    0.09087   0.19330   0.19597   0.27857   0.28808
 Alpha virt. eigenvalues --    0.35606   0.36108   0.36887   0.38806   0.39668
 Alpha virt. eigenvalues --    0.40006   0.43653   0.45131   0.52642   0.59560
 Alpha virt. eigenvalues --    0.61866   0.62889   0.65506   0.65587   0.71518
 Alpha virt. eigenvalues --    0.71761   0.76052   0.80234   0.86914   0.94978
 Alpha virt. eigenvalues --    0.95854   1.01759   1.23258   1.24776
  Beta  occ. eigenvalues --  -10.51167 -10.51162 -10.46310 -10.46310 -10.45688
  Beta  occ. eigenvalues --   -1.36922  -1.23189  -1.20119  -1.05151  -1.03246
  Beta  occ. eigenvalues --   -0.98964  -0.88980  -0.86738  -0.85328  -0.83400
  Beta  occ. eigenvalues --   -0.79762  -0.68205
  Beta virt. eigenvalues --   -0.40078  -0.23642  -0.22664  -0.17830  -0.15102
  Beta virt. eigenvalues --   -0.10695  -0.06134  -0.04172  -0.02006  -0.01263
  Beta virt. eigenvalues --    0.09278   0.09408   0.19735   0.19959   0.29238
  Beta virt. eigenvalues --    0.30445   0.37256   0.37486   0.38687   0.39148
  Beta virt. eigenvalues --    0.39992   0.41187   0.44160   0.46819   0.53251
  Beta virt. eigenvalues --    0.60004   0.62809   0.63369   0.65455   0.65970
  Beta virt. eigenvalues --    0.72028   0.72261   0.76882   0.81093   0.86834
  Beta virt. eigenvalues --    0.95440   0.96407   1.03022   1.24224   1.25662
          Condensed to atoms (all electrons):
               1          2          3          4          5          6
     1  C    5.382074   0.491253  -0.042841  -0.122146   0.175927   0.161741
     2  C    0.491253   4.978254   0.450166  -0.025238  -0.122146  -0.021485
     3  C   -0.042841   0.450166   4.907037   0.450166  -0.042841   0.007558
     4  C   -0.122146  -0.025238   0.450166   4.978254   0.491253  -0.021485
     5  C    0.175927  -0.122146  -0.042841   0.491253   5.382074   0.161741
     6  H    0.161741  -0.021485   0.007558  -0.021485   0.161741   0.345699
     7  H    0.335093   0.005126  -0.000523   0.003001  -0.014387  -0.010063
     8  H   -0.022354   0.359989  -0.011084   0.003615   0.000647   0.000289
     9  H    0.004544  -0.024828   0.362171  -0.024828   0.004544  -0.000022
    10  H    0.000647   0.003615  -0.011084   0.359989  -0.022354   0.000289
    11  H   -0.014387   0.003001  -0.000523   0.005126   0.335093  -0.010063
               7          8          9         10         11
     1  C    0.335093  -0.022354   0.004544   0.000647  -0.014387
     2  C    0.005126   0.359989  -0.024828   0.003615   0.003001
     3  C   -0.000523  -0.011084   0.362171  -0.011084  -0.000523
     4  C    0.003001   0.003615  -0.024828   0.359989   0.005126
     5  C   -0.014387   0.000647   0.004544  -0.022354   0.335093
     6  H   -0.010063   0.000289  -0.000022   0.000289  -0.010063
     7  H    0.334450   0.000259  -0.000046  -0.000013   0.000369
     8  H    0.000259   0.372795  -0.000968  -0.000071  -0.000013
     9  H   -0.000046  -0.000968   0.390786  -0.000968  -0.000046
    10  H   -0.000013  -0.000071  -0.000968   0.372795   0.000259
    11  H    0.000369  -0.000013  -0.000046   0.000259   0.334450
          Atomic-Atomic Spin Densities.
               1          2          3          4          5          6
     1  C    0.558333  -0.040643  -0.022171  -0.009593   0.018011  -0.004621
     2  C   -0.040643  -0.316527   0.027373   0.000817  -0.009593   0.000461
     3  C   -0.022171   0.027373   0.760591   0.027373  -0.022171   0.000189
     4  C   -0.009593   0.000817   0.027373  -0.316527  -0.040643   0.000461
     5  C    0.018011  -0.009593  -0.022171  -0.040643   0.558333  -0.004621
     6  H   -0.004621   0.000461   0.000189   0.000461  -0.004621  -0.017338
     7  H   -0.003523  -0.000602   0.000133  -0.000123   0.000157  -0.000093
     8  H   -0.000396   0.002305  -0.001086  -0.000150   0.000084   0.000029
     9  H   -0.000009   0.000020  -0.001715   0.000020  -0.000009  -0.000002
    10  H    0.000084  -0.000150  -0.001086   0.002305  -0.000396   0.000029
    11  H    0.000157  -0.000123   0.000133  -0.000602  -0.003523  -0.000093
               7          8          9         10         11
     1  C   -0.003523  -0.000396  -0.000009   0.000084   0.000157
     2  C   -0.000602   0.002305   0.000020  -0.000150  -0.000123
     3  C    0.000133  -0.001086  -0.001715  -0.001086   0.000133
     4  C   -0.000123  -0.000150   0.000020   0.002305  -0.000602
     5  C    0.000157   0.000084  -0.000009  -0.000396  -0.003523
     6  H   -0.000093   0.000029  -0.000002   0.000029  -0.000093
     7  H   -0.020493   0.000045   0.000004  -0.000000  -0.000080
     8  H    0.000045   0.009719   0.000005  -0.000000  -0.000000
     9  H    0.000004   0.000005  -0.030169   0.000005   0.000004
    10  H   -0.000000  -0.000000   0.000005   0.009719   0.000045
    11  H   -0.000080  -0.000000   0.000004   0.000045  -0.020493
 Mulliken charges and spin densities:
               1          2
     1  C   -0.349551   0.495626
     2  C   -0.097708  -0.336663
     3  C   -0.068204   0.767562
     4  C   -0.097708  -0.336663
     5  C   -0.349551   0.495626
     6  H    0.385800  -0.025599
     7  H    0.346734  -0.024576
     8  H    0.296896   0.010554
     9  H    0.289662  -0.031846
    10  H    0.296896   0.010554
    11  H    0.346734  -0.024576
 Sum of Mulliken charges =   1.00000   1.00000
 Mulliken charges and spin densities with hydrogens summed into heavy atoms:
               1          2
     1  C    0.382983   0.445451
     2  C    0.199188  -0.326109
     3  C    0.221458   0.735717
     4  C    0.199188  -0.326109
     5  C   -0.002817   0.471050
 Electronic spatial extent (au):  <R**2>=            317.3110
 Charge=              1.0000 electrons
 Dipole moment (field-independent basis, Debye):
    X=             -0.0000    Y=             -0.0000    Z=             -2.0669  Tot=              2.0669
 Quadrupole moment (field-independent basis, Debye-Ang):
   XX=            -30.6419   YY=            -16.7617   ZZ=            -12.4613
   XY=              0.0000   XZ=              0.0000   YZ=              0.0000
 Traceless Quadrupole moment (field-independent basis, Debye-Ang):
   XX=            -10.6869   YY=              3.1932   ZZ=              7.4937
   XY=              0.0000   XZ=              0.0000   YZ=              0.0000
 Octapole moment (field-independent basis, Debye-Ang**2):
  XXX=              0.0000  YYY=              0.0000  ZZZ=             -7.6499  XYY=             -0.0000
  XXY=             -0.0000  XXZ=              0.6258  XZZ=              0.0000  YZZ=              0.0000
  YYZ=             -2.6890  XYZ=             -0.0000
 Hexadecapole moment (field-independent basis, Debye-Ang**3):
 XXXX=            -29.9260 YYYY=           -137.8983 ZZZZ=           -118.9565 XXXY=             -0.0000
 XXXZ=             -0.0000 YYYX=             -0.0000 YYYZ=              0.0000 ZZZX=              0.0000
 ZZZY=             -0.0000 XXYY=            -41.0202 XXZZ=            -37.6669 YYZZ=            -40.5710
 XXYZ=              0.0000 YYXZ=             -0.0000 ZZXY=             -0.0000
 N-N= 1.560127424860D+02 E-N=-7.529427127589D+02  KE= 1.930637714379D+02
 Symmetry A1   KE= 1.115217831733D+02
 Symmetry A2   KE= 2.579179074245D+00
 Symmetry B1   KE= 3.329971171462D+00
 Symmetry B2   KE= 7.563283801888D+01
 Symmetry A1   SP=-2.707811866441D-15
 Symmetry A2   SP= 8.950305774302D-15
 Symmetry B1   SP= 1.000000000000D+00
 Symmetry B2   SP= 2.026479570087D-14
                          Isotropic Fermi Contact Couplings
        Atom                 a.u.       MegaHertz       Gauss      10(-4) cm-1
     1  C(13)              0.08252      92.77224      33.10344      30.94549
     2  C(13)             -0.06011     -67.57230     -24.11148     -22.53969
     3  C(13)              0.11813     132.80090      47.38666      44.29761
     4  C(13)             -0.06011     -67.57230     -24.11148     -22.53969
     5  C(13)              0.08252      92.77224      33.10344      30.94549
     6  H(1)              -0.00987     -44.11804     -15.74242     -14.71620
     7  H(1)              -0.01088     -48.64706     -17.35848     -16.22691
     8  H(1)               0.00440      19.67785       7.02155       6.56383
     9  H(1)              -0.01489     -66.57830     -23.75679     -22.20813
    10  H(1)               0.00440      19.67785       7.02155       6.56383
    11  H(1)              -0.01088     -48.64706     -17.35848     -16.22691
 --------------------------------------------------------
       Center         ----  Spin Dipole Couplings  ----
                      3XX-RR        3YY-RR        3ZZ-RR
 --------------------------------------------------------
     1   Atom        0.521387     -0.253908     -0.267479
     2   Atom       -0.231318      0.113287      0.118031
     3   Atom        0.725992     -0.371260     -0.354732
     4   Atom       -0.231318      0.113287      0.118031
     5   Atom        0.521387     -0.253908     -0.267479
     6   Atom       -0.009243      0.009246     -0.000003
     7   Atom       -0.007004      0.007404     -0.000400
     8   Atom       -0.006010     -0.003275      0.009284
     9   Atom       -0.008737     -0.047091      0.055829
    10   Atom       -0.006010     -0.003275      0.009284
    11   Atom       -0.007004      0.007404     -0.000400
 --------------------------------------------------------
                        XY            XZ            YZ
 --------------------------------------------------------
     1   Atom       -0.000000      0.000000     -0.008683
     2   Atom       -0.000000      0.000000     -0.004800
     3   Atom       -0.000000     -0.000000      0.000000
     4   Atom       -0.000000     -0.000000      0.004800
     5   Atom        0.000000      0.000000      0.008683
     6   Atom       -0.000000      0.000000      0.000000
     7   Atom        0.000000      0.000000     -0.037417
     8   Atom       -0.000000      0.000000     -0.007383
     9   Atom       -0.000000     -0.000000      0.000000
    10   Atom        0.000000     -0.000000      0.007383
    11   Atom       -0.000000     -0.000000      0.037417
 --------------------------------------------------------


 ---------------------------------------------------------------------------------
              Anisotropic Spin Dipole Couplings in Principal Axis System
 ---------------------------------------------------------------------------------

       Atom             a.u.   MegaHertz   Gauss  10(-4) cm-1        Axes

              Baa    -0.2717   -36.461   -13.010   -12.162 -0.0000  0.4383  0.8988
     1 C(13)  Bbb    -0.2497   -33.504   -11.955   -11.176 -0.0000  0.8988 -0.4383
              Bcc     0.5214    69.965    24.965    23.338  1.0000  0.0000  0.0000
 
              Baa    -0.2313   -31.041   -11.076   -10.354  1.0000  0.0000  0.0000
     2 C(13)  Bbb     0.1103    14.802     5.282     4.937 -0.0000  0.8494  0.5277
              Bcc     0.1210    16.239     5.794     5.417  0.0000 -0.5277  0.8494
 
              Baa    -0.3713   -49.819   -17.777   -16.618  0.0000  1.0000  0.0000
     3 C(13)  Bbb    -0.3547   -47.602   -16.985   -15.878  0.0000  0.0000  1.0000
              Bcc     0.7260    97.421    34.762    32.496  1.0000  0.0000  0.0000
 
              Baa    -0.2313   -31.041   -11.076   -10.354  1.0000  0.0000  0.0000
     4 C(13)  Bbb     0.1103    14.802     5.282     4.937 -0.0000  0.8494 -0.5277
              Bcc     0.1210    16.239     5.794     5.417 -0.0000  0.5277  0.8494
 
              Baa    -0.2717   -36.461   -13.010   -12.162 -0.0000 -0.4383  0.8988
     5 C(13)  Bbb    -0.2497   -33.504   -11.955   -11.176  0.0000  0.8988  0.4383
              Bcc     0.5214    69.965    24.965    23.338  1.0000 -0.0000  0.0000
 
              Baa    -0.0092    -4.932    -1.760    -1.645  1.0000 -0.0000 -0.0000
     6 H(1)   Bbb    -0.0000    -0.002    -0.001    -0.001  0.0000 -0.0000  1.0000
              Bcc     0.0092     4.933     1.760     1.646 -0.0000  1.0000  0.0000
 
              Baa    -0.0341   -18.204    -6.496    -6.072 -0.0000  0.6694  0.7429
     7 H(1)   Bbb    -0.0070    -3.737    -1.334    -1.247  1.0000  0.0000  0.0000
              Bcc     0.0411    21.941     7.829     7.319 -0.0000  0.7429 -0.6694
 
              Baa    -0.0067    -3.568    -1.273    -1.190 -0.0000  0.9077  0.4196
     8 H(1)   Bbb    -0.0060    -3.206    -1.144    -1.070  1.0000  0.0000  0.0000
              Bcc     0.0127     6.774     2.417     2.260  0.0000 -0.4196  0.9077
 
              Baa    -0.0471   -25.126    -8.966    -8.381 -0.0000  1.0000 -0.0000
     9 H(1)   Bbb    -0.0087    -4.662    -1.663    -1.555  1.0000  0.0000  0.0000
              Bcc     0.0558    29.788    10.629     9.936  0.0000  0.0000  1.0000
 
              Baa    -0.0067    -3.568    -1.273    -1.190 -0.0000  0.9077 -0.4196
    10 H(1)   Bbb    -0.0060    -3.206    -1.144    -1.070  1.0000  0.0000 -0.0000
              Bcc     0.0127     6.774     2.417     2.260  0.0000  0.4196  0.9077
 
              Baa    -0.0341   -18.204    -6.496    -6.072  0.0000 -0.6694  0.7429
    11 H(1)   Bbb    -0.0070    -3.737    -1.334    -1.247  1.0000  0.0000  0.0000
              Bcc     0.0411    21.941     7.829     7.319 -0.0000  0.7429  0.6694
 

 ---------------------------------------------------------------------------------

 No NMR shielding tensors so no spin-rotation constants.
 Leave Link  601 at Thu Mar  5 12:54:15 2020, MaxMem=  6710886400 cpu:               3.1 elap:               0.2
 (Enter /opt/ohpc/pub/libs/gaussian/g16-A.03/sandybridge/g16/l9999.exe)

 Test job not archived.
 1\1\GINC-CNODE212\SP\ULC-wHPBE\6-31G\C5H6(1+,2)\SMGO234\05-Mar-2020\0\
 \#P uLC-wHPBE/6-31G iop(3/130=0137600000, 3/131=0137600000, 3/119=0862
 400000, 3/120=0862400000) scf=(conver=6,fermi,ndamp=35,noincfock,novar
 acc,vshift=500,xqc)\\H6 C5\\1,2\C,0,0.,0.878804,-0.931542\C,0,0.,1.128
 157,0.423457\C,0,0.,0.,1.240879\C,0,0.,-1.128157,0.423457\C,0,0.,-0.87
 8804,-0.931542\H,0,0.,0.,-1.732269\H,0,0.,1.6083,-1.734053\H,0,0.,2.15
 6626,0.76567\H,0,0.,0.,2.320778\H,0,0.,-2.156626,0.76567\H,0,0.,-1.608
 3,-1.734053\\Version=EM64L-G16RevA.03\State=2-B1\HF=-198.4349333\S2=0.
 835266\S2-1=0.\S2A=0.754072\RMSD=6.457e-07\Dipole=0.,0.,-0.8131742\Qua
 drupole=-7.9454624,2.3740823,5.5713801,0.,0.,0.\PG=C02V [C2(H1C1H1),SG
 V(C4H4)]\\@


 THERE IS NO CURE FOR BIRTH AND DEATH SAVE TO ENJOY THE INTERVAL.

                               -- GEORGE SANTAYANA
 Job cpu time:       0 days  0 hours  1 minutes  5.3 seconds.
 Elapsed time:       0 days  0 hours  0 minutes  4.5 seconds.
 File lengths (MBytes):  RWF=    272 Int=      0 D2E=      0 Chk=     32 Scr=     32
 Normal termination of Gaussian 16 at Thu Mar  5 12:54:15 2020.
