 *******************************************************************************
 ** Site#: 29200        For non-commercial use only    Version 19.090L 64BITS **
 *******************************************************************************
 ** Cite this program as: MOPAC2016, Version: 19.090L, James J. P. Stewart,   **
 ** Stewart Computational Chemistry, web: HTTP://OpenMOPAC.net. Days left: 174**
 *******************************************************************************
 **                                                                           **
 **                                MOPAC2016                                  **
 **                                                                           **
 *******************************************************************************

                              PM7 CALCULATION RESULTS

 *******************************************************************************
 *  CALCULATION DONE:                                Tue Oct  8 20:07:28 2019  *
 *  CHARGES    - IDENTIFY AND PRINT CHARGED ATOMS
 *  T=         - A TIME OF 172800.0 SECONDS REQUESTED
 *  DUMP=N     - RESTART FILE WRITTEN EVERY  7200.000 SECONDS
 *******************************************************************************
CHARGES


   ATOM   CHEMICAL          X               Y               Z
  NUMBER   SYMBOL      (ANGSTROMS)     (ANGSTROMS)     (ANGSTROMS)
 
     1       H          6.41158400  *   0.01928600  *  14.99558000  *
     2       C          6.46325300  *   0.13781100  *  15.93681400  *
     3       C          6.53353400  *  -0.99138400  *  16.77967600  *
     4       C          6.46864700  *   1.40645500  *  16.46271700  *
     5       C          6.63169500  *  -0.77723500  *  18.17293200  *
     6       N          6.49005500  *  -2.26380700  *  16.23033500  *
     7       H          6.41145100  *   2.15604000  *  15.88179100  *
     8       C          6.55784600  *   1.60775500  *  17.84881800  *
     9       C          6.64107100  *   0.53020800  *  18.68703100  *
    10       S          6.73607900  *  -2.04537500  *  19.32329600  *
    11       C          6.56498200  *  -3.44616100  *  16.95101700  *
    12       C          6.24220500  *  -2.36294500  *  14.79810400  *
    13       H          6.56031000  *   2.48901600  *  18.20348900  *
    14       H          6.70587500  *   0.66699900  *  19.62479800  *
    15       C          6.68529700  *  -3.46404900  *  18.35892900  *
    16       C          6.50864100  *  -4.68369100  *  16.27816200  *
    17       C          7.31184900  *  -2.48060100  *  13.92902900  *
    18       C          4.93226200  *  -2.33586200  *  14.35861100  *
    19       C          6.75242500  *  -4.68381700  *  19.04825600  *
    20       H          6.42949000  *  -4.69938600  *  15.33167300  *
    21       C          6.56664200  *  -5.86629700  *  16.97271900  *
    22       H          8.20463000  *  -2.48026100  *  14.25389100  *
    23       C          7.04923000  *  -2.59951700  *  12.56722300  *
    24       H          4.21434500  *  -2.24483600  *  14.97400600  *
    25       C          4.69047000  *  -2.44495200  *  12.99309200  *
    26       H          6.84535800  *  -4.68568100  *  19.99366700  *
    27       C          6.68521400  *  -5.87448500  *  18.36942200  *
    28       H          6.52582600  *  -6.68968700  *  16.50063900  *
    29       H          7.76746300  *  -2.68779700  *  11.95178600  *
    30       C          5.74401700  *  -2.58931300  *  12.10853400  *
    31       H          3.79856900  *  -2.42024900  *  12.66678600  *
    32       H          6.71879500  *  -6.69774900  *  18.84226400  *
    33       H          5.57012400  *  -2.68212800  *  11.17920200  *
 


          CARTESIAN COORDINATES 

    NO.       ATOM           X           Y           Z

     1         H          6.4116      0.0193     14.9956
     2         C          6.4633      0.1378     15.9368
     3         C          6.5335     -0.9914     16.7797
     4         C          6.4686      1.4065     16.4627
     5         C          6.6317     -0.7772     18.1729
     6         N          6.4901     -2.2638     16.2303
     7         H          6.4115      2.1560     15.8818
     8         C          6.5578      1.6078     17.8488
     9         C          6.6411      0.5302     18.6870
    10         S          6.7361     -2.0454     19.3233
    11         C          6.5650     -3.4462     16.9510
    12         C          6.2422     -2.3629     14.7981
    13         H          6.5603      2.4890     18.2035
    14         H          6.7059      0.6670     19.6248
    15         C          6.6853     -3.4640     18.3589
    16         C          6.5086     -4.6837     16.2782
    17         C          7.3118     -2.4806     13.9290
    18         C          4.9323     -2.3359     14.3586
    19         C          6.7524     -4.6838     19.0483
    20         H          6.4295     -4.6994     15.3317
    21         C          6.5666     -5.8663     16.9727
    22         H          8.2046     -2.4803     14.2539
    23         C          7.0492     -2.5995     12.5672
    24         H          4.2143     -2.2448     14.9740
    25         C          4.6905     -2.4450     12.9931
    26         H          6.8454     -4.6857     19.9937
    27         C          6.6852     -5.8745     18.3694
    28         H          6.5258     -6.6897     16.5006
    29         H          7.7675     -2.6878     11.9518
    30         C          5.7440     -2.5893     12.1085
    31         H          3.7986     -2.4202     12.6668
    32         H          6.7188     -6.6977     18.8423
    33         H          5.5701     -2.6821     11.1792

 General Reference for PM7:
 "Optimization of Parameters for Semiempirical Methods VI: More Modifications to the 
 NDDO Approximations and Re-optimization of Parameters", J. J. P. Stewart, J. Mol. Mod., 1:32, 19 (2013)
 http://www.springerlink.com/openurl.asp?genre=article&id=doi:10.1007/s00894-012-1667-x

           Empirical Formula: C18 H13 N S  =    33 atoms



      MOLECULAR POINT GROUP   :   C1  

          COMPUTED CHARGE ON SYSTEM: +0

   COMPUTED CHARGE ON SYSTEM = +0. THIS AGREES WITH THE CHARGE IN THE DATA-SET.

          JOB STOPPED HERE BECAUSE KEYWORD "CHARGES" WAS USED

 ******************************************************************************
 *                                                                            *
 *     Error and normal termination messages reported in this calculation     *
 *                                                                            *
 * JOB STOPPED HERE BECAUSE KEYWORD "CHARGES" WAS USED                        *
 * JOB ENDED NORMALLY                                                         *
 *                                                                            *
 ******************************************************************************



 TOTAL JOB TIME:             0.00 SECONDS

 == MOPAC DONE ==
