 *******************************************************************************
 ** Site#: 29200        For non-commercial use only    Version 19.090L 64BITS **
 *******************************************************************************
 ** Cite this program as: MOPAC2016, Version: 19.090L, James J. P. Stewart,   **
 ** Stewart Computational Chemistry, web: HTTP://OpenMOPAC.net. Days left: 174**
 *******************************************************************************
 **                                                                           **
 **                                MOPAC2016                                  **
 **                                                                           **
 *******************************************************************************

                              PM7 CALCULATION RESULTS

 *******************************************************************************
 *  CALCULATION DONE:                                Tue Oct  8 20:08:36 2019  *
 *  CHARGES    - IDENTIFY AND PRINT CHARGED ATOMS
 *  T=         - A TIME OF 172800.0 SECONDS REQUESTED
 *  DUMP=N     - RESTART FILE WRITTEN EVERY  7200.000 SECONDS
 *******************************************************************************
CHARGES


   ATOM   CHEMICAL          X               Y               Z
  NUMBER   SYMBOL      (ANGSTROMS)     (ANGSTROMS)     (ANGSTROMS)
 
     1       P          6.33378100  *   4.49984300  *  20.23513900  *
     2       F          7.83065400  *   4.78254000  *  20.74151100  *
     3       F          4.85743500  *   4.17661700  *  19.74402600  *
     4       F          6.74355900  *   4.92101800  *  18.75308100  *
     5       F          5.94475500  *   4.07394100  *  21.73340500  *
     6       F          6.77530500  *   2.98908700  *  19.93750900  *
     7       F          5.93510800  *   5.99573800  *  20.55767000  *
 


          CARTESIAN COORDINATES 

    NO.       ATOM           X           Y           Z

     1         P          6.3338      4.4998     20.2351
     2         F          7.8307      4.7825     20.7415
     3         F          4.8574      4.1766     19.7440
     4         F          6.7436      4.9210     18.7531
     5         F          5.9448      4.0739     21.7334
     6         F          6.7753      2.9891     19.9375
     7         F          5.9351      5.9957     20.5577

 General Reference for PM7:
 "Optimization of Parameters for Semiempirical Methods VI: More Modifications to the 
 NDDO Approximations and Re-optimization of Parameters", J. J. P. Stewart, J. Mol. Mod., 1:32, 19 (2013)
 http://www.springerlink.com/openurl.asp?genre=article&id=doi:10.1007/s00894-012-1667-x

           Empirical Formula: P F6  =     7 atoms



      MOLECULAR POINT GROUP   :   Ci  

   TOPOGRAPHY OF SYSTEM

   ATOM No.    LABEL   Atoms connected to this atom
      1          P      2      3      4      5      6      7
      2          F      1
      3          F      1
      4          F      1
      5          F      1
      6          F      1
      7          F      1

     Ion Atom No.  Type    Charge
 
    1       1      P       -1

          COMPUTED CHARGE ON SYSTEM: -1

          COMPUTED CHARGE ON SYSTEM:  -1

          JOB STOPPED HERE BECAUSE KEYWORD "CHARGES" WAS USED

 ******************************************************************************
 *                                                                            *
 *     Error and normal termination messages reported in this calculation     *
 *                                                                            *
 * JOB STOPPED HERE BECAUSE KEYWORD "CHARGES" WAS USED                        *
 * JOB ENDED NORMALLY                                                         *
 *                                                                            *
 ******************************************************************************



 TOTAL JOB TIME:             0.00 SECONDS

 == MOPAC DONE ==
