 Entering Gaussian System, Link 0=g16
 Input=1b_tune_c5.gjf
 Output=1b_tune_c5.log
 Initial command:
 /opt/ohpc/pub/libs/gaussian/g16-A.03/haswell/g16/l1.exe "/scratch/smgo234/Ocelot/test/1b/tuning_1b_ocycle2/Gau-44634.inp" -scrdir="/scratch/smgo234/Ocelot/test/1b/tuning_1b_ocycle2/"
 Entering Link 1 = /opt/ohpc/pub/libs/gaussian/g16-A.03/haswell/g16/l1.exe PID=     44635.
  
 Copyright (c) 1988,1990,1992,1993,1995,1998,2003,2009,2016,
            Gaussian, Inc.  All Rights Reserved.
  
 This is part of the Gaussian(R) 16 program.  It is based on
 the Gaussian(R) 09 system (copyright 2009, Gaussian, Inc.),
 the Gaussian(R) 03 system (copyright 2003, Gaussian, Inc.),
 the Gaussian(R) 98 system (copyright 1998, Gaussian, Inc.),
 the Gaussian(R) 94 system (copyright 1995, Gaussian, Inc.),
 the Gaussian 92(TM) system (copyright 1992, Gaussian, Inc.),
 the Gaussian 90(TM) system (copyright 1990, Gaussian, Inc.),
 the Gaussian 88(TM) system (copyright 1988, Gaussian, Inc.),
 the Gaussian 86(TM) system (copyright 1986, Carnegie Mellon
 University), and the Gaussian 82(TM) system (copyright 1983,
 Carnegie Mellon University). Gaussian is a federally registered
 trademark of Gaussian, Inc.
  
 This software contains proprietary and confidential information,
 including trade secrets, belonging to Gaussian, Inc.
  
 This software is provided under written license and may be
 used, copied, transmitted, or stored only in accord with that
 written license.
  
 The following legend is applicable only to US Government
 contracts under FAR:
  
                    RESTRICTED RIGHTS LEGEND
  
 Use, reproduction and disclosure by the US Government is
 subject to restrictions as set forth in subparagraphs (a)
 and (c) of the Commercial Computer Software - Restricted
 Rights clause in FAR 52.227-19.
  
 Gaussian, Inc.
 340 Quinnipiac St., Bldg. 40, Wallingford CT 06492
  
  
 ---------------------------------------------------------------
 Warning -- This program may not be used in any manner that
 competes with the business of Gaussian, Inc. or will provide
 assistance to any competitor of Gaussian, Inc.  The licensee
 of this program is prohibited from giving any competitor of
 Gaussian, Inc. access to this program.  By using this program,
 the user acknowledges that Gaussian, Inc. is engaged in the
 business of creating and licensing software in the field of
 computational chemistry and represents and warrants to the
 licensee that it is not a competitor of Gaussian, Inc. and that
 it will not use this program in any manner prohibited above.
 ---------------------------------------------------------------
  

 Cite this work as:
 Gaussian 16, Revision A.03,
 M. J. Frisch, G. W. Trucks, H. B. Schlegel, G. E. Scuseria, 
 M. A. Robb, J. R. Cheeseman, G. Scalmani, V. Barone, 
 G. A. Petersson, H. Nakatsuji, X. Li, M. Caricato, A. V. Marenich, 
 J. Bloino, B. G. Janesko, R. Gomperts, B. Mennucci, H. P. Hratchian, 
 J. V. Ortiz, A. F. Izmaylov, J. L. Sonnenberg, D. Williams-Young, 
 F. Ding, F. Lipparini, F. Egidi, J. Goings, B. Peng, A. Petrone, 
 T. Henderson, D. Ranasinghe, V. G. Zakrzewski, J. Gao, N. Rega, 
 G. Zheng, W. Liang, M. Hada, M. Ehara, K. Toyota, R. Fukuda, 
 J. Hasegawa, M. Ishida, T. Nakajima, Y. Honda, O. Kitao, H. Nakai, 
 T. Vreven, K. Throssell, J. A. Montgomery, Jr., J. E. Peralta, 
 F. Ogliaro, M. J. Bearpark, J. J. Heyd, E. N. Brothers, K. N. Kudin, 
 V. N. Staroverov, T. A. Keith, R. Kobayashi, J. Normand, 
 K. Raghavachari, A. P. Rendell, J. C. Burant, S. S. Iyengar, 
 J. Tomasi, M. Cossi, J. M. Millam, M. Klene, C. Adamo, R. Cammi, 
 J. W. Ochterski, R. L. Martin, K. Morokuma, O. Farkas, 
 J. B. Foresman, and D. J. Fox, Gaussian, Inc., Wallingford CT, 2016.
 
 ******************************************
 Gaussian 16:  ES64L-G16RevA.03 25-Dec-2016
                25-Feb-2020 
 ******************************************
 %mem=50GB
 %nproc=16
 Will use up to   16 processors via shared memory.
 ----------------------------------------------------------------------
 #P uLC-wHPBE/6-31G iop(3/107=0298300000, 3/108=0298300000) scf=(conver
 =6,fermi,ndamp=35,noincfock,novaracc,vshift=500,xqc)
 ----------------------------------------------------------------------
 1/38=1,172=1/1;
 2/12=2,17=6,18=5,40=1/2;
 3/5=1,6=6,11=2,25=1,30=1,74=-71,107=298300000,108=298300000,116=2/1,2,3;
 4//1;
 5/5=100002,6=6,8=3,10=500,13=1,18=-1,22=13,38=1,93=35/2,8;
 6/7=2,8=2,9=2,10=2,28=1/1;
 99/5=1,9=1/99;
 Leave Link    1 at Tue Feb 25 12:23:30 2020, MaxMem=  6710886400 cpu:               9.9 elap:               0.7
 (Enter /opt/ohpc/pub/libs/gaussian/g16-A.03/haswell/g16/l101.exe)
 -----
 H6 C5
 -----
 Symbolic Z-matrix:
 Charge =  1 Multiplicity = 2
 C                     0.        0.89521  -0.93345 
 C                     0.        1.13161   0.42437 
 C                     0.        0.        1.24092 
 C                     0.       -1.13161   0.42437 
 C                     0.       -0.89521  -0.93345 
 H                     0.        0.       -1.7208 
 H                     0.        1.62009  -1.74222 
 H                     0.        2.16001   0.77306 
 H                     0.        0.        2.32259 
 H                     0.       -2.16001   0.77306 
 H                     0.       -1.62009  -1.74222 
 
 ITRead=  0  0  0  0  0  0  0  0  0  0  0
 MicOpt= -1 -1 -1 -1 -1 -1 -1 -1 -1 -1 -1
 NAtoms=     11 NQM=       11 NQMF=       0 NMMI=      0 NMMIF=      0
                NMic=       0 NMicF=      0.
                    Isotopes and Nuclear Properties:
 (Nuclear quadrupole moments (NQMom) in fm**2, nuclear magnetic moments (NMagM)
  in nuclear magnetons)

  Atom         1           2           3           4           5           6           7           8           9          10
 IAtWgt=          12          12          12          12          12           1           1           1           1           1
 AtmWgt=  12.0000000  12.0000000  12.0000000  12.0000000  12.0000000   1.0078250   1.0078250   1.0078250   1.0078250   1.0078250
 NucSpn=           0           0           0           0           0           1           1           1           1           1
 AtZEff=  -0.0000000  -0.0000000  -0.0000000  -0.0000000  -0.0000000  -0.0000000  -0.0000000  -0.0000000  -0.0000000  -0.0000000
 NQMom=    0.0000000   0.0000000   0.0000000   0.0000000   0.0000000   0.0000000   0.0000000   0.0000000   0.0000000   0.0000000
 NMagM=    0.0000000   0.0000000   0.0000000   0.0000000   0.0000000   2.7928460   2.7928460   2.7928460   2.7928460   2.7928460
 AtZNuc=   6.0000000   6.0000000   6.0000000   6.0000000   6.0000000   1.0000000   1.0000000   1.0000000   1.0000000   1.0000000

  Atom        11
 IAtWgt=           1
 AtmWgt=   1.0078250
 NucSpn=           1
 AtZEff=  -0.0000000
 NQMom=    0.0000000
 NMagM=    2.7928460
 AtZNuc=   1.0000000
 Leave Link  101 at Tue Feb 25 12:23:30 2020, MaxMem=  6710886400 cpu:               2.5 elap:               0.2
 (Enter /opt/ohpc/pub/libs/gaussian/g16-A.03/haswell/g16/l202.exe)
                          Input orientation:                          
 ---------------------------------------------------------------------
 Center     Atomic      Atomic             Coordinates (Angstroms)
 Number     Number       Type             X           Y           Z
 ---------------------------------------------------------------------
      1          6           0        0.000000    0.895213   -0.933453
      2          6           0        0.000000    1.131613    0.424372
      3          6           0        0.000000    0.000000    1.240919
      4          6           0        0.000000   -1.131613    0.424372
      5          6           0        0.000000   -0.895213   -0.933453
      6          1           0        0.000000    0.000000   -1.720797
      7          1           0        0.000000    1.620085   -1.742217
      8          1           0        0.000000    2.160007    0.773055
      9          1           0        0.000000    0.000000    2.322589
     10          1           0        0.000000   -2.160007    0.773055
     11          1           0        0.000000   -1.620085   -1.742217
 ---------------------------------------------------------------------
                    Distance matrix (angstroms):
                    1          2          3          4          5
     1  C    0.000000
     2  C    1.378250   0.000000
     3  C    2.351446   1.395456   0.000000
     4  C    2.439613   2.263226   1.395456   0.000000
     5  C    1.790426   2.439613   2.351446   1.378250   0.000000
     6  H    1.192190   2.425345   2.961716   2.425345   1.192190
     7  H    1.086066   2.220971   3.394669   3.502278   2.642125
     8  H    2.124117   1.085898   2.210097   3.310037   3.499506
     9  H    3.376865   2.209927   1.081670   2.209927   3.376865
    10  H    3.499506   3.310037   2.210097   1.085898   2.124117
    11  H    2.642125   3.502278   3.394669   2.220971   1.086066
                    6          7          8          9         10
     6  H    0.000000
     7  H    1.620227   0.000000
     8  H    3.299231   2.572569   0.000000
     9  H    4.043386   4.375765   2.658324   0.000000
    10  H    3.299231   4.540450   4.320014   2.658324   0.000000
    11  H    1.620227   3.240170   4.540450   4.375765   2.572569
                   11
    11  H    0.000000
 Stoichiometry    C5H6(1+,2)
 Framework group  C2V[C2(HCH),SGV(C4H4)]
 Deg. of freedom    10
 Full point group                 C2V     NOp   4
 Largest Abelian subgroup         C2V     NOp   4
 Largest concise Abelian subgroup C2      NOp   2
                         Standard orientation:                         
 ---------------------------------------------------------------------
 Center     Atomic      Atomic             Coordinates (Angstroms)
 Number     Number       Type             X           Y           Z
 ---------------------------------------------------------------------
      1          6           0        0.000000    0.895213   -0.933453
      2          6           0        0.000000    1.131613    0.424372
      3          6           0        0.000000   -0.000000    1.240919
      4          6           0       -0.000000   -1.131613    0.424372
      5          6           0       -0.000000   -0.895213   -0.933453
      6          1           0       -0.000000    0.000000   -1.720797
      7          1           0        0.000000    1.620085   -1.742217
      8          1           0        0.000000    2.160007    0.773055
      9          1           0        0.000000   -0.000000    2.322589
     10          1           0       -0.000000   -2.160007    0.773055
     11          1           0       -0.000000   -1.620085   -1.742217
 ---------------------------------------------------------------------
 Rotational constants (GHZ):           8.5037938           7.8157507           4.0726340
 Leave Link  202 at Tue Feb 25 12:23:30 2020, MaxMem=  6710886400 cpu:               0.2 elap:               0.0
 (Enter /opt/ohpc/pub/libs/gaussian/g16-A.03/haswell/g16/l301.exe)
 Standard basis: 6-31G (6D, 7F)
 Ernie: Thresh=  0.10000D-02 Tol=  0.10000D-05 Strict=F.
 There are    27 symmetry adapted cartesian basis functions of A1  symmetry.
 There are     4 symmetry adapted cartesian basis functions of A2  symmetry.
 There are     6 symmetry adapted cartesian basis functions of B1  symmetry.
 There are    20 symmetry adapted cartesian basis functions of B2  symmetry.
 There are    27 symmetry adapted basis functions of A1  symmetry.
 There are     4 symmetry adapted basis functions of A2  symmetry.
 There are     6 symmetry adapted basis functions of B1  symmetry.
 There are    20 symmetry adapted basis functions of B2  symmetry.
    57 basis functions,   134 primitive gaussians,    57 cartesian basis functions
    18 alpha electrons       17 beta electrons
       nuclear repulsion energy       155.4439185285 Hartrees.
 IExCor=33909 DFT=T Ex+Corr=LC-wHPBE ExCW=0 ScaHFX=  1.000000
 ScaDFX=  1.000000  1.000000  1.000000  1.000000 ScalE2=  1.000000  1.000000
 IRadAn=      5 IRanWt=     -1 IRanGd=            0 ICorTp=0 IEmpDi=  4
 HFx  wShort=  0.000000 wLong=  0.298300 cFull=  0.000000 cShort=  0.000000 cLong=  1.000000
 DFx  wShort=  0.000000 wLong=  0.298300 cFull=  0.000000 cShort=  1.000000 cLong=  0.000000
 NAtoms=   11 NActive=   11 NUniq=    7 SFac= 2.47D+00 NAtFMM=   60 NAOKFM=F Big=F
 Integral buffers will be    131072 words long.
 Raffenetti 2 integral format.
 Two-electron integral symmetry is turned on.
 Leave Link  301 at Tue Feb 25 12:23:30 2020, MaxMem=  6710886400 cpu:               1.0 elap:               0.1
 (Enter /opt/ohpc/pub/libs/gaussian/g16-A.03/haswell/g16/l302.exe)
 NPDir=0 NMtPBC=     1 NCelOv=     1 NCel=       1 NClECP=     1 NCelD=      1
         NCelK=      1 NCelE2=     1 NClLst=     1 CellRange=     0.0.
 One-electron integrals computed using PRISM.
 One-electron integral symmetry used in STVInt
 NBasis=    57 RedAO= T EigKep=  1.90D-03  NBF=    27     4     6    20
 NBsUse=    57 1.00D-06 EigRej= -1.00D+00 NBFU=    27     4     6    20
 Precomputing XC quadrature grid using
 IXCGrd= 4 IRadAn=           5 IRanWt=          -1 IRanGd=           0 AccXCQ= 0.00D+00.
 Generated NRdTot=       0 NPtTot=           0 NUsed=           0 NTot=          32
 NSgBfM=    57    57    57    57    57 MxSgAt=    11 MxSgA2=    11.
 Leave Link  302 at Tue Feb 25 12:23:30 2020, MaxMem=  6710886400 cpu:               3.1 elap:               0.2
 (Enter /opt/ohpc/pub/libs/gaussian/g16-A.03/haswell/g16/l303.exe)
 DipDrv:  MaxL=1.
 Leave Link  303 at Tue Feb 25 12:23:30 2020, MaxMem=  6710886400 cpu:               0.7 elap:               0.1
 (Enter /opt/ohpc/pub/libs/gaussian/g16-A.03/haswell/g16/l401.exe)
 ExpMin= 1.61D-01 ExpMax= 3.05D+03 ExpMxC= 4.57D+02 IAcc=3 IRadAn=         5 AccDes= 0.00D+00
 Harris functional with IExCor=33909 and IRadAn=       5 diagonalized for initial guess.
 HarFok:  IExCor=33909 AccDes= 0.00D+00 IRadAn=         5 IDoV= 1 UseB2=F ITyADJ=14
 ICtDFT=  3500011 ScaDFX=  1.000000  1.000000  1.000000  1.000000
 FoFCou: FMM=F IPFlag=           0 FMFlag=      100000 FMFlg1=           0
         NFxFlg=           0 DoJE=T BraDBF=F KetDBF=T FulRan=T
         wScrn=  0.000000 ICntrl=       500 IOpCl=  0 I1Cent=   200000004 NGrid=           0
         NMat0=    1 NMatS0=      1 NMatT0=    0 NMatD0=    1 NMtDS0=    0 NMtDT0=    0
 Petite list used in FoFCou.
 Harris En= -188.141850899864    
 JPrj=0 DoOrth=F DoCkMO=F.
 Initial guess orbital symmetries:
 Alpha Orbitals:
       Occupied  (A1) (B2) (A1) (B2) (A1) (A1) (B2) (A1) (A1) (B2)
                 (A1) (B2) (A1) (B2) (A1) (B1) (A2) (B1)
       Virtual   (A2) (B2) (B1) (A1) (A1) (B2) (A1) (B2) (A1) (B2)
                 (A1) (B2) (A1) (B2) (B1) (A1) (A2) (B1) (B2) (A1)
                 (A1) (A2) (B1) (B2) (B2) (A1) (B2) (A1) (A1) (B2)
                 (A1) (A1) (A1) (B2) (A1) (B2) (A1) (A1) (B2)
 Beta  Orbitals:
       Occupied  (A1) (B2) (A1) (B2) (A1) (A1) (B2) (A1) (A1) (B2)
                 (A1) (B2) (A1) (B2) (A1) (B1) (A2)
       Virtual   (B1) (A2) (B2) (B1) (A1) (A1) (B2) (A1) (B2) (A1)
                 (B2) (A1) (B2) (A1) (B2) (B1) (A1) (A2) (B1) (B2)
                 (A1) (A1) (A2) (B1) (B2) (B2) (A1) (B2) (A1) (A1)
                 (B2) (A1) (A1) (A1) (B2) (A1) (B2) (A1) (A1) (B2)
 The electronic state of the initial guess is 2-B1.
 Initial guess <Sx>= 0.0000 <Sy>= 0.0000 <Sz>= 0.5000 <S**2>= 0.7500 S= 0.5000
 Leave Link  401 at Tue Feb 25 12:23:31 2020, MaxMem=  6710886400 cpu:               4.4 elap:               0.3
 (Enter /opt/ohpc/pub/libs/gaussian/g16-A.03/haswell/g16/l502.exe)
 Keep R1 and R2 ints in memory in symmetry-blocked form, NReq=16815681.
 FoFCou: FMM=F IPFlag=           0 FMFlag=           0 FMFlg1=           0
         NFxFlg=           0 DoJE=F BraDBF=F KetDBF=F FulRan=T
         wScrn=  0.000000 ICntrl=       600 IOpCl=  0 I1Cent=           0 NGrid=           0
         NMat0=    1 NMatS0=   1653 NMatT0=    0 NMatD0=    1 NMtDS0=    0 NMtDT0=    0
 Petite list used in FoFCou.
 UHF open shell SCF:
 Using DIIS extrapolation, IDIIS=    10.
 NGot=  6710886400 LenX=  6710059561 LenY=  6710055871
 Requested convergence on RMS density matrix=1.00D-06 within  32 cycles.
 Requested convergence on MAX density matrix=1.00D-04.
 Requested convergence on             energy=1.00D-04.
 Virtual orbitals will be shifted by   0.500 hartree.
 No special actions if energy rises.
 Dynamic level shift is on during FON iterations.

 Cycle   1  Pass 1  IDiag  1:
 E= -193.404202455716    
 DIIS: error= 4.75D-02 at cycle   1 NSaved=   1.
 NSaved= 1 IEnMin= 1 EnMin= -193.404202455716     IErMin= 1 ErrMin= 4.75D-02
 ErrMax= 4.75D-02  0.00D+00 EMaxC= 1.00D+00 BMatC= 1.86D-01 BMatP= 1.86D-01
 IDIUse=1 WtCom= 1.00D+00 WtEn= 0.00D+00
 Coeff-Com:  0.100D+01
 Coeff:      0.100D+01
 Gap=     0.349 Goal=   None    Shift=    0.500
 T= 1771. Gap= 0.819 NK=0 IS=   19 IE=   57 IFin=   18
          NO(<0.9)=   0  NV(>0.1)=   0     18.00e < EF      0.00e >EF  Err=0.0D+00
 Gap=     0.240 Goal=   None    Shift=    0.500
 T= 1771. Gap= 0.743 NK=0 IS=   18 IE=   57 IFin=   17
          NO(<0.9)=   0  NV(>0.1)=   0     17.00e < EF      0.00e >EF  Err=0.0D+00
 GapD=    0.240 DampG=1.000 DampE=0.500 DampFc=0.5000 IDamp=-1.
 Damping current iteration by 5.00D-01
 RMSDP=6.60D-03 MaxDP=4.92D-02              OVMax= 9.95D-02

 Cycle   2  Pass 1  IDiag  1:
 E= -193.439787325879     Delta-E=       -0.035584870163 Rises=F Damp=T
 DIIS: error= 2.24D-02 at cycle   2 NSaved=   2.
 NSaved= 2 IEnMin= 2 EnMin= -193.439787325879     IErMin= 2 ErrMin= 2.24D-02
 ErrMax= 2.24D-02  0.00D+00 EMaxC= 1.00D+00 BMatC= 3.16D-02 BMatP= 1.86D-01
 IDIUse=1 WtCom= 1.00D+00 WtEn= 0.00D+00
 Coeff-Com: -0.537D+00 0.154D+01
 Coeff:     -0.537D+00 0.154D+01
 Gap=     0.420 Goal=   None    Shift=    0.500
 T= 1655. Gap= 0.906 NK=4 IS=   19 IE=   23 IFin=   18
          NO(<0.9)=   0  NV(>0.1)=   0     18.00e < EF      0.00e >EF  Err=0.0D+00
 Gap=     0.267 Goal=   None    Shift=    0.500
 T= 1655. Gap= 0.765 NK=4 IS=   18 IE=   23 IFin=   17
          NO(<0.9)=   0  NV(>0.1)=   0     17.00e < EF      0.00e >EF  Err=0.0D+00
 GapD=    0.267 DampG=1.000 DampE=0.500 DampFc=0.5000 IDamp=-1.
 Damping current iteration by 5.00D-01
 RMSDP=3.92D-03 MaxDP=3.03D-02 DE=-3.56D-02 OVMax= 1.51D-02

 Cycle   3  Pass 1  IDiag  1:
 E= -193.452243935835     Delta-E=       -0.012456609956 Rises=F Damp=T
 DIIS: error= 1.25D-02 at cycle   3 NSaved=   3.
 NSaved= 3 IEnMin= 3 EnMin= -193.452243935835     IErMin= 3 ErrMin= 1.25D-02
 ErrMax= 1.25D-02  0.00D+00 EMaxC= 1.00D+00 BMatC= 7.12D-03 BMatP= 3.16D-02
 IDIUse=1 WtCom= 1.00D+00 WtEn= 0.00D+00
 Coeff-Com:  0.325D+00-0.181D+01 0.248D+01
 Coeff:      0.325D+00-0.181D+01 0.248D+01
 Gap=     0.411 Goal=   None    Shift=    0.500
 T= 1443. Gap= 0.911 NK=0 IS=   19 IE=   57 IFin=   18
          NO(<0.9)=   0  NV(>0.1)=   0     18.00e < EF      0.00e >EF  Err=0.0D+00
 Gap=     0.271 Goal=   None    Shift=    0.500
 T= 1443. Gap= 0.771 NK=0 IS=   18 IE=   57 IFin=   17
          NO(<0.9)=   0  NV(>0.1)=   0     17.00e < EF      0.00e >EF  Err=0.0D+00
 GapD=    0.271 DampG=1.000 DampE=0.500 DampFc=0.5000 IDamp=-1.
 Damping current iteration by 5.00D-01
 RMSDP=2.10D-03 MaxDP=1.60D-02 DE=-1.25D-02 OVMax= 1.39D-02

 Cycle   4  Pass 1  IDiag  1:
 E= -193.458052569833     Delta-E=       -0.005808633998 Rises=F Damp=T
 DIIS: error= 7.82D-03 at cycle   4 NSaved=   4.
 NSaved= 4 IEnMin= 4 EnMin= -193.458052569833     IErMin= 4 ErrMin= 7.82D-03
 ErrMax= 7.82D-03  0.00D+00 EMaxC= 1.00D+00 BMatC= 2.35D-03 BMatP= 7.12D-03
 IDIUse=1 WtCom= 1.00D+00 WtEn= 0.00D+00
 Coeff-Com:  0.169D-01 0.708D+00-0.343D+01 0.370D+01
 Coeff:      0.169D-01 0.708D+00-0.343D+01 0.370D+01
 Gap=     0.416 Goal=   None    Shift=    0.500
 T= 1049. Gap= 0.916 NK=0 IS=   19 IE=   57 IFin=   18
          NO(<0.9)=   0  NV(>0.1)=   0     18.00e < EF      0.00e >EF  Err=0.0D+00
 Gap=     0.274 Goal=   None    Shift=    0.500
 T= 1049. Gap= 0.774 NK=0 IS=   18 IE=   57 IFin=   17
          NO(<0.9)=   0  NV(>0.1)=   0     17.00e < EF      0.00e >EF  Err=0.0D+00
 GapD=    0.274 DampG=1.000 DampE=1.000 DampFc=1.0000 IDamp=-1.
 RMSDP=1.27D-03 MaxDP=1.30D-02 DE=-5.81D-03 OVMax= 1.30D-02

 Cycle   5  Pass 1  IDiag  1:
 E= -193.464616387658     Delta-E=       -0.006563817824 Rises=F Damp=F
 DIIS: error= 3.33D-03 at cycle   5 NSaved=   5.
 NSaved= 5 IEnMin= 5 EnMin= -193.464616387658     IErMin= 5 ErrMin= 3.33D-03
 ErrMax= 3.33D-03  0.00D+00 EMaxC= 1.00D+00 BMatC= 3.35D-04 BMatP= 2.35D-03
 IDIUse=1 WtCom= 1.00D+00 WtEn= 0.00D+00
 Coeff-Com: -0.164D+00 0.834D+00-0.655D+00-0.902D+00 0.189D+01
 Coeff:     -0.164D+00 0.834D+00-0.655D+00-0.902D+00 0.189D+01
 Gap=     0.416 Goal=   None    Shift=    0.500
 T=  695. Gap= 0.916 NK=0 IS=   19 IE=   57 IFin=   18
          NO(<0.9)=   0  NV(>0.1)=   0     18.00e < EF      0.00e >EF  Err=0.0D+00
 Gap=     0.277 Goal=   None    Shift=    0.500
 T=  695. Gap= 0.777 NK=0 IS=   18 IE=   57 IFin=   17
          NO(<0.9)=   0  NV(>0.1)=   0     17.00e < EF      0.00e >EF  Err=0.0D+00
 GapD=    0.277 DampG=1.000 DampE=1.000 DampFc=1.0000 IDamp=-1.
 RMSDP=3.74D-04 MaxDP=5.75D-03 DE=-6.56D-03 OVMax= 1.22D-02

 Cycle   6  Pass 1  IDiag  1:
 E= -193.465075773411     Delta-E=       -0.000459385754 Rises=F Damp=F
 DIIS: error= 2.57D-03 at cycle   6 NSaved=   6.
 NSaved= 6 IEnMin= 6 EnMin= -193.465075773411     IErMin= 6 ErrMin= 2.57D-03
 ErrMax= 2.57D-03  0.00D+00 EMaxC= 1.00D+00 BMatC= 1.47D-04 BMatP= 3.35D-04
 IDIUse=1 WtCom= 1.00D+00 WtEn= 0.00D+00
 Coeff-Com:  0.175D-02-0.266D+00 0.805D+00-0.561D+00-0.165D+01 0.267D+01
 Coeff:      0.175D-02-0.266D+00 0.805D+00-0.561D+00-0.165D+01 0.267D+01
 Gap=     0.417 Goal=   None    Shift=    0.500
 T=  368. Gap= 0.917 NK=0 IS=   19 IE=   57 IFin=   18
          NO(<0.9)=   0  NV(>0.1)=   0     18.00e < EF      0.00e >EF  Err=0.0D+00
 Gap=     0.279 Goal=   None    Shift=    0.500
 T=  368. Gap= 0.779 NK=0 IS=   18 IE=   57 IFin=   17
          NO(<0.9)=   0  NV(>0.1)=   0     17.00e < EF      0.00e >EF  Err=0.0D+00
 GapD=    0.279 DampG=1.000 DampE=1.000 DampFc=1.0000 IDamp=-1.
 RMSDP=2.87D-04 MaxDP=4.66D-03 DE=-4.59D-04 OVMax= 1.08D-02

 Cycle   7  Pass 1  IDiag  1:
 E= -193.465329348406     Delta-E=       -0.000253574994 Rises=F Damp=F
 DIIS: error= 1.82D-03 at cycle   7 NSaved=   7.
 NSaved= 7 IEnMin= 7 EnMin= -193.465329348406     IErMin= 7 ErrMin= 1.82D-03
 ErrMax= 1.82D-03  0.00D+00 EMaxC= 1.00D+00 BMatC= 6.27D-05 BMatP= 1.47D-04
 IDIUse=1 WtCom= 1.00D+00 WtEn= 0.00D+00
 Coeff-Com:  0.164D-01-0.854D-01-0.613D-01 0.346D+00-0.482D+00-0.850D+00
 Coeff-Com:  0.212D+01
 Coeff:      0.164D-01-0.854D-01-0.613D-01 0.346D+00-0.482D+00-0.850D+00
 Coeff:      0.212D+01
 Gap=     0.417 Goal=   None    Shift=    0.500
 T=   22. Gap= 0.917 NK=0 IS=   19 IE=   57 IFin=   18
          NO(<0.9)=   0  NV(>0.1)=   0     18.00e < EF      0.00e >EF  Err=0.0D+00
 Gap=     0.280 Goal=   None    Shift=    0.500
 T=   22. Gap= 0.780 NK=0 IS=   18 IE=   57 IFin=   17
          NO(<0.9)=   0  NV(>0.1)=   0     17.00e < EF      0.00e >EF  Err=0.0D+00
 GapD=    0.280 DampG=1.000 DampE=1.000 DampFc=1.0000 IDamp=-1.
 RMSDP=1.86D-04 MaxDP=2.64D-03 DE=-2.54D-04 OVMax= 7.66D-03

 Cycle   8  Pass 1  IDiag  1:
 E= -193.465436529207     Delta-E=       -0.000107180802 Rises=F Damp=F
 DIIS: error= 1.26D-03 at cycle   8 NSaved=   8.
 NSaved= 8 IEnMin= 8 EnMin= -193.465436529207     IErMin= 8 ErrMin= 1.26D-03
 ErrMax= 1.26D-03  0.00D+00 EMaxC= 1.00D+00 BMatC= 2.83D-05 BMatP= 6.27D-05
 IDIUse=1 WtCom= 1.00D+00 WtEn= 0.00D+00
 Coeff-Com: -0.795D-02 0.217D+00-0.663D+00 0.510D+00 0.103D+01-0.226D+01
 Coeff-Com: -0.997D-01 0.227D+01
 Coeff:     -0.795D-02 0.217D+00-0.663D+00 0.510D+00 0.103D+01-0.226D+01
 Coeff:     -0.997D-01 0.227D+01
 Gap=     0.418 Goal=   None    Shift=    0.500
 Gap=     0.280 Goal=   None    Shift=    0.500
 GapD=    0.280 DampG=1.000 DampE=1.000 DampFc=1.0000 IDamp=-1.
 RMSDP=1.43D-04 MaxDP=1.99D-03 DE=-1.07D-04 OVMax= 6.19D-03

 Cycle   9  Pass 1  IDiag  1:
 E= -193.465487900680     Delta-E=       -0.000051371472 Rises=F Damp=F
 DIIS: error= 8.16D-04 at cycle   9 NSaved=   9.
 NSaved= 9 IEnMin= 9 EnMin= -193.465487900680     IErMin= 9 ErrMin= 8.16D-04
 ErrMax= 8.16D-04  0.00D+00 EMaxC= 1.00D+00 BMatC= 1.12D-05 BMatP= 2.83D-05
 IDIUse=1 WtCom= 1.00D+00 WtEn= 0.00D+00
 Coeff-Com: -0.202D-02-0.114D+00 0.495D+00-0.519D+00-0.419D+00 0.176D+01
 Coeff-Com: -0.849D+00-0.322D+01 0.387D+01
 Coeff:     -0.202D-02-0.114D+00 0.495D+00-0.519D+00-0.419D+00 0.176D+01
 Coeff:     -0.849D+00-0.322D+01 0.387D+01
 Gap=     0.417 Goal=   None    Shift=    0.500
 Gap=     0.280 Goal=   None    Shift=    0.500
 RMSDP=9.99D-05 MaxDP=1.32D-03 DE=-5.14D-05 OVMax= 4.73D-03

 Cycle  10  Pass 1  IDiag  1:
 E= -193.465509696232     Delta-E=       -0.000021795552 Rises=F Damp=F
 DIIS: error= 4.87D-04 at cycle  10 NSaved=  10.
 NSaved=10 IEnMin=10 EnMin= -193.465509696232     IErMin=10 ErrMin= 4.87D-04
 ErrMax= 4.87D-04  0.00D+00 EMaxC= 1.00D+00 BMatC= 3.77D-06 BMatP= 1.12D-05
 IDIUse=1 WtCom= 1.00D+00 WtEn= 0.00D+00
 Coeff-Com:  0.127D-02 0.275D-01-0.142D+00 0.165D+00 0.797D-01-0.476D+00
 Coeff-Com:  0.357D+00 0.853D+00-0.279D+01 0.292D+01
 Coeff:      0.127D-02 0.275D-01-0.142D+00 0.165D+00 0.797D-01-0.476D+00
 Coeff:      0.357D+00 0.853D+00-0.279D+01 0.292D+01
 Gap=     0.417 Goal=   None    Shift=    0.500
 Gap=     0.280 Goal=   None    Shift=    0.500
 RMSDP=5.68D-05 MaxDP=7.94D-04 DE=-2.18D-05 OVMax= 2.83D-03

 Cycle  11  Pass 1  IDiag  1:
 E= -193.465516841521     Delta-E=       -0.000007145290 Rises=F Damp=F
 DIIS: error= 2.88D-04 at cycle  11 NSaved=  11.
 NSaved=11 IEnMin=11 EnMin= -193.465516841521     IErMin=11 ErrMin= 2.88D-04
 ErrMax= 2.88D-04  0.00D+00 EMaxC= 1.00D+00 BMatC= 1.32D-06 BMatP= 3.77D-06
 IDIUse=1 WtCom= 1.00D+00 WtEn= 0.00D+00
 Coeff-Com: -0.124D-02-0.116D-01 0.825D-01-0.110D+00-0.639D-02 0.285D+00
 Coeff-Com: -0.267D+00-0.717D+00 0.251D+01-0.487D+01 0.411D+01
 Coeff:     -0.124D-02-0.116D-01 0.825D-01-0.110D+00-0.639D-02 0.285D+00
 Coeff:     -0.267D+00-0.717D+00 0.251D+01-0.487D+01 0.411D+01
 Gap=     0.417 Goal=   None    Shift=    0.500
 Gap=     0.280 Goal=   None    Shift=    0.500
 RMSDP=3.45D-05 MaxDP=4.72D-04 DE=-7.15D-06 OVMax= 1.77D-03

 Cycle  12  Pass 1  IDiag  1:
 E= -193.465519344723     Delta-E=       -0.000002503201 Rises=F Damp=F
 DIIS: error= 1.64D-04 at cycle  12 NSaved=  12.
 NSaved=12 IEnMin=12 EnMin= -193.465519344723     IErMin=12 ErrMin= 1.64D-04
 ErrMax= 1.64D-04  0.00D+00 EMaxC= 1.00D+00 BMatC= 4.27D-07 BMatP= 1.32D-06
 IDIUse=1 WtCom= 1.00D+00 WtEn= 0.00D+00
 Coeff-Com:  0.111D-03-0.119D-01 0.425D-01-0.384D-01-0.530D-01 0.156D+00
 Coeff-Com: -0.246D-01-0.253D+00-0.898D-01 0.139D+01-0.321D+01 0.309D+01
 Coeff:      0.111D-03-0.119D-01 0.425D-01-0.384D-01-0.530D-01 0.156D+00
 Coeff:     -0.246D-01-0.253D+00-0.898D-01 0.139D+01-0.321D+01 0.309D+01
 Gap=     0.417 Goal=   None    Shift=    0.500
 Gap=     0.280 Goal=   None    Shift=    0.500
 RMSDP=1.97D-05 MaxDP=2.63D-04 DE=-2.50D-06 OVMax= 1.02D-03

 Cycle  13  Pass 1  IDiag  1:
 E= -193.465520151387     Delta-E=       -0.000000806664 Rises=F Damp=F
 DIIS: error= 9.37D-05 at cycle  13 NSaved=  13.
 NSaved=13 IEnMin=13 EnMin= -193.465520151387     IErMin=13 ErrMin= 9.37D-05
 ErrMax= 9.37D-05  0.00D+00 EMaxC= 1.00D+00 BMatC= 1.35D-07 BMatP= 4.27D-07
 IDIUse=1 WtCom= 1.00D+00 WtEn= 0.00D+00
 Coeff-Com: -0.179D-04 0.654D-02-0.240D-01 0.220D-01 0.325D-01-0.834D-01
 Coeff-Com:  0.129D-01 0.127D+00 0.314D-02-0.711D+00 0.197D+01-0.389D+01
 Coeff-Com:  0.353D+01
 Coeff:     -0.179D-04 0.654D-02-0.240D-01 0.220D-01 0.325D-01-0.834D-01
 Coeff:      0.129D-01 0.127D+00 0.314D-02-0.711D+00 0.197D+01-0.389D+01
 Coeff:      0.353D+01
 Gap=     0.417 Goal=   None    Shift=    0.500
 Gap=     0.280 Goal=   None    Shift=    0.500
 RMSDP=1.13D-05 MaxDP=1.54D-04 DE=-8.07D-07 OVMax= 5.94D-04

 Cycle  14  Pass 1  IDiag  1:
 E= -193.465520409762     Delta-E=       -0.000000258375 Rises=F Damp=F
 DIIS: error= 5.17D-05 at cycle  14 NSaved=  14.
 NSaved=14 IEnMin=14 EnMin= -193.465520409762     IErMin=14 ErrMin= 5.17D-05
 ErrMax= 5.17D-05  0.00D+00 EMaxC= 1.00D+00 BMatC= 4.14D-08 BMatP= 1.35D-07
 IDIUse=1 WtCom= 1.00D+00 WtEn= 0.00D+00
 Coeff-Com:  0.657D-04-0.346D-02 0.151D-01-0.168D-01-0.107D-01 0.474D-01
 Coeff-Com: -0.106D-01-0.102D+00 0.171D+00-0.134D+00-0.327D+00 0.147D+01
 Coeff-Com: -0.325D+01 0.315D+01
 Coeff:      0.657D-04-0.346D-02 0.151D-01-0.168D-01-0.107D-01 0.474D-01
 Coeff:     -0.106D-01-0.102D+00 0.171D+00-0.134D+00-0.327D+00 0.147D+01
 Coeff:     -0.325D+01 0.315D+01
 Gap=     0.417 Goal=   None    Shift=    0.500
 Gap=     0.280 Goal=   None    Shift=    0.500
 RMSDP=6.39D-06 MaxDP=8.83D-05 DE=-2.58D-07 OVMax= 3.41D-04

 Cycle  15  Pass 1  IDiag  1:
 E= -193.465520490444     Delta-E=       -0.000000080682 Rises=F Damp=F
 DIIS: error= 2.86D-05 at cycle  15 NSaved=  15.
 NSaved=15 IEnMin=15 EnMin= -193.465520490444     IErMin=15 ErrMin= 2.86D-05
 ErrMax= 2.86D-05  0.00D+00 EMaxC= 1.00D+00 BMatC= 1.26D-08 BMatP= 4.14D-08
 IDIUse=1 WtCom= 1.00D+00 WtEn= 0.00D+00
 Coeff-Com: -0.434D-04 0.128D-02-0.627D-02 0.767D-02 0.152D-02-0.149D-01
 Coeff-Com:  0.639D-02 0.389D-01-0.915D-01 0.142D+00-0.828D-01-0.369D+00
 Coeff-Com:  0.141D+01-0.324D+01 0.320D+01
 Coeff:     -0.434D-04 0.128D-02-0.627D-02 0.767D-02 0.152D-02-0.149D-01
 Coeff:      0.639D-02 0.389D-01-0.915D-01 0.142D+00-0.828D-01-0.369D+00
 Coeff:      0.141D+01-0.324D+01 0.320D+01
 Gap=     0.417 Goal=   None    Shift=    0.500
 Gap=     0.280 Goal=   None    Shift=    0.500
 RMSDP=3.54D-06 MaxDP=4.92D-05 DE=-8.07D-08 OVMax= 1.91D-04

 Cycle  16  Pass 1  IDiag  1:
 E= -193.465520514968     Delta-E=       -0.000000024524 Rises=F Damp=F
 DIIS: error= 1.55D-05 at cycle  16 NSaved=  16.
 NSaved=16 IEnMin=16 EnMin= -193.465520514968     IErMin=16 ErrMin= 1.55D-05
 ErrMax= 1.55D-05  0.00D+00 EMaxC= 1.00D+00 BMatC= 3.84D-09 BMatP= 1.26D-08
 IDIUse=1 WtCom= 1.00D+00 WtEn= 0.00D+00
 Coeff-Com:  0.241D-05 0.129D-03 0.411D-03-0.132D-02 0.280D-02-0.362D-02
 Coeff-Com:  0.290D-02-0.364D-02 0.276D-01-0.910D-01 0.145D+00-0.123D+00
 Coeff-Com: -0.216D+00 0.135D+01-0.351D+01 0.342D+01
 Coeff:      0.241D-05 0.129D-03 0.411D-03-0.132D-02 0.280D-02-0.362D-02
 Coeff:      0.290D-02-0.364D-02 0.276D-01-0.910D-01 0.145D+00-0.123D+00
 Coeff:     -0.216D+00 0.135D+01-0.351D+01 0.342D+01
 Gap=     0.417 Goal=   None    Shift=    0.500
 Gap=     0.280 Goal=   None    Shift=    0.500
 RMSDP=1.96D-06 MaxDP=2.70D-05 DE=-2.45D-08 OVMax= 1.06D-04

 Cycle  17  Pass 1  IDiag  1:
 E= -193.465520522359     Delta-E=       -0.000000007391 Rises=F Damp=F
 DIIS: error= 8.31D-06 at cycle  17 NSaved=  17.
 NSaved=17 IEnMin=17 EnMin= -193.465520522359     IErMin=17 ErrMin= 8.31D-06
 ErrMax= 8.31D-06  0.00D+00 EMaxC= 1.00D+00 BMatC= 1.17D-09 BMatP= 3.84D-09
 IDIUse=1 WtCom= 1.00D+00 WtEn= 0.00D+00
 Coeff-Com:  0.688D-05 0.795D-04-0.936D-03 0.151D-02-0.103D-02-0.696D-03
 Coeff-Com:  0.164D-02 0.449D-02-0.213D-01 0.531D-01-0.816D-01 0.555D-01
 Coeff-Com:  0.158D+00-0.986D+00 0.287D+01-0.509D+01 0.404D+01
 Coeff:      0.688D-05 0.795D-04-0.936D-03 0.151D-02-0.103D-02-0.696D-03
 Coeff:      0.164D-02 0.449D-02-0.213D-01 0.531D-01-0.816D-01 0.555D-01
 Coeff:      0.158D+00-0.986D+00 0.287D+01-0.509D+01 0.404D+01
 Gap=     0.417 Goal=   None    Shift=    0.500
 Gap=     0.280 Goal=   None    Shift=    0.500
 RMSDP=1.07D-06 MaxDP=1.48D-05 DE=-7.39D-09 OVMax= 5.85D-05

 Cycle  18  Pass 1  IDiag  1:
 E= -193.465520524552     Delta-E=       -0.000000002193 Rises=F Damp=F
 DIIS: error= 4.37D-06 at cycle  18 NSaved=  18.
 NSaved=18 IEnMin=18 EnMin= -193.465520524552     IErMin=18 ErrMin= 4.37D-06
 ErrMax= 4.37D-06  0.00D+00 EMaxC= 1.00D+00 BMatC= 3.57D-10 BMatP= 1.17D-09
 IDIUse=1 WtCom= 1.00D+00 WtEn= 0.00D+00
 Coeff-Com: -0.461D-05 0.798D-04 0.457D-04-0.370D-03 0.125D-02-0.206D-02
 Coeff-Com:  0.972D-03-0.410D-03 0.113D-01-0.405D-01 0.811D-01-0.121D+00
 Coeff-Com:  0.785D-01 0.348D+00-0.160D+01 0.357D+01-0.544D+01 0.412D+01
 Coeff:     -0.461D-05 0.798D-04 0.457D-04-0.370D-03 0.125D-02-0.206D-02
 Coeff:      0.972D-03-0.410D-03 0.113D-01-0.405D-01 0.811D-01-0.121D+00
 Coeff:      0.785D-01 0.348D+00-0.160D+01 0.357D+01-0.544D+01 0.412D+01
 Gap=     0.417 Goal=   None    Shift=    0.500
 Gap=     0.280 Goal=   None    Shift=    0.500
 RMSDP=5.71D-07 MaxDP=7.81D-06 DE=-2.19D-09 OVMax= 3.14D-05

 SCF Done:  E(ULC-wHPBE) =  -193.465520525     A.U. after   18 cycles
            NFock= 18  Conv=0.57D-06     -V/T= 2.0048
 <Sx>= 0.0000 <Sy>= 0.0000 <Sz>= 0.5000 <S**2>= 0.7921 S= 0.5208
 <L.S>= 0.000000000000E+00
 KE= 1.925356628283D+02 PE=-7.506675393428D+02 EE= 2.092224374614D+02
 Annihilation of the first spin contaminant:
 S**2 before annihilation     0.7921,   after     0.7510
 Leave Link  502 at Tue Feb 25 12:23:32 2020, MaxMem=  6710886400 cpu:              25.5 elap:               1.6
 (Enter /opt/ohpc/pub/libs/gaussian/g16-A.03/haswell/g16/l508.exe)
 QCSCF skips out because SCF is already converged.
 Leave Link  508 at Tue Feb 25 12:23:32 2020, MaxMem=  6710886400 cpu:               0.1 elap:               0.0
 (Enter /opt/ohpc/pub/libs/gaussian/g16-A.03/haswell/g16/l601.exe)
 Copying SCF densities to generalized density rwf, IOpCl= 1 IROHF=0.

 **********************************************************************

            Population analysis using the SCF density.

 **********************************************************************

 Orbital symmetries:
 Alpha Orbitals:
       Occupied  (B2) (A1) (A1) (B2) (A1) (A1) (A1) (B2) (A1) (B2)
                 (A1) (B2) (A1) (A1) (B1) (B2) (A2) (B1)
       Virtual   (B2) (A2) (B1) (A1) (A1) (B2) (A1) (B2) (A1) (B2)
                 (A1) (A1) (B2) (B1) (B2) (B1) (A2) (A1) (A1) (B2)
                 (A1) (A2) (B1) (B2) (B2) (A1) (A1) (B2) (A1) (A1)
                 (B2) (A1) (A1) (B2) (A1) (B2) (A1) (A1) (B2)
 Beta  Orbitals:
       Occupied  (B2) (A1) (A1) (B2) (A1) (A1) (A1) (B2) (A1) (B2)
                 (A1) (B2) (A1) (A1) (B2) (B1) (A2)
       Virtual   (B1) (B2) (A2) (A1) (B1) (A1) (B2) (A1) (B2) (A1)
                 (B2) (A1) (A1) (B2) (B2) (B1) (A2) (A1) (B1) (A1)
                 (B2) (A1) (A2) (B1) (B2) (B2) (A1) (A1) (B2) (A1)
                 (B2) (A1) (A1) (A1) (B2) (A1) (B2) (A1) (A1) (B2)
 The electronic state is 2-B1.
 Alpha  occ. eigenvalues --  -10.36124 -10.36118 -10.31161 -10.30233 -10.30232
 Alpha  occ. eigenvalues --   -1.23181  -1.10504  -1.06064  -0.92408  -0.90267
 Alpha  occ. eigenvalues --   -0.85705  -0.76117  -0.73609  -0.72456  -0.71847
 Alpha  occ. eigenvalues --   -0.70275  -0.57442  -0.55874
 Alpha virt. eigenvalues --   -0.14129  -0.13487  -0.06644  -0.05755  -0.00538
 Alpha virt. eigenvalues --    0.04130   0.06131   0.08441   0.08562   0.19697
 Alpha virt. eigenvalues --    0.19761   0.29632   0.30888   0.38738   0.39388
 Alpha virt. eigenvalues --    0.46426   0.47033   0.47602   0.50050   0.50764
 Alpha virt. eigenvalues --    0.50996   0.54130   0.55628   0.63542   0.70054
 Alpha virt. eigenvalues --    0.72405   0.73619   0.76055   0.76240   0.82541
 Alpha virt. eigenvalues --    0.82567   0.86984   0.91032   0.97355   1.05512
 Alpha virt. eigenvalues --    1.06588   1.11777   1.33727   1.35189
  Beta  occ. eigenvalues --  -10.35584 -10.35576 -10.30482 -10.30481 -10.30275
  Beta  occ. eigenvalues --   -1.22061  -1.08752  -1.05771  -0.91430  -0.89576
  Beta  occ. eigenvalues --   -0.85421  -0.75811  -0.73331  -0.71913  -0.70107
  Beta  occ. eigenvalues --   -0.67769  -0.56182
  Beta virt. eigenvalues --   -0.28140  -0.12811  -0.10716  -0.05523  -0.03401
  Beta virt. eigenvalues --   -0.00157   0.04388   0.06360   0.08422   0.09132
  Beta virt. eigenvalues --    0.20043   0.20245   0.30037   0.31263   0.39757
  Beta virt. eigenvalues --    0.40830   0.48021   0.48134   0.49018   0.50463
  Beta virt. eigenvalues --    0.51219   0.52070   0.54731   0.57130   0.64060
  Beta virt. eigenvalues --    0.70505   0.73214   0.74182   0.75971   0.76725
  Beta virt. eigenvalues --    0.82902   0.83001   0.88005   0.91668   0.97428
  Beta virt. eigenvalues --    1.06041   1.07088   1.12832   1.34626   1.36032
          Condensed to atoms (all electrons):
               1          2          3          4          5          6
     1  C    5.344729   0.500217  -0.041317  -0.127778   0.181776   0.165636
     2  C    0.500217   4.946313   0.467538  -0.024878  -0.127778  -0.023694
     3  C   -0.041317   0.467538   4.846664   0.467538  -0.041317   0.007369
     4  C   -0.127778  -0.024878   0.467538   4.946313   0.500217  -0.023694
     5  C    0.181776  -0.127778  -0.041317   0.500217   5.344729   0.165636
     6  H    0.165636  -0.023694   0.007369  -0.023694   0.165636   0.362303
     7  H    0.337369   0.003737  -0.000094   0.003278  -0.016281  -0.008681
     8  H   -0.024503   0.361816  -0.012353   0.004085   0.001022   0.000482
     9  H    0.005456  -0.028651   0.366950  -0.028651   0.005456  -0.000049
    10  H    0.001022   0.004085  -0.012353   0.361816  -0.024503   0.000482
    11  H   -0.016281   0.003278  -0.000094   0.003737   0.337369  -0.008681
               7          8          9         10         11
     1  C    0.337369  -0.024503   0.005456   0.001022  -0.016281
     2  C    0.003737   0.361816  -0.028651   0.004085   0.003278
     3  C   -0.000094  -0.012353   0.366950  -0.012353  -0.000094
     4  C    0.003278   0.004085  -0.028651   0.361816   0.003737
     5  C   -0.016281   0.001022   0.005456  -0.024503   0.337369
     6  H   -0.008681   0.000482  -0.000049   0.000482  -0.008681
     7  H    0.347740  -0.000083  -0.000055  -0.000019   0.000372
     8  H   -0.000083   0.388602  -0.001580  -0.000093  -0.000019
     9  H   -0.000055  -0.001580   0.411183  -0.001580  -0.000055
    10  H   -0.000019  -0.000093  -0.001580   0.388602  -0.000083
    11  H    0.000372  -0.000019  -0.000055  -0.000083   0.347740
          Atomic-Atomic Spin Densities.
               1          2          3          4          5          6
     1  C    0.471673  -0.039931  -0.023617  -0.008923   0.030222  -0.003452
     2  C   -0.039931  -0.210718   0.028302  -0.000567  -0.008923   0.000263
     3  C   -0.023617   0.028302   0.682486   0.028302  -0.023617   0.000213
     4  C   -0.008923  -0.000567   0.028302  -0.210718  -0.039931   0.000263
     5  C    0.030222  -0.008923  -0.023617  -0.039931   0.471673  -0.003452
     6  H   -0.003452   0.000263   0.000213   0.000263  -0.003452  -0.014019
     7  H   -0.002414  -0.000444   0.000090  -0.000085   0.000258  -0.000249
     8  H   -0.000289   0.001751  -0.001043  -0.000111   0.000050   0.000018
     9  H   -0.000037  -0.000075  -0.000729  -0.000075  -0.000037  -0.000002
    10  H    0.000050  -0.000111  -0.001043   0.001751  -0.000289   0.000018
    11  H    0.000258  -0.000085   0.000090  -0.000444  -0.002414  -0.000249
               7          8          9         10         11
     1  C   -0.002414  -0.000289  -0.000037   0.000050   0.000258
     2  C   -0.000444   0.001751  -0.000075  -0.000111  -0.000085
     3  C    0.000090  -0.001043  -0.000729  -0.001043   0.000090
     4  C   -0.000085  -0.000111  -0.000075   0.001751  -0.000444
     5  C    0.000258   0.000050  -0.000037  -0.000289  -0.002414
     6  H   -0.000249   0.000018  -0.000002   0.000018  -0.000249
     7  H   -0.016681   0.000060   0.000004  -0.000000  -0.000063
     8  H    0.000060   0.005354   0.000021   0.000000  -0.000000
     9  H    0.000004   0.000021  -0.026454   0.000021   0.000004
    10  H   -0.000000   0.000000   0.000021   0.005354   0.000060
    11  H   -0.000063  -0.000000   0.000004   0.000060  -0.016681
 Mulliken charges and spin densities:
               1          2
     1  C   -0.326325   0.423540
     2  C   -0.081983  -0.230538
     3  C   -0.048532   0.689432
     4  C   -0.081983  -0.230538
     5  C   -0.326325   0.423540
     6  H    0.362892  -0.020648
     7  H    0.332717  -0.019524
     8  H    0.282624   0.005812
     9  H    0.271574  -0.027361
    10  H    0.282624   0.005812
    11  H    0.332717  -0.019524
 Sum of Mulliken charges =   1.00000   1.00000
 Mulliken charges and spin densities with hydrogens summed into heavy atoms:
               1          2
     1  C    0.369284   0.383367
     2  C    0.200640  -0.224727
     3  C    0.223043   0.662071
     4  C    0.200640  -0.224727
     5  C    0.006392   0.404015
 Electronic spatial extent (au):  <R**2>=            321.3833
 Charge=              1.0000 electrons
 Dipole moment (field-independent basis, Debye):
    X=             -0.0000    Y=              0.0000    Z=             -1.9941  Tot=              1.9941
 Quadrupole moment (field-independent basis, Debye-Ang):
   XX=            -31.4560   YY=            -17.4523   ZZ=            -13.3154
   XY=              0.0000   XZ=              0.0000   YZ=             -0.0000
 Traceless Quadrupole moment (field-independent basis, Debye-Ang):
   XX=            -10.7148   YY=              3.2890   ZZ=              7.4258
   XY=              0.0000   XZ=              0.0000   YZ=             -0.0000
 Octapole moment (field-independent basis, Debye-Ang**2):
  XXX=              0.0000  YYY=             -0.0000  ZZZ=             -7.3773  XYY=             -0.0000
  XXY=              0.0000  XXZ=              0.7058  XZZ=              0.0000  YZZ=              0.0000
  YYZ=             -2.8715  XYZ=             -0.0000
 Hexadecapole moment (field-independent basis, Debye-Ang**3):
 XXXX=            -31.5282 YYYY=           -147.5369 ZZZZ=           -127.1543 XXXY=             -0.0000
 XXXZ=             -0.0000 YYYX=             -0.0000 YYYZ=              0.0000 ZZZX=              0.0000
 ZZZY=             -0.0000 XXYY=            -42.9712 XXZZ=            -39.1539 YYZZ=            -42.9369
 XXYZ=              0.0000 YYXZ=             -0.0000 ZZXY=             -0.0000
 N-N= 1.554439185285D+02 E-N=-7.506675412872D+02  KE= 1.925356628283D+02
 Symmetry A1   KE= 1.113002843739D+02
 Symmetry A2   KE= 2.507071316406D+00
 Symmetry B1   KE= 3.221624986936D+00
 Symmetry B2   KE= 7.550668215114D+01
 Symmetry A1   SP=-4.147669549072D-15
 Symmetry A2   SP=-1.037399238885D-15
 Symmetry B1   SP= 1.000000000000D+00
 Symmetry B2   SP=-1.464848415653D-14
                          Isotropic Fermi Contact Couplings
        Atom                 a.u.       MegaHertz       Gauss      10(-4) cm-1
     1  C(13)              0.06101      68.58617      24.47325      22.87788
     2  C(13)             -0.04057     -45.60732     -16.27383     -15.21297
     3  C(13)              0.09396     105.63037      37.69154      35.23450
     4  C(13)             -0.04057     -45.60732     -16.27383     -15.21297
     5  C(13)              0.06101      68.58617      24.47325      22.87788
     6  H(1)              -0.00754     -33.71708     -12.03109     -11.24681
     7  H(1)              -0.00793     -35.43823     -12.64524     -11.82092
     8  H(1)               0.00215       9.60853       3.42856       3.20506
     9  H(1)              -0.01159     -51.81692     -18.48957     -17.28426
    10  H(1)               0.00215       9.60853       3.42856       3.20506
    11  H(1)              -0.00793     -35.43823     -12.64524     -11.82092
 --------------------------------------------------------
       Center         ----  Spin Dipole Couplings  ----
                      3XX-RR        3YY-RR        3ZZ-RR
 --------------------------------------------------------
     1   Atom        0.433573     -0.210993     -0.222580
     2   Atom       -0.147363      0.071996      0.075368
     3   Atom        0.663847     -0.339011     -0.324835
     4   Atom       -0.147363      0.071996      0.075368
     5   Atom        0.433573     -0.210993     -0.222580
     6   Atom       -0.006063      0.007361     -0.001298
     7   Atom       -0.005793      0.005393      0.000400
     8   Atom       -0.006508      0.001771      0.004737
     9   Atom       -0.007866     -0.043464      0.051330
    10   Atom       -0.006508      0.001771      0.004737
    11   Atom       -0.005793      0.005393      0.000400
 --------------------------------------------------------
                        XY            XZ            YZ
 --------------------------------------------------------
     1   Atom       -0.000000     -0.000000     -0.007714
     2   Atom       -0.000000      0.000000     -0.006675
     3   Atom       -0.000000     -0.000000      0.000000
     4   Atom       -0.000000     -0.000000      0.006675
     5   Atom        0.000000      0.000000      0.007714
     6   Atom       -0.000000      0.000000      0.000000
     7   Atom        0.000000      0.000000     -0.032065
     8   Atom       -0.000000      0.000000     -0.004636
     9   Atom       -0.000000     -0.000000      0.000000
    10   Atom        0.000000     -0.000000      0.004636
    11   Atom       -0.000000     -0.000000      0.032065
 --------------------------------------------------------


 ---------------------------------------------------------------------------------
              Anisotropic Spin Dipole Couplings in Principal Axis System
 ---------------------------------------------------------------------------------

       Atom             a.u.   MegaHertz   Gauss  10(-4) cm-1        Axes

              Baa    -0.2264   -30.385   -10.842   -10.135  0.0000  0.4469  0.8946
     1 C(13)  Bbb    -0.2071   -27.796    -9.918    -9.272  0.0000  0.8946 -0.4469
              Bcc     0.4336    58.181    20.761    19.407  1.0000 -0.0000  0.0000
 
              Baa    -0.1474   -19.775    -7.056    -6.596  1.0000  0.0000  0.0000
     2 C(13)  Bbb     0.0668     8.963     3.198     2.990 -0.0000  0.7890  0.6144
              Bcc     0.0806    10.811     3.858     3.606  0.0000 -0.6144  0.7890
 
              Baa    -0.3390   -45.492   -16.233   -15.175  0.0000  1.0000  0.0000
     3 C(13)  Bbb    -0.3248   -43.590   -15.554   -14.540  0.0000  0.0000  1.0000
              Bcc     0.6638    89.082    31.787    29.715  1.0000 -0.0000  0.0000
 
              Baa    -0.1474   -19.775    -7.056    -6.596  1.0000  0.0000  0.0000
     4 C(13)  Bbb     0.0668     8.963     3.198     2.990 -0.0000  0.7890 -0.6144
              Bcc     0.0806    10.811     3.858     3.606 -0.0000  0.6144  0.7890
 
              Baa    -0.2264   -30.385   -10.842   -10.135 -0.0000 -0.4469  0.8946
     5 C(13)  Bbb    -0.2071   -27.796    -9.918    -9.272  0.0000  0.8946  0.4469
              Bcc     0.4336    58.181    20.761    19.407  1.0000 -0.0000  0.0000
 
              Baa    -0.0061    -3.235    -1.154    -1.079  1.0000  0.0000 -0.0000
     6 H(1)   Bbb    -0.0013    -0.692    -0.247    -0.231  0.0000 -0.0000  1.0000
              Bcc     0.0074     3.928     1.401     1.310 -0.0000  1.0000  0.0000
 
              Baa    -0.0293   -15.614    -5.572    -5.208 -0.0000  0.6791  0.7340
     7 H(1)   Bbb    -0.0058    -3.091    -1.103    -1.031  1.0000  0.0000  0.0000
              Bcc     0.0351    18.705     6.675     6.239 -0.0000  0.7340 -0.6791
 
              Baa    -0.0065    -3.472    -1.239    -1.158  1.0000  0.0000  0.0000
     8 H(1)   Bbb    -0.0016    -0.861    -0.307    -0.287 -0.0000  0.8077  0.5896
              Bcc     0.0081     4.333     1.546     1.445  0.0000 -0.5896  0.8077
 
              Baa    -0.0435   -23.190    -8.275    -7.735  0.0000  1.0000 -0.0000
     9 H(1)   Bbb    -0.0079    -4.197    -1.498    -1.400  1.0000 -0.0000  0.0000
              Bcc     0.0513    27.387     9.773     9.135  0.0000  0.0000  1.0000
 
              Baa    -0.0065    -3.472    -1.239    -1.158  1.0000 -0.0000  0.0000
    10 H(1)   Bbb    -0.0016    -0.861    -0.307    -0.287  0.0000  0.8077 -0.5896
              Bcc     0.0081     4.333     1.546     1.445  0.0000  0.5896  0.8077
 
              Baa    -0.0293   -15.614    -5.572    -5.208  0.0000 -0.6791  0.7340
    11 H(1)   Bbb    -0.0058    -3.091    -1.103    -1.031  1.0000  0.0000  0.0000
              Bcc     0.0351    18.705     6.675     6.239 -0.0000  0.7340  0.6791
 

 ---------------------------------------------------------------------------------

 No NMR shielding tensors so no spin-rotation constants.
 Leave Link  601 at Tue Feb 25 12:23:33 2020, MaxMem=  6710886400 cpu:               5.0 elap:               0.3
 (Enter /opt/ohpc/pub/libs/gaussian/g16-A.03/haswell/g16/l9999.exe)

 Test job not archived.
 1\1\GINC-HASWELL008\SP\ULC-wHPBE\6-31G\C5H6(1+,2)\SMGO234\25-Feb-2020\
 0\\#P uLC-wHPBE/6-31G iop(3/107=0298300000, 3/108=0298300000) scf=(con
 ver=6,fermi,ndamp=35,noincfock,novaracc,vshift=500,xqc)\\H6 C5\\1,2\C,
 0,0.,0.895213,-0.933453\C,0,0.,1.131613,0.424372\C,0,0.,0.,1.240919\C,
 0,0.,-1.131613,0.424372\C,0,0.,-0.895213,-0.933453\H,0,0.,0.,-1.720797
 \H,0,0.,1.620085,-1.742217\H,0,0.,2.160007,0.773055\H,0,0.,0.,2.322589
 \H,0,0.,-2.160007,0.773055\H,0,0.,-1.620085,-1.742217\\Version=ES64L-G
 16RevA.03\State=2-B1\HF=-193.4655205\S2=0.79212\S2-1=0.\S2A=0.751032\R
 MSD=5.711e-07\Dipole=0.,0.,-0.7845238\Quadrupole=-7.9661738,2.4452599,
 5.5209139,0.,0.,0.\PG=C02V [C2(H1C1H1),SGV(C4H4)]\\@


 REVOLUTIONS HAVE NEVER LIGHTENED THE BURDEN OF TYRANNY:
 THEY HAVE MERELY SHIFTED IT TO OTHER SHOULDERS.
                                   -- G. B. SHAW (1903)
 Job cpu time:       0 days  0 hours  0 minutes 52.9 seconds.
 Elapsed time:       0 days  0 hours  0 minutes  3.6 seconds.
 File lengths (MBytes):  RWF=    272 Int=      0 D2E=      0 Chk=     32 Scr=     32
 Normal termination of Gaussian 16 at Tue Feb 25 12:23:33 2020.
