 Entering Gaussian System, Link 0=g16
 Input=1b_tune_c4.gjf
 Output=1b_tune_c4.log
 Initial command:
 /opt/ohpc/pub/libs/gaussian/g16-A.03/haswell/g16/l1.exe "/scratch/smgo234/Ocelot/test/1b/tuning_1b_ocycle2/Gau-44294.inp" -scrdir="/scratch/smgo234/Ocelot/test/1b/tuning_1b_ocycle2/"
 Entering Link 1 = /opt/ohpc/pub/libs/gaussian/g16-A.03/haswell/g16/l1.exe PID=     44295.
  
 Copyright (c) 1988,1990,1992,1993,1995,1998,2003,2009,2016,
            Gaussian, Inc.  All Rights Reserved.
  
 This is part of the Gaussian(R) 16 program.  It is based on
 the Gaussian(R) 09 system (copyright 2009, Gaussian, Inc.),
 the Gaussian(R) 03 system (copyright 2003, Gaussian, Inc.),
 the Gaussian(R) 98 system (copyright 1998, Gaussian, Inc.),
 the Gaussian(R) 94 system (copyright 1995, Gaussian, Inc.),
 the Gaussian 92(TM) system (copyright 1992, Gaussian, Inc.),
 the Gaussian 90(TM) system (copyright 1990, Gaussian, Inc.),
 the Gaussian 88(TM) system (copyright 1988, Gaussian, Inc.),
 the Gaussian 86(TM) system (copyright 1986, Carnegie Mellon
 University), and the Gaussian 82(TM) system (copyright 1983,
 Carnegie Mellon University). Gaussian is a federally registered
 trademark of Gaussian, Inc.
  
 This software contains proprietary and confidential information,
 including trade secrets, belonging to Gaussian, Inc.
  
 This software is provided under written license and may be
 used, copied, transmitted, or stored only in accord with that
 written license.
  
 The following legend is applicable only to US Government
 contracts under FAR:
  
                    RESTRICTED RIGHTS LEGEND
  
 Use, reproduction and disclosure by the US Government is
 subject to restrictions as set forth in subparagraphs (a)
 and (c) of the Commercial Computer Software - Restricted
 Rights clause in FAR 52.227-19.
  
 Gaussian, Inc.
 340 Quinnipiac St., Bldg. 40, Wallingford CT 06492
  
  
 ---------------------------------------------------------------
 Warning -- This program may not be used in any manner that
 competes with the business of Gaussian, Inc. or will provide
 assistance to any competitor of Gaussian, Inc.  The licensee
 of this program is prohibited from giving any competitor of
 Gaussian, Inc. access to this program.  By using this program,
 the user acknowledges that Gaussian, Inc. is engaged in the
 business of creating and licensing software in the field of
 computational chemistry and represents and warrants to the
 licensee that it is not a competitor of Gaussian, Inc. and that
 it will not use this program in any manner prohibited above.
 ---------------------------------------------------------------
  

 Cite this work as:
 Gaussian 16, Revision A.03,
 M. J. Frisch, G. W. Trucks, H. B. Schlegel, G. E. Scuseria, 
 M. A. Robb, J. R. Cheeseman, G. Scalmani, V. Barone, 
 G. A. Petersson, H. Nakatsuji, X. Li, M. Caricato, A. V. Marenich, 
 J. Bloino, B. G. Janesko, R. Gomperts, B. Mennucci, H. P. Hratchian, 
 J. V. Ortiz, A. F. Izmaylov, J. L. Sonnenberg, D. Williams-Young, 
 F. Ding, F. Lipparini, F. Egidi, J. Goings, B. Peng, A. Petrone, 
 T. Henderson, D. Ranasinghe, V. G. Zakrzewski, J. Gao, N. Rega, 
 G. Zheng, W. Liang, M. Hada, M. Ehara, K. Toyota, R. Fukuda, 
 J. Hasegawa, M. Ishida, T. Nakajima, Y. Honda, O. Kitao, H. Nakai, 
 T. Vreven, K. Throssell, J. A. Montgomery, Jr., J. E. Peralta, 
 F. Ogliaro, M. J. Bearpark, J. J. Heyd, E. N. Brothers, K. N. Kudin, 
 V. N. Staroverov, T. A. Keith, R. Kobayashi, J. Normand, 
 K. Raghavachari, A. P. Rendell, J. C. Burant, S. S. Iyengar, 
 J. Tomasi, M. Cossi, J. M. Millam, M. Klene, C. Adamo, R. Cammi, 
 J. W. Ochterski, R. L. Martin, K. Morokuma, O. Farkas, 
 J. B. Foresman, and D. J. Fox, Gaussian, Inc., Wallingford CT, 2016.
 
 ******************************************
 Gaussian 16:  ES64L-G16RevA.03 25-Dec-2016
                25-Feb-2020 
 ******************************************
 %mem=50GB
 %nproc=16
 Will use up to   16 processors via shared memory.
 ----------------------------------------------------------------------
 #P uLC-wHPBE/6-31G iop(3/107=0317800000, 3/108=0317800000) scf=(conver
 =6,fermi,ndamp=35,noincfock,novaracc,vshift=500,xqc)
 ----------------------------------------------------------------------
 1/38=1,172=1/1;
 2/12=2,17=6,18=5,40=1/2;
 3/5=1,6=6,11=2,25=1,30=1,74=-71,107=317800000,108=317800000,116=2/1,2,3;
 4//1;
 5/5=100002,6=6,8=3,10=500,13=1,18=-1,22=13,38=1,93=35/2,8;
 6/7=2,8=2,9=2,10=2,28=1/1;
 99/5=1,9=1/99;
 Leave Link    1 at Tue Feb 25 12:23:22 2020, MaxMem=  6710886400 cpu:               9.2 elap:               0.6
 (Enter /opt/ohpc/pub/libs/gaussian/g16-A.03/haswell/g16/l101.exe)
 -----
 H6 C5
 -----
 Symbolic Z-matrix:
 Charge =  1 Multiplicity = 2
 C                     0.        0.89521  -0.93345 
 C                     0.        1.13161   0.42437 
 C                     0.        0.        1.24092 
 C                     0.       -1.13161   0.42437 
 C                     0.       -0.89521  -0.93345 
 H                     0.        0.       -1.7208 
 H                     0.        1.62009  -1.74222 
 H                     0.        2.16001   0.77306 
 H                     0.        0.        2.32259 
 H                     0.       -2.16001   0.77306 
 H                     0.       -1.62009  -1.74222 
 
 ITRead=  0  0  0  0  0  0  0  0  0  0  0
 MicOpt= -1 -1 -1 -1 -1 -1 -1 -1 -1 -1 -1
 NAtoms=     11 NQM=       11 NQMF=       0 NMMI=      0 NMMIF=      0
                NMic=       0 NMicF=      0.
                    Isotopes and Nuclear Properties:
 (Nuclear quadrupole moments (NQMom) in fm**2, nuclear magnetic moments (NMagM)
  in nuclear magnetons)

  Atom         1           2           3           4           5           6           7           8           9          10
 IAtWgt=          12          12          12          12          12           1           1           1           1           1
 AtmWgt=  12.0000000  12.0000000  12.0000000  12.0000000  12.0000000   1.0078250   1.0078250   1.0078250   1.0078250   1.0078250
 NucSpn=           0           0           0           0           0           1           1           1           1           1
 AtZEff=  -0.0000000  -0.0000000  -0.0000000  -0.0000000  -0.0000000  -0.0000000  -0.0000000  -0.0000000  -0.0000000  -0.0000000
 NQMom=    0.0000000   0.0000000   0.0000000   0.0000000   0.0000000   0.0000000   0.0000000   0.0000000   0.0000000   0.0000000
 NMagM=    0.0000000   0.0000000   0.0000000   0.0000000   0.0000000   2.7928460   2.7928460   2.7928460   2.7928460   2.7928460
 AtZNuc=   6.0000000   6.0000000   6.0000000   6.0000000   6.0000000   1.0000000   1.0000000   1.0000000   1.0000000   1.0000000

  Atom        11
 IAtWgt=           1
 AtmWgt=   1.0078250
 NucSpn=           1
 AtZEff=  -0.0000000
 NQMom=    0.0000000
 NMagM=    2.7928460
 AtZNuc=   1.0000000
 Leave Link  101 at Tue Feb 25 12:23:22 2020, MaxMem=  6710886400 cpu:               2.5 elap:               0.2
 (Enter /opt/ohpc/pub/libs/gaussian/g16-A.03/haswell/g16/l202.exe)
                          Input orientation:                          
 ---------------------------------------------------------------------
 Center     Atomic      Atomic             Coordinates (Angstroms)
 Number     Number       Type             X           Y           Z
 ---------------------------------------------------------------------
      1          6           0        0.000000    0.895213   -0.933453
      2          6           0        0.000000    1.131613    0.424372
      3          6           0        0.000000    0.000000    1.240919
      4          6           0        0.000000   -1.131613    0.424372
      5          6           0        0.000000   -0.895213   -0.933453
      6          1           0        0.000000    0.000000   -1.720797
      7          1           0        0.000000    1.620085   -1.742217
      8          1           0        0.000000    2.160007    0.773055
      9          1           0        0.000000    0.000000    2.322589
     10          1           0        0.000000   -2.160007    0.773055
     11          1           0        0.000000   -1.620085   -1.742217
 ---------------------------------------------------------------------
                    Distance matrix (angstroms):
                    1          2          3          4          5
     1  C    0.000000
     2  C    1.378250   0.000000
     3  C    2.351446   1.395456   0.000000
     4  C    2.439613   2.263226   1.395456   0.000000
     5  C    1.790426   2.439613   2.351446   1.378250   0.000000
     6  H    1.192190   2.425345   2.961716   2.425345   1.192190
     7  H    1.086066   2.220971   3.394669   3.502278   2.642125
     8  H    2.124117   1.085898   2.210097   3.310037   3.499506
     9  H    3.376865   2.209927   1.081670   2.209927   3.376865
    10  H    3.499506   3.310037   2.210097   1.085898   2.124117
    11  H    2.642125   3.502278   3.394669   2.220971   1.086066
                    6          7          8          9         10
     6  H    0.000000
     7  H    1.620227   0.000000
     8  H    3.299231   2.572569   0.000000
     9  H    4.043386   4.375765   2.658324   0.000000
    10  H    3.299231   4.540450   4.320014   2.658324   0.000000
    11  H    1.620227   3.240170   4.540450   4.375765   2.572569
                   11
    11  H    0.000000
 Stoichiometry    C5H6(1+,2)
 Framework group  C2V[C2(HCH),SGV(C4H4)]
 Deg. of freedom    10
 Full point group                 C2V     NOp   4
 Largest Abelian subgroup         C2V     NOp   4
 Largest concise Abelian subgroup C2      NOp   2
                         Standard orientation:                         
 ---------------------------------------------------------------------
 Center     Atomic      Atomic             Coordinates (Angstroms)
 Number     Number       Type             X           Y           Z
 ---------------------------------------------------------------------
      1          6           0        0.000000    0.895213   -0.933453
      2          6           0        0.000000    1.131613    0.424372
      3          6           0        0.000000   -0.000000    1.240919
      4          6           0       -0.000000   -1.131613    0.424372
      5          6           0       -0.000000   -0.895213   -0.933453
      6          1           0       -0.000000    0.000000   -1.720797
      7          1           0        0.000000    1.620085   -1.742217
      8          1           0        0.000000    2.160007    0.773055
      9          1           0        0.000000   -0.000000    2.322589
     10          1           0       -0.000000   -2.160007    0.773055
     11          1           0       -0.000000   -1.620085   -1.742217
 ---------------------------------------------------------------------
 Rotational constants (GHZ):           8.5037938           7.8157507           4.0726340
 Leave Link  202 at Tue Feb 25 12:23:22 2020, MaxMem=  6710886400 cpu:               0.2 elap:               0.0
 (Enter /opt/ohpc/pub/libs/gaussian/g16-A.03/haswell/g16/l301.exe)
 Standard basis: 6-31G (6D, 7F)
 Ernie: Thresh=  0.10000D-02 Tol=  0.10000D-05 Strict=F.
 There are    27 symmetry adapted cartesian basis functions of A1  symmetry.
 There are     4 symmetry adapted cartesian basis functions of A2  symmetry.
 There are     6 symmetry adapted cartesian basis functions of B1  symmetry.
 There are    20 symmetry adapted cartesian basis functions of B2  symmetry.
 There are    27 symmetry adapted basis functions of A1  symmetry.
 There are     4 symmetry adapted basis functions of A2  symmetry.
 There are     6 symmetry adapted basis functions of B1  symmetry.
 There are    20 symmetry adapted basis functions of B2  symmetry.
    57 basis functions,   134 primitive gaussians,    57 cartesian basis functions
    18 alpha electrons       17 beta electrons
       nuclear repulsion energy       155.4439185285 Hartrees.
 IExCor=33909 DFT=T Ex+Corr=LC-wHPBE ExCW=0 ScaHFX=  1.000000
 ScaDFX=  1.000000  1.000000  1.000000  1.000000 ScalE2=  1.000000  1.000000
 IRadAn=      5 IRanWt=     -1 IRanGd=            0 ICorTp=0 IEmpDi=  4
 HFx  wShort=  0.000000 wLong=  0.317800 cFull=  0.000000 cShort=  0.000000 cLong=  1.000000
 DFx  wShort=  0.000000 wLong=  0.317800 cFull=  0.000000 cShort=  1.000000 cLong=  0.000000
 NAtoms=   11 NActive=   11 NUniq=    7 SFac= 2.47D+00 NAtFMM=   60 NAOKFM=F Big=F
 Integral buffers will be    131072 words long.
 Raffenetti 2 integral format.
 Two-electron integral symmetry is turned on.
 Leave Link  301 at Tue Feb 25 12:23:22 2020, MaxMem=  6710886400 cpu:               0.8 elap:               0.1
 (Enter /opt/ohpc/pub/libs/gaussian/g16-A.03/haswell/g16/l302.exe)
 NPDir=0 NMtPBC=     1 NCelOv=     1 NCel=       1 NClECP=     1 NCelD=      1
         NCelK=      1 NCelE2=     1 NClLst=     1 CellRange=     0.0.
 One-electron integrals computed using PRISM.
 One-electron integral symmetry used in STVInt
 NBasis=    57 RedAO= T EigKep=  1.90D-03  NBF=    27     4     6    20
 NBsUse=    57 1.00D-06 EigRej= -1.00D+00 NBFU=    27     4     6    20
 Precomputing XC quadrature grid using
 IXCGrd= 4 IRadAn=           5 IRanWt=          -1 IRanGd=           0 AccXCQ= 0.00D+00.
 Generated NRdTot=       0 NPtTot=           0 NUsed=           0 NTot=          32
 NSgBfM=    57    57    57    57    57 MxSgAt=    11 MxSgA2=    11.
 Leave Link  302 at Tue Feb 25 12:23:22 2020, MaxMem=  6710886400 cpu:               3.1 elap:               0.2
 (Enter /opt/ohpc/pub/libs/gaussian/g16-A.03/haswell/g16/l303.exe)
 DipDrv:  MaxL=1.
 Leave Link  303 at Tue Feb 25 12:23:23 2020, MaxMem=  6710886400 cpu:               0.4 elap:               0.0
 (Enter /opt/ohpc/pub/libs/gaussian/g16-A.03/haswell/g16/l401.exe)
 ExpMin= 1.61D-01 ExpMax= 3.05D+03 ExpMxC= 4.57D+02 IAcc=3 IRadAn=         5 AccDes= 0.00D+00
 Harris functional with IExCor=33909 and IRadAn=       5 diagonalized for initial guess.
 HarFok:  IExCor=33909 AccDes= 0.00D+00 IRadAn=         5 IDoV= 1 UseB2=F ITyADJ=14
 ICtDFT=  3500011 ScaDFX=  1.000000  1.000000  1.000000  1.000000
 FoFCou: FMM=F IPFlag=           0 FMFlag=      100000 FMFlg1=           0
         NFxFlg=           0 DoJE=T BraDBF=F KetDBF=T FulRan=T
         wScrn=  0.000000 ICntrl=       500 IOpCl=  0 I1Cent=   200000004 NGrid=           0
         NMat0=    1 NMatS0=      1 NMatT0=    0 NMatD0=    1 NMtDS0=    0 NMtDT0=    0
 Petite list used in FoFCou.
 Harris En= -187.843248013136    
 JPrj=0 DoOrth=F DoCkMO=F.
 Initial guess orbital symmetries:
 Alpha Orbitals:
       Occupied  (A1) (B2) (A1) (B2) (A1) (A1) (B2) (A1) (A1) (B2)
                 (A1) (B2) (A1) (B2) (A1) (B1) (A2) (B1)
       Virtual   (A2) (B2) (B1) (A1) (A1) (B2) (A1) (B2) (A1) (B2)
                 (A1) (A1) (B2) (B2) (B1) (A1) (A2) (B1) (B2) (A1)
                 (A1) (A2) (B1) (B2) (B2) (A1) (B2) (A1) (A1) (B2)
                 (A1) (A1) (A1) (B2) (A1) (B2) (A1) (A1) (B2)
 Beta  Orbitals:
       Occupied  (A1) (B2) (A1) (B2) (A1) (A1) (B2) (A1) (A1) (B2)
                 (A1) (B2) (A1) (B2) (A1) (B1) (A2)
       Virtual   (B1) (A2) (B2) (B1) (A1) (A1) (B2) (A1) (B2) (A1)
                 (B2) (A1) (A1) (B2) (B2) (B1) (A1) (A2) (B1) (B2)
                 (A1) (A1) (A2) (B1) (B2) (B2) (A1) (B2) (A1) (A1)
                 (B2) (A1) (A1) (A1) (B2) (A1) (B2) (A1) (A1) (B2)
 The electronic state of the initial guess is 2-B1.
 Initial guess <Sx>= 0.0000 <Sy>= 0.0000 <Sz>= 0.5000 <S**2>= 0.7500 S= 0.5000
 Leave Link  401 at Tue Feb 25 12:23:23 2020, MaxMem=  6710886400 cpu:               4.5 elap:               0.4
 (Enter /opt/ohpc/pub/libs/gaussian/g16-A.03/haswell/g16/l502.exe)
 Keep R1 and R2 ints in memory in symmetry-blocked form, NReq=16815681.
 FoFCou: FMM=F IPFlag=           0 FMFlag=           0 FMFlg1=           0
         NFxFlg=           0 DoJE=F BraDBF=F KetDBF=F FulRan=T
         wScrn=  0.000000 ICntrl=       600 IOpCl=  0 I1Cent=           0 NGrid=           0
         NMat0=    1 NMatS0=   1653 NMatT0=    0 NMatD0=    1 NMtDS0=    0 NMtDT0=    0
 Petite list used in FoFCou.
 UHF open shell SCF:
 Using DIIS extrapolation, IDIIS=    10.
 NGot=  6710886400 LenX=  6710059561 LenY=  6710055871
 Requested convergence on RMS density matrix=1.00D-06 within  32 cycles.
 Requested convergence on MAX density matrix=1.00D-04.
 Requested convergence on             energy=1.00D-04.
 Virtual orbitals will be shifted by   0.500 hartree.
 No special actions if energy rises.
 Dynamic level shift is on during FON iterations.

 Cycle   1  Pass 1  IDiag  1:
 E= -193.408033234123    
 DIIS: error= 4.75D-02 at cycle   1 NSaved=   1.
 NSaved= 1 IEnMin= 1 EnMin= -193.408033234123     IErMin= 1 ErrMin= 4.75D-02
 ErrMax= 4.75D-02  0.00D+00 EMaxC= 1.00D+00 BMatC= 1.81D-01 BMatP= 1.81D-01
 IDIUse=1 WtCom= 1.00D+00 WtEn= 0.00D+00
 Coeff-Com:  0.100D+01
 Coeff:      0.100D+01
 Gap=     0.358 Goal=   None    Shift=    0.500
 T= 1772. Gap= 0.828 NK=0 IS=   19 IE=   57 IFin=   18
          NO(<0.9)=   0  NV(>0.1)=   0     18.00e < EF      0.00e >EF  Err=0.0D+00
 Gap=     0.246 Goal=   None    Shift=    0.500
 T= 1772. Gap= 0.749 NK=0 IS=   18 IE=   57 IFin=   17
          NO(<0.9)=   0  NV(>0.1)=   0     17.00e < EF      0.00e >EF  Err=0.0D+00
 GapD=    0.246 DampG=1.000 DampE=0.500 DampFc=0.5000 IDamp=-1.
 Damping current iteration by 5.00D-01
 RMSDP=6.62D-03 MaxDP=5.01D-02              OVMax= 9.87D-02

 Cycle   2  Pass 1  IDiag  1:
 E= -193.442624634541     Delta-E=       -0.034591400418 Rises=F Damp=T
 DIIS: error= 2.29D-02 at cycle   2 NSaved=   2.
 NSaved= 2 IEnMin= 2 EnMin= -193.442624634541     IErMin= 2 ErrMin= 2.29D-02
 ErrMax= 2.29D-02  0.00D+00 EMaxC= 1.00D+00 BMatC= 3.17D-02 BMatP= 1.81D-01
 IDIUse=1 WtCom= 1.00D+00 WtEn= 0.00D+00
 Coeff-Com: -0.549D+00 0.155D+01
 Coeff:     -0.549D+00 0.155D+01
 Gap=     0.428 Goal=   None    Shift=    0.500
 T= 1658. Gap= 0.913 NK=4 IS=   19 IE=   23 IFin=   18
          NO(<0.9)=   0  NV(>0.1)=   0     18.00e < EF      0.00e >EF  Err=0.0D+00
 Gap=     0.274 Goal=   None    Shift=    0.500
 T= 1658. Gap= 0.772 NK=4 IS=   18 IE=   23 IFin=   17
          NO(<0.9)=   0  NV(>0.1)=   0     17.00e < EF      0.00e >EF  Err=0.0D+00
 GapD=    0.274 DampG=1.000 DampE=0.500 DampFc=0.5000 IDamp=-1.
 Damping current iteration by 5.00D-01
 RMSDP=4.02D-03 MaxDP=3.13D-02 DE=-3.46D-02 OVMax= 1.56D-02

 Cycle   3  Pass 1  IDiag  1:
 E= -193.454969854575     Delta-E=       -0.012345220034 Rises=F Damp=T
 DIIS: error= 1.30D-02 at cycle   3 NSaved=   3.
 NSaved= 3 IEnMin= 3 EnMin= -193.454969854575     IErMin= 3 ErrMin= 1.30D-02
 ErrMax= 1.30D-02  0.00D+00 EMaxC= 1.00D+00 BMatC= 7.44D-03 BMatP= 3.17D-02
 IDIUse=1 WtCom= 1.00D+00 WtEn= 0.00D+00
 Coeff-Com:  0.339D+00-0.188D+01 0.254D+01
 Coeff:      0.339D+00-0.188D+01 0.254D+01
 Gap=     0.420 Goal=   None    Shift=    0.500
 T= 1450. Gap= 0.920 NK=0 IS=   19 IE=   57 IFin=   18
          NO(<0.9)=   0  NV(>0.1)=   0     18.00e < EF      0.00e >EF  Err=0.0D+00
 Gap=     0.277 Goal=   None    Shift=    0.500
 T= 1450. Gap= 0.777 NK=0 IS=   18 IE=   57 IFin=   17
          NO(<0.9)=   0  NV(>0.1)=   0     17.00e < EF      0.00e >EF  Err=0.0D+00
 GapD=    0.277 DampG=1.000 DampE=0.500 DampFc=0.5000 IDamp=-1.
 Damping current iteration by 5.00D-01
 RMSDP=2.22D-03 MaxDP=1.66D-02 DE=-1.23D-02 OVMax= 1.46D-02

 Cycle   4  Pass 1  IDiag  1:
 E= -193.460817762524     Delta-E=       -0.005847907949 Rises=F Damp=T
 DIIS: error= 8.28D-03 at cycle   4 NSaved=   4.
 NSaved= 4 IEnMin= 4 EnMin= -193.460817762524     IErMin= 4 ErrMin= 8.28D-03
 ErrMax= 8.28D-03  0.00D+00 EMaxC= 1.00D+00 BMatC= 2.52D-03 BMatP= 7.44D-03
 IDIUse=1 WtCom= 1.00D+00 WtEn= 0.00D+00
 Coeff-Com: -0.224D-02 0.838D+00-0.370D+01 0.386D+01
 Coeff:     -0.224D-02 0.838D+00-0.370D+01 0.386D+01
 Gap=     0.424 Goal=   None    Shift=    0.500
 T= 1069. Gap= 0.924 NK=0 IS=   19 IE=   57 IFin=   18
          NO(<0.9)=   0  NV(>0.1)=   0     18.00e < EF      0.00e >EF  Err=0.0D+00
 Gap=     0.281 Goal=   None    Shift=    0.500
 T= 1069. Gap= 0.781 NK=0 IS=   18 IE=   57 IFin=   17
          NO(<0.9)=   0  NV(>0.1)=   0     17.00e < EF      0.00e >EF  Err=0.0D+00
 GapD=    0.281 DampG=1.000 DampE=1.000 DampFc=1.0000 IDamp=-1.
 RMSDP=1.37D-03 MaxDP=1.37D-02 DE=-5.85D-03 OVMax= 1.40D-02

 Cycle   5  Pass 1  IDiag  1:
 E= -193.467570192717     Delta-E=       -0.006752430193 Rises=F Damp=F
 DIIS: error= 3.60D-03 at cycle   5 NSaved=   5.
 NSaved= 5 IEnMin= 5 EnMin= -193.467570192717     IErMin= 5 ErrMin= 3.60D-03
 ErrMax= 3.60D-03  0.00D+00 EMaxC= 1.00D+00 BMatC= 3.64D-04 BMatP= 2.52D-03
 IDIUse=1 WtCom= 1.00D+00 WtEn= 0.00D+00
 Coeff-Com: -0.172D+00 0.877D+00-0.729D+00-0.848D+00 0.187D+01
 Coeff:     -0.172D+00 0.877D+00-0.729D+00-0.848D+00 0.187D+01
 Gap=     0.425 Goal=   None    Shift=    0.500
 T=  725. Gap= 0.925 NK=0 IS=   19 IE=   57 IFin=   18
          NO(<0.9)=   0  NV(>0.1)=   0     18.00e < EF      0.00e >EF  Err=0.0D+00
 Gap=     0.285 Goal=   None    Shift=    0.500
 T=  725. Gap= 0.785 NK=0 IS=   18 IE=   57 IFin=   17
          NO(<0.9)=   0  NV(>0.1)=   0     17.00e < EF      0.00e >EF  Err=0.0D+00
 GapD=    0.285 DampG=1.000 DampE=1.000 DampFc=1.0000 IDamp=-1.
 RMSDP=3.91D-04 MaxDP=6.04D-03 DE=-6.75D-03 OVMax= 1.31D-02

 Cycle   6  Pass 1  IDiag  1:
 E= -193.468078161505     Delta-E=       -0.000507968788 Rises=F Damp=F
 DIIS: error= 2.75D-03 at cycle   6 NSaved=   6.
 NSaved= 6 IEnMin= 6 EnMin= -193.468078161505     IErMin= 6 ErrMin= 2.75D-03
 ErrMax= 2.75D-03  0.00D+00 EMaxC= 1.00D+00 BMatC= 1.62D-04 BMatP= 3.64D-04
 IDIUse=1 WtCom= 1.00D+00 WtEn= 0.00D+00
 Coeff-Com:  0.755D-02-0.314D+00 0.941D+00-0.684D+00-0.162D+01 0.267D+01
 Coeff:      0.755D-02-0.314D+00 0.941D+00-0.684D+00-0.162D+01 0.267D+01
 Gap=     0.426 Goal=   None    Shift=    0.500
 T=  406. Gap= 0.926 NK=0 IS=   19 IE=   57 IFin=   18
          NO(<0.9)=   0  NV(>0.1)=   0     18.00e < EF      0.00e >EF  Err=0.0D+00
 Gap=     0.286 Goal=   None    Shift=    0.500
 T=  406. Gap= 0.786 NK=0 IS=   18 IE=   57 IFin=   17
          NO(<0.9)=   0  NV(>0.1)=   0     17.00e < EF      0.00e >EF  Err=0.0D+00
 GapD=    0.286 DampG=1.000 DampE=1.000 DampFc=1.0000 IDamp=-1.
 RMSDP=3.04D-04 MaxDP=4.90D-03 DE=-5.08D-04 OVMax= 1.17D-02

 Cycle   7  Pass 1  IDiag  1:
 E= -193.468360577952     Delta-E=       -0.000282416448 Rises=F Damp=F
 DIIS: error= 1.94D-03 at cycle   7 NSaved=   7.
 NSaved= 7 IEnMin= 7 EnMin= -193.468360577952     IErMin= 7 ErrMin= 1.94D-03
 ErrMax= 1.94D-03  0.00D+00 EMaxC= 1.00D+00 BMatC= 6.89D-05 BMatP= 1.62D-04
 IDIUse=1 WtCom= 1.00D+00 WtEn= 0.00D+00
 Coeff-Com:  0.155D-01-0.645D-01-0.125D+00 0.393D+00-0.369D+00-0.109D+01
 Coeff-Com:  0.224D+01
 Coeff:      0.155D-01-0.645D-01-0.125D+00 0.393D+00-0.369D+00-0.109D+01
 Coeff:      0.224D+01
 Gap=     0.426 Goal=   None    Shift=    0.500
 T=   66. Gap= 0.926 NK=0 IS=   19 IE=   57 IFin=   18
          NO(<0.9)=   0  NV(>0.1)=   0     18.00e < EF      0.00e >EF  Err=0.0D+00
 Gap=     0.287 Goal=   None    Shift=    0.500
 T=   66. Gap= 0.787 NK=0 IS=   18 IE=   57 IFin=   17
          NO(<0.9)=   0  NV(>0.1)=   0     17.00e < EF      0.00e >EF  Err=0.0D+00
 GapD=    0.287 DampG=1.000 DampE=1.000 DampFc=1.0000 IDamp=-1.
 RMSDP=2.00D-04 MaxDP=2.85D-03 DE=-2.82D-04 OVMax= 8.35D-03

 Cycle   8  Pass 1  IDiag  1:
 E= -193.468480328152     Delta-E=       -0.000119750200 Rises=F Damp=F
 DIIS: error= 1.34D-03 at cycle   8 NSaved=   8.
 NSaved= 8 IEnMin= 8 EnMin= -193.468480328152     IErMin= 8 ErrMin= 1.34D-03
 ErrMax= 1.34D-03  0.00D+00 EMaxC= 1.00D+00 BMatC= 3.12D-05 BMatP= 6.89D-05
 IDIUse=1 WtCom= 1.00D+00 WtEn= 0.00D+00
 Coeff-Com: -0.114D-01 0.244D+00-0.748D+00 0.599D+00 0.100D+01-0.228D+01
 Coeff-Com: -0.123D-01 0.221D+01
 Coeff:     -0.114D-01 0.244D+00-0.748D+00 0.599D+00 0.100D+01-0.228D+01
 Coeff:     -0.123D-01 0.221D+01
 Gap=     0.426 Goal=   None    Shift=    0.500
 Gap=     0.288 Goal=   None    Shift=    0.500
 GapD=    0.288 DampG=1.000 DampE=1.000 DampFc=1.0000 IDamp=-1.
 RMSDP=1.51D-04 MaxDP=2.11D-03 DE=-1.20D-04 OVMax= 6.67D-03

 Cycle   9  Pass 1  IDiag  1:
 E= -193.468537220597     Delta-E=       -0.000056892445 Rises=F Damp=F
 DIIS: error= 8.75D-04 at cycle   9 NSaved=   9.
 NSaved= 9 IEnMin= 9 EnMin= -193.468537220597     IErMin= 9 ErrMin= 8.75D-04
 ErrMax= 8.75D-04  0.00D+00 EMaxC= 1.00D+00 BMatC= 1.24D-05 BMatP= 3.12D-05
 IDIUse=1 WtCom= 1.00D+00 WtEn= 0.00D+00
 Coeff-Com:  0.141D-02-0.140D+00 0.571D+00-0.591D+00-0.428D+00 0.185D+01
 Coeff-Com: -0.101D+01-0.309D+01 0.384D+01
 Coeff:      0.141D-02-0.140D+00 0.571D+00-0.591D+00-0.428D+00 0.185D+01
 Coeff:     -0.101D+01-0.309D+01 0.384D+01
 Gap=     0.426 Goal=   None    Shift=    0.500
 Gap=     0.288 Goal=   None    Shift=    0.500
 RMSDP=1.08D-04 MaxDP=1.47D-03 DE=-5.69D-05 OVMax= 5.17D-03

 Cycle  10  Pass 1  IDiag  1:
 E= -193.468561950959     Delta-E=       -0.000024730361 Rises=F Damp=F
 DIIS: error= 5.23D-04 at cycle  10 NSaved=  10.
 NSaved=10 IEnMin=10 EnMin= -193.468561950959     IErMin=10 ErrMin= 5.23D-04
 ErrMax= 5.23D-04  0.00D+00 EMaxC= 1.00D+00 BMatC= 4.23D-06 BMatP= 1.24D-05
 IDIUse=1 WtCom= 1.00D+00 WtEn= 0.00D+00
 Coeff-Com:  0.462D-03 0.368D-01-0.173D+00 0.196D+00 0.911D-01-0.547D+00
 Coeff-Com:  0.455D+00 0.825D+00-0.283D+01 0.295D+01
 Coeff:      0.462D-03 0.368D-01-0.173D+00 0.196D+00 0.911D-01-0.547D+00
 Coeff:      0.455D+00 0.825D+00-0.283D+01 0.295D+01
 Gap=     0.426 Goal=   None    Shift=    0.500
 Gap=     0.288 Goal=   None    Shift=    0.500
 RMSDP=6.19D-05 MaxDP=8.93D-04 DE=-2.47D-05 OVMax= 3.12D-03

 Cycle  11  Pass 1  IDiag  1:
 E= -193.468570192475     Delta-E=       -0.000008241516 Rises=F Damp=F
 DIIS: error= 3.09D-04 at cycle  11 NSaved=  11.
 NSaved=11 IEnMin=11 EnMin= -193.468570192475     IErMin=11 ErrMin= 3.09D-04
 ErrMax= 3.09D-04  0.00D+00 EMaxC= 1.00D+00 BMatC= 1.50D-06 BMatP= 4.23D-06
 IDIUse=1 WtCom= 1.00D+00 WtEn= 0.00D+00
 Coeff-Com: -0.318D-03-0.303D-01 0.154D+00-0.184D+00-0.457D-01 0.486D+00
 Coeff-Com: -0.432D+00-0.935D+00 0.305D+01-0.535D+01 0.429D+01
 Coeff:     -0.318D-03-0.303D-01 0.154D+00-0.184D+00-0.457D-01 0.486D+00
 Coeff:     -0.432D+00-0.935D+00 0.305D+01-0.535D+01 0.429D+01
 Gap=     0.426 Goal=   None    Shift=    0.500
 Gap=     0.288 Goal=   None    Shift=    0.500
 RMSDP=3.81D-05 MaxDP=5.35D-04 DE=-8.24D-06 OVMax= 1.96D-03

 Cycle  12  Pass 1  IDiag  1:
 E= -193.468573136752     Delta-E=       -0.000002944277 Rises=F Damp=F
 DIIS: error= 1.76D-04 at cycle  12 NSaved=  12.
 NSaved=12 IEnMin=12 EnMin= -193.468573136752     IErMin=12 ErrMin= 1.76D-04
 ErrMax= 1.76D-04  0.00D+00 EMaxC= 1.00D+00 BMatC= 4.91D-07 BMatP= 1.50D-06
 IDIUse=1 WtCom= 1.00D+00 WtEn= 0.00D+00
 Coeff-Com:  0.303D-03-0.108D-01 0.355D-01-0.301D-01-0.442D-01 0.118D+00
 Coeff-Com: -0.254D-02-0.179D+00-0.256D+00 0.156D+01-0.330D+01 0.311D+01
 Coeff:      0.303D-03-0.108D-01 0.355D-01-0.301D-01-0.442D-01 0.118D+00
 Coeff:     -0.254D-02-0.179D+00-0.256D+00 0.156D+01-0.330D+01 0.311D+01
 Gap=     0.426 Goal=   None    Shift=    0.500
 Gap=     0.288 Goal=   None    Shift=    0.500
 RMSDP=2.19D-05 MaxDP=3.01D-04 DE=-2.94D-06 OVMax= 1.14D-03

 Cycle  13  Pass 1  IDiag  1:
 E= -193.468574098084     Delta-E=       -0.000000961332 Rises=F Damp=F
 DIIS: error= 9.98D-05 at cycle  13 NSaved=  13.
 NSaved=13 IEnMin=13 EnMin= -193.468574098084     IErMin=13 ErrMin= 9.98D-05
 ErrMax= 9.98D-05  0.00D+00 EMaxC= 1.00D+00 BMatC= 1.56D-07 BMatP= 4.91D-07
 IDIUse=1 WtCom= 1.00D+00 WtEn= 0.00D+00
 Coeff-Com: -0.708D-04 0.581D-02-0.188D-01 0.150D-01 0.306D-01-0.629D-01
 Coeff-Com: -0.751D-03 0.738D-01 0.156D+00-0.954D+00 0.224D+01-0.414D+01
 Coeff-Com:  0.365D+01
 Coeff:     -0.708D-04 0.581D-02-0.188D-01 0.150D-01 0.306D-01-0.629D-01
 Coeff:     -0.751D-03 0.738D-01 0.156D+00-0.954D+00 0.224D+01-0.414D+01
 Coeff:      0.365D+01
 Gap=     0.426 Goal=   None    Shift=    0.500
 Gap=     0.288 Goal=   None    Shift=    0.500
 RMSDP=1.28D-05 MaxDP=1.78D-04 DE=-9.61D-07 OVMax= 6.71D-04

 Cycle  14  Pass 1  IDiag  1:
 E= -193.468574411798     Delta-E=       -0.000000313714 Rises=F Damp=F
 DIIS: error= 5.43D-05 at cycle  14 NSaved=  14.
 NSaved=14 IEnMin=14 EnMin= -193.468574411798     IErMin=14 ErrMin= 5.43D-05
 ErrMax= 5.43D-05  0.00D+00 EMaxC= 1.00D+00 BMatC= 4.90D-08 BMatP= 1.56D-07
 IDIUse=1 WtCom= 1.00D+00 WtEn= 0.00D+00
 Coeff-Com:  0.232D-03-0.511D-02 0.204D-01-0.219D-01-0.131D-01 0.584D-01
 Coeff-Com: -0.192D-01-0.108D+00 0.186D+00-0.134D+00-0.368D+00 0.156D+01
 Coeff-Com: -0.334D+01 0.318D+01
 Coeff:      0.232D-03-0.511D-02 0.204D-01-0.219D-01-0.131D-01 0.584D-01
 Coeff:     -0.192D-01-0.108D+00 0.186D+00-0.134D+00-0.368D+00 0.156D+01
 Coeff:     -0.334D+01 0.318D+01
 Gap=     0.426 Goal=   None    Shift=    0.500
 Gap=     0.288 Goal=   None    Shift=    0.500
 RMSDP=7.21D-06 MaxDP=1.02D-04 DE=-3.14D-07 OVMax= 3.85D-04

 Cycle  15  Pass 1  IDiag  1:
 E= -193.468574510421     Delta-E=       -0.000000098623 Rises=F Damp=F
 DIIS: error= 2.96D-05 at cycle  15 NSaved=  15.
 NSaved=15 IEnMin=15 EnMin= -193.468574510421     IErMin=15 ErrMin= 2.96D-05
 ErrMax= 2.96D-05  0.00D+00 EMaxC= 1.00D+00 BMatC= 1.50D-08 BMatP= 4.90D-08
 IDIUse=1 WtCom= 1.00D+00 WtEn= 0.00D+00
 Coeff-Com: -0.133D-03 0.238D-02-0.982D-02 0.110D-01 0.451D-02-0.254D-01
 Coeff-Com:  0.124D-01 0.497D-01-0.104D+00 0.123D+00 0.196D-01-0.621D+00
 Coeff-Com:  0.179D+01-0.359D+01 0.334D+01
 Coeff:     -0.133D-03 0.238D-02-0.982D-02 0.110D-01 0.451D-02-0.254D-01
 Coeff:      0.124D-01 0.497D-01-0.104D+00 0.123D+00 0.196D-01-0.621D+00
 Coeff:      0.179D+01-0.359D+01 0.334D+01
 Gap=     0.426 Goal=   None    Shift=    0.500
 Gap=     0.288 Goal=   None    Shift=    0.500
 RMSDP=3.99D-06 MaxDP=5.60D-05 DE=-9.86D-08 OVMax= 2.15D-04

 Cycle  16  Pass 1  IDiag  1:
 E= -193.468574540190     Delta-E=       -0.000000029769 Rises=F Damp=F
 DIIS: error= 1.57D-05 at cycle  16 NSaved=  16.
 NSaved=16 IEnMin=16 EnMin= -193.468574540190     IErMin=16 ErrMin= 1.57D-05
 ErrMax= 1.57D-05  0.00D+00 EMaxC= 1.00D+00 BMatC= 4.62D-09 BMatP= 1.50D-08
 IDIUse=1 WtCom= 1.00D+00 WtEn= 0.00D+00
 Coeff-Com:  0.335D-04-0.159D-03 0.155D-02-0.266D-02 0.260D-02-0.120D-02
 Coeff-Com:  0.182D-02-0.952D-02 0.421D-01-0.112D+00 0.164D+00-0.128D+00
 Coeff-Com: -0.245D+00 0.142D+01-0.356D+01 0.343D+01
 Coeff:      0.335D-04-0.159D-03 0.155D-02-0.266D-02 0.260D-02-0.120D-02
 Coeff:      0.182D-02-0.952D-02 0.421D-01-0.112D+00 0.164D+00-0.128D+00
 Coeff:     -0.245D+00 0.142D+01-0.356D+01 0.343D+01
 Gap=     0.426 Goal=   None    Shift=    0.500
 Gap=     0.288 Goal=   None    Shift=    0.500
 RMSDP=2.18D-06 MaxDP=2.99D-05 DE=-2.98D-08 OVMax= 1.18D-04

 Cycle  17  Pass 1  IDiag  1:
 E= -193.468574549008     Delta-E=       -0.000000008818 Rises=F Damp=F
 DIIS: error= 8.20D-06 at cycle  17 NSaved=  17.
 NSaved=17 IEnMin=17 EnMin= -193.468574549008     IErMin=17 ErrMin= 8.20D-06
 ErrMax= 8.20D-06  0.00D+00 EMaxC= 1.00D+00 BMatC= 1.42D-09 BMatP= 4.62D-09
 IDIUse=1 WtCom= 1.00D+00 WtEn= 0.00D+00
 Coeff-Com: -0.146D-04 0.342D-03-0.196D-02 0.267D-02-0.615D-03-0.334D-02
 Coeff-Com:  0.319D-02 0.875D-02-0.308D-01 0.626D-01-0.745D-01 0.519D-02
 Coeff-Com:  0.270D+00-0.114D+01 0.299D+01-0.512D+01 0.403D+01
 Coeff:     -0.146D-04 0.342D-03-0.196D-02 0.267D-02-0.615D-03-0.334D-02
 Coeff:      0.319D-02 0.875D-02-0.308D-01 0.626D-01-0.745D-01 0.519D-02
 Coeff:      0.270D+00-0.114D+01 0.299D+01-0.512D+01 0.403D+01
 Gap=     0.426 Goal=   None    Shift=    0.500
 Gap=     0.288 Goal=   None    Shift=    0.500
 RMSDP=1.16D-06 MaxDP=1.57D-05 DE=-8.82D-09 OVMax= 6.31D-05

 Cycle  18  Pass 1  IDiag  1:
 E= -193.468574551550     Delta-E=       -0.000000002542 Rises=F Damp=F
 DIIS: error= 4.23D-06 at cycle  18 NSaved=  18.
 NSaved=18 IEnMin=18 EnMin= -193.468574551550     IErMin=18 ErrMin= 4.23D-06
 ErrMax= 4.23D-06  0.00D+00 EMaxC= 1.00D+00 BMatC= 4.35D-10 BMatP= 1.42D-09
 IDIUse=1 WtCom= 1.00D+00 WtEn= 0.00D+00
 Coeff-Com: -0.529D-06 0.944D-05 0.408D-03-0.837D-03 0.125D-02-0.139D-02
 Coeff-Com:  0.882D-03-0.273D-02 0.160D-01-0.457D-01 0.809D-01-0.107D+00
 Coeff-Com:  0.466D-01 0.369D+00-0.153D+01 0.325D+01-0.494D+01 0.385D+01
 Coeff:     -0.529D-06 0.944D-05 0.408D-03-0.837D-03 0.125D-02-0.139D-02
 Coeff:      0.882D-03-0.273D-02 0.160D-01-0.457D-01 0.809D-01-0.107D+00
 Coeff:      0.466D-01 0.369D+00-0.153D+01 0.325D+01-0.494D+01 0.385D+01
 Gap=     0.426 Goal=   None    Shift=    0.500
 Gap=     0.288 Goal=   None    Shift=    0.500
 RMSDP=5.99D-07 MaxDP=7.95D-06 DE=-2.54D-09 OVMax= 3.28D-05

 SCF Done:  E(ULC-wHPBE) =  -193.468574552     A.U. after   18 cycles
            NFock= 18  Conv=0.60D-06     -V/T= 2.0049
 <Sx>= 0.0000 <Sy>= 0.0000 <Sz>= 0.5000 <S**2>= 0.7974 S= 0.5234
 <L.S>= 0.000000000000E+00
 KE= 1.925267282347D+02 PE=-7.506510331751D+02 EE= 2.092118118604D+02
 Annihilation of the first spin contaminant:
 S**2 before annihilation     0.7974,   after     0.7513
 Leave Link  502 at Tue Feb 25 12:23:25 2020, MaxMem=  6710886400 cpu:              28.6 elap:               1.8
 (Enter /opt/ohpc/pub/libs/gaussian/g16-A.03/haswell/g16/l508.exe)
 QCSCF skips out because SCF is already converged.
 Leave Link  508 at Tue Feb 25 12:23:25 2020, MaxMem=  6710886400 cpu:               0.0 elap:               0.0
 (Enter /opt/ohpc/pub/libs/gaussian/g16-A.03/haswell/g16/l601.exe)
 Copying SCF densities to generalized density rwf, IOpCl= 1 IROHF=0.

 **********************************************************************

            Population analysis using the SCF density.

 **********************************************************************

 Orbital symmetries:
 Alpha Orbitals:
       Occupied  (B2) (A1) (A1) (B2) (A1) (A1) (A1) (B2) (A1) (B2)
                 (A1) (B2) (A1) (A1) (B1) (B2) (A2) (B1)
       Virtual   (B2) (A2) (B1) (A1) (A1) (B2) (A1) (B2) (A1) (B2)
                 (A1) (A1) (B2) (B1) (B2) (B1) (A2) (A1) (A1) (B2)
                 (A1) (A2) (B1) (B2) (B2) (A1) (A1) (B2) (A1) (A1)
                 (B2) (A1) (A1) (B2) (A1) (B2) (A1) (A1) (B2)
 Beta  Orbitals:
       Occupied  (B2) (A1) (A1) (B2) (A1) (A1) (A1) (B2) (A1) (B2)
                 (A1) (B2) (A1) (A1) (B2) (B1) (A2)
       Virtual   (B1) (B2) (A2) (A1) (B1) (A1) (B2) (A1) (B2) (A1)
                 (B2) (A1) (A1) (B2) (B2) (B1) (A2) (A1) (B1) (A1)
                 (B2) (A1) (A2) (B1) (B2) (B2) (A1) (A1) (B2) (A1)
                 (B2) (A1) (A1) (A1) (B2) (A1) (B2) (A1) (A1) (B2)
 The electronic state is 2-B1.
 Alpha  occ. eigenvalues --  -10.37250 -10.37245 -10.32239 -10.31338 -10.31338
 Alpha  occ. eigenvalues --   -1.24305  -1.11487  -1.07045  -0.93198  -0.91051
 Alpha  occ. eigenvalues --   -0.86436  -0.76747  -0.74180  -0.73074  -0.72522
 Alpha  occ. eigenvalues --   -0.70876  -0.57894  -0.56338
 Alpha virt. eigenvalues --   -0.13737  -0.13211  -0.06258  -0.05396  -0.00202
 Alpha virt. eigenvalues --    0.04502   0.06492   0.08815   0.08955   0.20115
 Alpha virt. eigenvalues --    0.20143   0.30096   0.31382   0.39237   0.39896
 Alpha virt. eigenvalues --    0.46954   0.47541   0.48079   0.50622   0.51372
 Alpha virt. eigenvalues --    0.51540   0.54711   0.56220   0.64159   0.70661
 Alpha virt. eigenvalues --    0.72982   0.74290   0.76673   0.76866   0.83187
 Alpha virt. eigenvalues --    0.83200   0.87607   0.91647   0.97967   1.06144
 Alpha virt. eigenvalues --    1.07185   1.12422   1.34372   1.35832
  Beta  occ. eigenvalues --  -10.36697 -10.36690 -10.31604 -10.31604 -10.31343
  Beta  occ. eigenvalues --   -1.23156  -1.09667  -1.06766  -0.92201  -0.90345
  Beta  occ. eigenvalues --   -0.86157  -0.76443  -0.73899  -0.72526  -0.70715
  Beta  occ. eigenvalues --   -0.68237  -0.56607
  Beta virt. eigenvalues --   -0.27813  -0.12388  -0.10326  -0.05165  -0.02938
  Beta virt. eigenvalues --    0.00186   0.04764   0.06725   0.08785   0.09518
  Beta virt. eigenvalues --    0.20455   0.20631   0.30498   0.31755   0.40269
  Beta virt. eigenvalues --    0.41363   0.48525   0.48607   0.49586   0.51025
  Beta virt. eigenvalues --    0.51817   0.52635   0.55290   0.57708   0.64688
  Beta virt. eigenvalues --    0.71123   0.73823   0.74855   0.76575   0.77361
  Beta virt. eigenvalues --    0.83527   0.83634   0.88629   0.92280   0.98019
  Beta virt. eigenvalues --    1.06658   1.07686   1.13466   1.35252   1.36658
          Condensed to atoms (all electrons):
               1          2          3          4          5          6
     1  C    5.347158   0.500025  -0.041346  -0.128222   0.182275   0.165954
     2  C    0.500025   4.950522   0.464985  -0.024381  -0.128222  -0.024084
     3  C   -0.041346   0.464985   4.853531   0.464985  -0.041346   0.007635
     4  C   -0.128222  -0.024381   0.464985   4.950522   0.500025  -0.024084
     5  C    0.182275  -0.128222  -0.041346   0.500025   5.347158   0.165954
     6  H    0.165954  -0.024084   0.007635  -0.024084   0.165954   0.360678
     7  H    0.337587   0.004105  -0.000170   0.003255  -0.015955  -0.008861
     8  H   -0.024086   0.361949  -0.012091   0.004047   0.000957   0.000457
     9  H    0.005356  -0.028178   0.366972  -0.028178   0.005356  -0.000044
    10  H    0.000957   0.004047  -0.012091   0.361949  -0.024086   0.000457
    11  H   -0.015955   0.003255  -0.000170   0.004105   0.337587  -0.008861
               7          8          9         10         11
     1  C    0.337587  -0.024086   0.005356   0.000957  -0.015955
     2  C    0.004105   0.361949  -0.028178   0.004047   0.003255
     3  C   -0.000170  -0.012091   0.366972  -0.012091  -0.000170
     4  C    0.003255   0.004047  -0.028178   0.361949   0.004105
     5  C   -0.015955   0.000957   0.005356  -0.024086   0.337587
     6  H   -0.008861   0.000457  -0.000044   0.000457  -0.008861
     7  H    0.344858  -0.000034  -0.000054  -0.000018   0.000368
     8  H   -0.000034   0.385606  -0.001513  -0.000091  -0.000018
     9  H   -0.000054  -0.001513   0.407773  -0.001513  -0.000054
    10  H   -0.000018  -0.000091  -0.001513   0.385606  -0.000034
    11  H    0.000368  -0.000018  -0.000054  -0.000034   0.344858
          Atomic-Atomic Spin Densities.
               1          2          3          4          5          6
     1  C    0.482532  -0.040017  -0.023695  -0.008955   0.028858  -0.003583
     2  C   -0.040017  -0.225130   0.028535  -0.000289  -0.008955   0.000276
     3  C   -0.023695   0.028535   0.693182   0.028535  -0.023695   0.000209
     4  C   -0.008955  -0.000289   0.028535  -0.225130  -0.040017   0.000276
     5  C    0.028858  -0.008955  -0.023695  -0.040017   0.482532  -0.003583
     6  H   -0.003583   0.000276   0.000209   0.000276  -0.003583  -0.014266
     7  H   -0.002562  -0.000466   0.000094  -0.000088   0.000249  -0.000254
     8  H   -0.000281   0.001775  -0.001017  -0.000119   0.000056   0.000020
     9  H   -0.000036  -0.000064  -0.000898  -0.000064  -0.000036  -0.000002
    10  H    0.000056  -0.000119  -0.001017   0.001775  -0.000281   0.000020
    11  H    0.000249  -0.000088   0.000094  -0.000466  -0.002562  -0.000254
               7          8          9         10         11
     1  C   -0.002562  -0.000281  -0.000036   0.000056   0.000249
     2  C   -0.000466   0.001775  -0.000064  -0.000119  -0.000088
     3  C    0.000094  -0.001017  -0.000898  -0.001017   0.000094
     4  C   -0.000088  -0.000119  -0.000064   0.001775  -0.000466
     5  C    0.000249   0.000056  -0.000036  -0.000281  -0.002562
     6  H   -0.000254   0.000020  -0.000002   0.000020  -0.000254
     7  H   -0.017018   0.000057   0.000004  -0.000000  -0.000065
     8  H    0.000057   0.005833   0.000020   0.000000  -0.000000
     9  H    0.000004   0.000020  -0.026765   0.000020   0.000004
    10  H   -0.000000   0.000000   0.000020   0.005833   0.000057
    11  H   -0.000065  -0.000000   0.000004   0.000057  -0.017018
 Mulliken charges and spin densities:
               1          2
     1  C   -0.329703   0.432565
     2  C   -0.084023  -0.244543
     3  C   -0.050896   0.700326
     4  C   -0.084023  -0.244543
     5  C   -0.329703   0.432565
     6  H    0.364799  -0.021140
     7  H    0.334920  -0.020050
     8  H    0.284818   0.006344
     9  H    0.274076  -0.027819
    10  H    0.284818   0.006344
    11  H    0.334920  -0.020050
 Sum of Mulliken charges =   1.00000   1.00000
 Mulliken charges and spin densities with hydrogens summed into heavy atoms:
               1          2
     1  C    0.370015   0.391376
     2  C    0.200794  -0.238199
     3  C    0.223180   0.672507
     4  C    0.200794  -0.238199
     5  C    0.005217   0.412515
 Electronic spatial extent (au):  <R**2>=            321.3806
 Charge=              1.0000 electrons
 Dipole moment (field-independent basis, Debye):
    X=             -0.0000    Y=              0.0000    Z=             -2.0004  Tot=              2.0004
 Quadrupole moment (field-independent basis, Debye-Ang):
   XX=            -31.4703   YY=            -17.4500   ZZ=            -13.2997
   XY=              0.0000   XZ=              0.0000   YZ=              0.0000
 Traceless Quadrupole moment (field-independent basis, Debye-Ang):
   XX=            -10.7303   YY=              3.2900   ZZ=              7.4403
   XY=              0.0000   XZ=              0.0000   YZ=              0.0000
 Octapole moment (field-independent basis, Debye-Ang**2):
  XXX=              0.0000  YYY=             -0.0000  ZZZ=             -7.4075  XYY=             -0.0000
  XXY=             -0.0000  XXZ=              0.7051  XZZ=              0.0000  YZZ=             -0.0000
  YYZ=             -2.8594  XYZ=             -0.0000
 Hexadecapole moment (field-independent basis, Debye-Ang**3):
 XXXX=            -31.5576 YYYY=           -147.3940 ZZZZ=           -126.9555 XXXY=             -0.0000
 XXXZ=             -0.0000 YYYX=             -0.0000 YYYZ=              0.0000 ZZZX=              0.0000
 ZZZY=             -0.0000 XXYY=            -42.9893 XXZZ=            -39.1657 YYZZ=            -42.8941
 XXYZ=              0.0000 YYXZ=             -0.0000 ZZXY=             -0.0000
 N-N= 1.554439185285D+02 E-N=-7.506510362924D+02  KE= 1.925267282347D+02
 Symmetry A1   KE= 1.112962882236D+02
 Symmetry A2   KE= 2.505966149196D+00
 Symmetry B1   KE= 3.221014011116D+00
 Symmetry B2   KE= 7.550345985080D+01
 Symmetry A1   SP=-2.028834075523D-14
 Symmetry A2   SP=-1.153233144932D-15
 Symmetry B1   SP= 1.000000000000D+00
 Symmetry B2   SP=-1.715960860494D-14
                          Isotropic Fermi Contact Couplings
        Atom                 a.u.       MegaHertz       Gauss      10(-4) cm-1
     1  C(13)              0.06299      70.81372      25.26810      23.62091
     2  C(13)             -0.04267     -47.96974     -17.11680     -16.00098
     3  C(13)              0.09582     107.72230      38.43799      35.93229
     4  C(13)             -0.04267     -47.96974     -17.11680     -16.00098
     5  C(13)              0.06299      70.81372      25.26810      23.62091
     6  H(1)              -0.00775     -34.63769     -12.35959     -11.55389
     7  H(1)              -0.00817     -36.51667     -13.03006     -12.18065
     8  H(1)               0.00238      10.62988       3.79301       3.54575
     9  H(1)              -0.01184     -52.90449     -18.87764     -17.64704
    10  H(1)               0.00238      10.62988       3.79301       3.54575
    11  H(1)              -0.00817     -36.51667     -13.03006     -12.18065
 --------------------------------------------------------
       Center         ----  Spin Dipole Couplings  ----
                      3XX-RR        3YY-RR        3ZZ-RR
 --------------------------------------------------------
     1   Atom        0.442692     -0.215400     -0.227292
     2   Atom       -0.158716      0.077599      0.081117
     3   Atom        0.670710     -0.342642     -0.328067
     4   Atom       -0.158716      0.077599      0.081117
     5   Atom        0.442692     -0.215400     -0.227292
     6   Atom       -0.006314      0.007777     -0.001463
     7   Atom       -0.005845      0.005524      0.000321
     8   Atom       -0.006478      0.001114      0.005364
     9   Atom       -0.007832     -0.043947      0.051779
    10   Atom       -0.006478      0.001114      0.005364
    11   Atom       -0.005845      0.005524      0.000321
 --------------------------------------------------------
                        XY            XZ            YZ
 --------------------------------------------------------
     1   Atom       -0.000000     -0.000000     -0.007922
     2   Atom       -0.000000      0.000000     -0.006585
     3   Atom       -0.000000     -0.000000      0.000000
     4   Atom       -0.000000     -0.000000      0.006585
     5   Atom        0.000000      0.000000      0.007922
     6   Atom       -0.000000      0.000000      0.000000
     7   Atom        0.000000      0.000000     -0.032642
     8   Atom       -0.000000      0.000000     -0.005042
     9   Atom       -0.000000     -0.000000      0.000000
    10   Atom        0.000000     -0.000000      0.005042
    11   Atom       -0.000000     -0.000000      0.032642
 --------------------------------------------------------


 ---------------------------------------------------------------------------------
              Anisotropic Spin Dipole Couplings in Principal Axis System
 ---------------------------------------------------------------------------------

       Atom             a.u.   MegaHertz   Gauss  10(-4) cm-1        Axes

              Baa    -0.2313   -31.032   -11.073   -10.351  0.0000  0.4471  0.8945
     1 C(13)  Bbb    -0.2114   -28.373   -10.124    -9.464  0.0000  0.8945 -0.4471
              Bcc     0.4427    59.405    21.197    19.815  1.0000 -0.0000  0.0000
 
              Baa    -0.1587   -21.298    -7.600    -7.104  1.0000  0.0000  0.0000
     2 C(13)  Bbb     0.0725     9.734     3.473     3.247 -0.0000  0.7931  0.6091
              Bcc     0.0862    11.564     4.126     3.857  0.0000 -0.6091  0.7931
 
              Baa    -0.3426   -45.979   -16.407   -15.337  0.0000  1.0000  0.0000
     3 C(13)  Bbb    -0.3281   -44.024   -15.709   -14.685  0.0000  0.0000  1.0000
              Bcc     0.6707    90.003    32.115    30.022  1.0000  0.0000  0.0000
 
              Baa    -0.1587   -21.298    -7.600    -7.104  1.0000  0.0000  0.0000
     4 C(13)  Bbb     0.0725     9.734     3.473     3.247 -0.0000  0.7931 -0.6091
              Bcc     0.0862    11.564     4.126     3.857 -0.0000  0.6091  0.7931
 
              Baa    -0.2313   -31.032   -11.073   -10.351 -0.0000 -0.4471  0.8945
     5 C(13)  Bbb    -0.2114   -28.373   -10.124    -9.464  0.0000  0.8945  0.4471
              Bcc     0.4427    59.405    21.197    19.815  1.0000 -0.0000  0.0000
 
              Baa    -0.0063    -3.369    -1.202    -1.124  1.0000 -0.0000 -0.0000
     6 H(1)   Bbb    -0.0015    -0.781    -0.279    -0.260  0.0000 -0.0000  1.0000
              Bcc     0.0078     4.150     1.481     1.384 -0.0000  1.0000 -0.0000
 
              Baa    -0.0298   -15.912    -5.678    -5.308 -0.0000  0.6784  0.7347
     7 H(1)   Bbb    -0.0058    -3.119    -1.113    -1.040  1.0000  0.0000  0.0000
              Bcc     0.0357    19.031     6.791     6.348 -0.0000  0.7347 -0.6784
 
              Baa    -0.0065    -3.457    -1.233    -1.153  1.0000  0.0000  0.0000
     8 H(1)   Bbb    -0.0022    -1.191    -0.425    -0.397 -0.0000  0.8332  0.5530
              Bcc     0.0087     4.648     1.658     1.550  0.0000 -0.5530  0.8332
 
              Baa    -0.0439   -23.448    -8.367    -7.821 -0.0000  1.0000 -0.0000
     9 H(1)   Bbb    -0.0078    -4.179    -1.491    -1.394  1.0000  0.0000  0.0000
              Bcc     0.0518    27.627     9.858     9.215  0.0000  0.0000  1.0000
 
              Baa    -0.0065    -3.457    -1.233    -1.153  1.0000 -0.0000  0.0000
    10 H(1)   Bbb    -0.0022    -1.191    -0.425    -0.397  0.0000  0.8332 -0.5530
              Bcc     0.0087     4.648     1.658     1.550  0.0000  0.5530  0.8332
 
              Baa    -0.0298   -15.912    -5.678    -5.308  0.0000 -0.6784  0.7347
    11 H(1)   Bbb    -0.0058    -3.119    -1.113    -1.040  1.0000  0.0000  0.0000
              Bcc     0.0357    19.031     6.791     6.348 -0.0000  0.7347  0.6784
 

 ---------------------------------------------------------------------------------

 No NMR shielding tensors so no spin-rotation constants.
 Leave Link  601 at Tue Feb 25 12:23:25 2020, MaxMem=  6710886400 cpu:               5.0 elap:               0.3
 (Enter /opt/ohpc/pub/libs/gaussian/g16-A.03/haswell/g16/l9999.exe)

 Test job not archived.
 1\1\GINC-HASWELL008\SP\ULC-wHPBE\6-31G\C5H6(1+,2)\SMGO234\25-Feb-2020\
 0\\#P uLC-wHPBE/6-31G iop(3/107=0317800000, 3/108=0317800000) scf=(con
 ver=6,fermi,ndamp=35,noincfock,novaracc,vshift=500,xqc)\\H6 C5\\1,2\C,
 0,0.,0.895213,-0.933453\C,0,0.,1.131613,0.424372\C,0,0.,0.,1.240919\C,
 0,0.,-1.131613,0.424372\C,0,0.,-0.895213,-0.933453\H,0,0.,0.,-1.720797
 \H,0,0.,1.620085,-1.742217\H,0,0.,2.160007,0.773055\H,0,0.,0.,2.322589
 \H,0,0.,-2.160007,0.773055\H,0,0.,-1.620085,-1.742217\\Version=ES64L-G
 16RevA.03\State=2-B1\HF=-193.4685746\S2=0.797423\S2-1=0.\S2A=0.7513\RM
 SD=5.990e-07\Dipole=0.,0.,-0.7870074\Quadrupole=-7.9777292,2.4460235,5
 .5317057,0.,0.,0.\PG=C02V [C2(H1C1H1),SGV(C4H4)]\\@


 NEVER TEACH A PIG TO SING.
 IT WASTES YOUR TIME AND ANNOYS THE PIG.
     -- SEEN ON A GREETING CARD
 Job cpu time:       0 days  0 hours  0 minutes 55.1 seconds.
 Elapsed time:       0 days  0 hours  0 minutes  3.8 seconds.
 File lengths (MBytes):  RWF=    272 Int=      0 D2E=      0 Chk=     32 Scr=     32
 Normal termination of Gaussian 16 at Tue Feb 25 12:23:25 2020.
