 Entering Gaussian System, Link 0=g16
 Input=1b_tune_c9.gjf
 Output=1b_tune_c9.log
 Initial command:
 /opt/ohpc/pub/libs/gaussian/g16-A.03/haswell/g16/l1.exe "/scratch/smgo234/Ocelot/test/1b/tuning_1b_ocycle2/Gau-45993.inp" -scrdir="/scratch/smgo234/Ocelot/test/1b/tuning_1b_ocycle2/"
 Entering Link 1 = /opt/ohpc/pub/libs/gaussian/g16-A.03/haswell/g16/l1.exe PID=     45994.
  
 Copyright (c) 1988,1990,1992,1993,1995,1998,2003,2009,2016,
            Gaussian, Inc.  All Rights Reserved.
  
 This is part of the Gaussian(R) 16 program.  It is based on
 the Gaussian(R) 09 system (copyright 2009, Gaussian, Inc.),
 the Gaussian(R) 03 system (copyright 2003, Gaussian, Inc.),
 the Gaussian(R) 98 system (copyright 1998, Gaussian, Inc.),
 the Gaussian(R) 94 system (copyright 1995, Gaussian, Inc.),
 the Gaussian 92(TM) system (copyright 1992, Gaussian, Inc.),
 the Gaussian 90(TM) system (copyright 1990, Gaussian, Inc.),
 the Gaussian 88(TM) system (copyright 1988, Gaussian, Inc.),
 the Gaussian 86(TM) system (copyright 1986, Carnegie Mellon
 University), and the Gaussian 82(TM) system (copyright 1983,
 Carnegie Mellon University). Gaussian is a federally registered
 trademark of Gaussian, Inc.
  
 This software contains proprietary and confidential information,
 including trade secrets, belonging to Gaussian, Inc.
  
 This software is provided under written license and may be
 used, copied, transmitted, or stored only in accord with that
 written license.
  
 The following legend is applicable only to US Government
 contracts under FAR:
  
                    RESTRICTED RIGHTS LEGEND
  
 Use, reproduction and disclosure by the US Government is
 subject to restrictions as set forth in subparagraphs (a)
 and (c) of the Commercial Computer Software - Restricted
 Rights clause in FAR 52.227-19.
  
 Gaussian, Inc.
 340 Quinnipiac St., Bldg. 40, Wallingford CT 06492
  
  
 ---------------------------------------------------------------
 Warning -- This program may not be used in any manner that
 competes with the business of Gaussian, Inc. or will provide
 assistance to any competitor of Gaussian, Inc.  The licensee
 of this program is prohibited from giving any competitor of
 Gaussian, Inc. access to this program.  By using this program,
 the user acknowledges that Gaussian, Inc. is engaged in the
 business of creating and licensing software in the field of
 computational chemistry and represents and warrants to the
 licensee that it is not a competitor of Gaussian, Inc. and that
 it will not use this program in any manner prohibited above.
 ---------------------------------------------------------------
  

 Cite this work as:
 Gaussian 16, Revision A.03,
 M. J. Frisch, G. W. Trucks, H. B. Schlegel, G. E. Scuseria, 
 M. A. Robb, J. R. Cheeseman, G. Scalmani, V. Barone, 
 G. A. Petersson, H. Nakatsuji, X. Li, M. Caricato, A. V. Marenich, 
 J. Bloino, B. G. Janesko, R. Gomperts, B. Mennucci, H. P. Hratchian, 
 J. V. Ortiz, A. F. Izmaylov, J. L. Sonnenberg, D. Williams-Young, 
 F. Ding, F. Lipparini, F. Egidi, J. Goings, B. Peng, A. Petrone, 
 T. Henderson, D. Ranasinghe, V. G. Zakrzewski, J. Gao, N. Rega, 
 G. Zheng, W. Liang, M. Hada, M. Ehara, K. Toyota, R. Fukuda, 
 J. Hasegawa, M. Ishida, T. Nakajima, Y. Honda, O. Kitao, H. Nakai, 
 T. Vreven, K. Throssell, J. A. Montgomery, Jr., J. E. Peralta, 
 F. Ogliaro, M. J. Bearpark, J. J. Heyd, E. N. Brothers, K. N. Kudin, 
 V. N. Staroverov, T. A. Keith, R. Kobayashi, J. Normand, 
 K. Raghavachari, A. P. Rendell, J. C. Burant, S. S. Iyengar, 
 J. Tomasi, M. Cossi, J. M. Millam, M. Klene, C. Adamo, R. Cammi, 
 J. W. Ochterski, R. L. Martin, K. Morokuma, O. Farkas, 
 J. B. Foresman, and D. J. Fox, Gaussian, Inc., Wallingford CT, 2016.
 
 ******************************************
 Gaussian 16:  ES64L-G16RevA.03 25-Dec-2016
                25-Feb-2020 
 ******************************************
 %mem=50GB
 %nproc=16
 Will use up to   16 processors via shared memory.
 ----------------------------------------------------------------------
 #P uLC-wHPBE/6-31G iop(3/107=0315300000, 3/108=0315300000) scf=(conver
 =6,fermi,ndamp=35,noincfock,novaracc,vshift=500,xqc)
 ----------------------------------------------------------------------
 1/38=1,172=1/1;
 2/12=2,17=6,18=5,40=1/2;
 3/5=1,6=6,11=2,25=1,30=1,74=-71,107=315300000,108=315300000,116=2/1,2,3;
 4//1;
 5/5=100002,6=6,8=3,10=500,13=1,18=-1,22=13,38=1,93=35/2,8;
 6/7=2,8=2,9=2,10=2,28=1/1;
 99/5=1,9=1/99;
 Leave Link    1 at Tue Feb 25 12:23:57 2020, MaxMem=  6710886400 cpu:               9.3 elap:               0.6
 (Enter /opt/ohpc/pub/libs/gaussian/g16-A.03/haswell/g16/l101.exe)
 -----
 H6 C5
 -----
 Symbolic Z-matrix:
 Charge =  1 Multiplicity = 2
 C                     0.        0.89521  -0.93345 
 C                     0.        1.13161   0.42437 
 C                     0.        0.        1.24092 
 C                     0.       -1.13161   0.42437 
 C                     0.       -0.89521  -0.93345 
 H                     0.        0.       -1.7208 
 H                     0.        1.62009  -1.74222 
 H                     0.        2.16001   0.77306 
 H                     0.        0.        2.32259 
 H                     0.       -2.16001   0.77306 
 H                     0.       -1.62009  -1.74222 
 
 ITRead=  0  0  0  0  0  0  0  0  0  0  0
 MicOpt= -1 -1 -1 -1 -1 -1 -1 -1 -1 -1 -1
 NAtoms=     11 NQM=       11 NQMF=       0 NMMI=      0 NMMIF=      0
                NMic=       0 NMicF=      0.
                    Isotopes and Nuclear Properties:
 (Nuclear quadrupole moments (NQMom) in fm**2, nuclear magnetic moments (NMagM)
  in nuclear magnetons)

  Atom         1           2           3           4           5           6           7           8           9          10
 IAtWgt=          12          12          12          12          12           1           1           1           1           1
 AtmWgt=  12.0000000  12.0000000  12.0000000  12.0000000  12.0000000   1.0078250   1.0078250   1.0078250   1.0078250   1.0078250
 NucSpn=           0           0           0           0           0           1           1           1           1           1
 AtZEff=  -0.0000000  -0.0000000  -0.0000000  -0.0000000  -0.0000000  -0.0000000  -0.0000000  -0.0000000  -0.0000000  -0.0000000
 NQMom=    0.0000000   0.0000000   0.0000000   0.0000000   0.0000000   0.0000000   0.0000000   0.0000000   0.0000000   0.0000000
 NMagM=    0.0000000   0.0000000   0.0000000   0.0000000   0.0000000   2.7928460   2.7928460   2.7928460   2.7928460   2.7928460
 AtZNuc=   6.0000000   6.0000000   6.0000000   6.0000000   6.0000000   1.0000000   1.0000000   1.0000000   1.0000000   1.0000000

  Atom        11
 IAtWgt=           1
 AtmWgt=   1.0078250
 NucSpn=           1
 AtZEff=  -0.0000000
 NQMom=    0.0000000
 NMagM=    2.7928460
 AtZNuc=   1.0000000
 Leave Link  101 at Tue Feb 25 12:23:57 2020, MaxMem=  6710886400 cpu:               2.4 elap:               0.2
 (Enter /opt/ohpc/pub/libs/gaussian/g16-A.03/haswell/g16/l202.exe)
                          Input orientation:                          
 ---------------------------------------------------------------------
 Center     Atomic      Atomic             Coordinates (Angstroms)
 Number     Number       Type             X           Y           Z
 ---------------------------------------------------------------------
      1          6           0        0.000000    0.895213   -0.933453
      2          6           0        0.000000    1.131613    0.424372
      3          6           0        0.000000    0.000000    1.240919
      4          6           0        0.000000   -1.131613    0.424372
      5          6           0        0.000000   -0.895213   -0.933453
      6          1           0        0.000000    0.000000   -1.720797
      7          1           0        0.000000    1.620085   -1.742217
      8          1           0        0.000000    2.160007    0.773055
      9          1           0        0.000000    0.000000    2.322589
     10          1           0        0.000000   -2.160007    0.773055
     11          1           0        0.000000   -1.620085   -1.742217
 ---------------------------------------------------------------------
                    Distance matrix (angstroms):
                    1          2          3          4          5
     1  C    0.000000
     2  C    1.378250   0.000000
     3  C    2.351446   1.395456   0.000000
     4  C    2.439613   2.263226   1.395456   0.000000
     5  C    1.790426   2.439613   2.351446   1.378250   0.000000
     6  H    1.192190   2.425345   2.961716   2.425345   1.192190
     7  H    1.086066   2.220971   3.394669   3.502278   2.642125
     8  H    2.124117   1.085898   2.210097   3.310037   3.499506
     9  H    3.376865   2.209927   1.081670   2.209927   3.376865
    10  H    3.499506   3.310037   2.210097   1.085898   2.124117
    11  H    2.642125   3.502278   3.394669   2.220971   1.086066
                    6          7          8          9         10
     6  H    0.000000
     7  H    1.620227   0.000000
     8  H    3.299231   2.572569   0.000000
     9  H    4.043386   4.375765   2.658324   0.000000
    10  H    3.299231   4.540450   4.320014   2.658324   0.000000
    11  H    1.620227   3.240170   4.540450   4.375765   2.572569
                   11
    11  H    0.000000
 Stoichiometry    C5H6(1+,2)
 Framework group  C2V[C2(HCH),SGV(C4H4)]
 Deg. of freedom    10
 Full point group                 C2V     NOp   4
 Largest Abelian subgroup         C2V     NOp   4
 Largest concise Abelian subgroup C2      NOp   2
                         Standard orientation:                         
 ---------------------------------------------------------------------
 Center     Atomic      Atomic             Coordinates (Angstroms)
 Number     Number       Type             X           Y           Z
 ---------------------------------------------------------------------
      1          6           0        0.000000    0.895213   -0.933453
      2          6           0        0.000000    1.131613    0.424372
      3          6           0        0.000000   -0.000000    1.240919
      4          6           0       -0.000000   -1.131613    0.424372
      5          6           0       -0.000000   -0.895213   -0.933453
      6          1           0       -0.000000    0.000000   -1.720797
      7          1           0        0.000000    1.620085   -1.742217
      8          1           0        0.000000    2.160007    0.773055
      9          1           0        0.000000   -0.000000    2.322589
     10          1           0       -0.000000   -2.160007    0.773055
     11          1           0       -0.000000   -1.620085   -1.742217
 ---------------------------------------------------------------------
 Rotational constants (GHZ):           8.5037938           7.8157507           4.0726340
 Leave Link  202 at Tue Feb 25 12:23:57 2020, MaxMem=  6710886400 cpu:               0.2 elap:               0.0
 (Enter /opt/ohpc/pub/libs/gaussian/g16-A.03/haswell/g16/l301.exe)
 Standard basis: 6-31G (6D, 7F)
 Ernie: Thresh=  0.10000D-02 Tol=  0.10000D-05 Strict=F.
 There are    27 symmetry adapted cartesian basis functions of A1  symmetry.
 There are     4 symmetry adapted cartesian basis functions of A2  symmetry.
 There are     6 symmetry adapted cartesian basis functions of B1  symmetry.
 There are    20 symmetry adapted cartesian basis functions of B2  symmetry.
 There are    27 symmetry adapted basis functions of A1  symmetry.
 There are     4 symmetry adapted basis functions of A2  symmetry.
 There are     6 symmetry adapted basis functions of B1  symmetry.
 There are    20 symmetry adapted basis functions of B2  symmetry.
    57 basis functions,   134 primitive gaussians,    57 cartesian basis functions
    18 alpha electrons       17 beta electrons
       nuclear repulsion energy       155.4439185285 Hartrees.
 IExCor=33909 DFT=T Ex+Corr=LC-wHPBE ExCW=0 ScaHFX=  1.000000
 ScaDFX=  1.000000  1.000000  1.000000  1.000000 ScalE2=  1.000000  1.000000
 IRadAn=      5 IRanWt=     -1 IRanGd=            0 ICorTp=0 IEmpDi=  4
 HFx  wShort=  0.000000 wLong=  0.315300 cFull=  0.000000 cShort=  0.000000 cLong=  1.000000
 DFx  wShort=  0.000000 wLong=  0.315300 cFull=  0.000000 cShort=  1.000000 cLong=  0.000000
 NAtoms=   11 NActive=   11 NUniq=    7 SFac= 2.47D+00 NAtFMM=   60 NAOKFM=F Big=F
 Integral buffers will be    131072 words long.
 Raffenetti 2 integral format.
 Two-electron integral symmetry is turned on.
 Leave Link  301 at Tue Feb 25 12:23:57 2020, MaxMem=  6710886400 cpu:               0.9 elap:               0.1
 (Enter /opt/ohpc/pub/libs/gaussian/g16-A.03/haswell/g16/l302.exe)
 NPDir=0 NMtPBC=     1 NCelOv=     1 NCel=       1 NClECP=     1 NCelD=      1
         NCelK=      1 NCelE2=     1 NClLst=     1 CellRange=     0.0.
 One-electron integrals computed using PRISM.
 One-electron integral symmetry used in STVInt
 NBasis=    57 RedAO= T EigKep=  1.90D-03  NBF=    27     4     6    20
 NBsUse=    57 1.00D-06 EigRej= -1.00D+00 NBFU=    27     4     6    20
 Precomputing XC quadrature grid using
 IXCGrd= 4 IRadAn=           5 IRanWt=          -1 IRanGd=           0 AccXCQ= 0.00D+00.
 Generated NRdTot=       0 NPtTot=           0 NUsed=           0 NTot=          32
 NSgBfM=    57    57    57    57    57 MxSgAt=    11 MxSgA2=    11.
 Leave Link  302 at Tue Feb 25 12:23:58 2020, MaxMem=  6710886400 cpu:               2.8 elap:               0.2
 (Enter /opt/ohpc/pub/libs/gaussian/g16-A.03/haswell/g16/l303.exe)
 DipDrv:  MaxL=1.
 Leave Link  303 at Tue Feb 25 12:23:58 2020, MaxMem=  6710886400 cpu:               0.4 elap:               0.0
 (Enter /opt/ohpc/pub/libs/gaussian/g16-A.03/haswell/g16/l401.exe)
 ExpMin= 1.61D-01 ExpMax= 3.05D+03 ExpMxC= 4.57D+02 IAcc=3 IRadAn=         5 AccDes= 0.00D+00
 Harris functional with IExCor=33909 and IRadAn=       5 diagonalized for initial guess.
 HarFok:  IExCor=33909 AccDes= 0.00D+00 IRadAn=         5 IDoV= 1 UseB2=F ITyADJ=14
 ICtDFT=  3500011 ScaDFX=  1.000000  1.000000  1.000000  1.000000
 FoFCou: FMM=F IPFlag=           0 FMFlag=      100000 FMFlg1=           0
         NFxFlg=           0 DoJE=T BraDBF=F KetDBF=T FulRan=T
         wScrn=  0.000000 ICntrl=       500 IOpCl=  0 I1Cent=   200000004 NGrid=           0
         NMat0=    1 NMatS0=      1 NMatT0=    0 NMatD0=    1 NMtDS0=    0 NMtDT0=    0
 Petite list used in FoFCou.
 Harris En= -187.881162217267    
 JPrj=0 DoOrth=F DoCkMO=F.
 Initial guess orbital symmetries:
 Alpha Orbitals:
       Occupied  (A1) (B2) (A1) (B2) (A1) (A1) (B2) (A1) (A1) (B2)
                 (A1) (B2) (A1) (B2) (A1) (B1) (A2) (B1)
       Virtual   (A2) (B2) (B1) (A1) (A1) (B2) (A1) (B2) (A1) (B2)
                 (A1) (A1) (B2) (B2) (B1) (A1) (A2) (B1) (B2) (A1)
                 (A1) (A2) (B1) (B2) (B2) (A1) (B2) (A1) (A1) (B2)
                 (A1) (A1) (A1) (B2) (A1) (B2) (A1) (A1) (B2)
 Beta  Orbitals:
       Occupied  (A1) (B2) (A1) (B2) (A1) (A1) (B2) (A1) (A1) (B2)
                 (A1) (B2) (A1) (B2) (A1) (B1) (A2)
       Virtual   (B1) (A2) (B2) (B1) (A1) (A1) (B2) (A1) (B2) (A1)
                 (B2) (A1) (A1) (B2) (B2) (B1) (A1) (A2) (B1) (B2)
                 (A1) (A1) (A2) (B1) (B2) (B2) (A1) (B2) (A1) (A1)
                 (B2) (A1) (A1) (A1) (B2) (A1) (B2) (A1) (A1) (B2)
 The electronic state of the initial guess is 2-B1.
 Initial guess <Sx>= 0.0000 <Sy>= 0.0000 <Sz>= 0.5000 <S**2>= 0.7500 S= 0.5000
 Leave Link  401 at Tue Feb 25 12:23:58 2020, MaxMem=  6710886400 cpu:               4.3 elap:               0.3
 (Enter /opt/ohpc/pub/libs/gaussian/g16-A.03/haswell/g16/l502.exe)
 Keep R1 and R2 ints in memory in symmetry-blocked form, NReq=16815681.
 FoFCou: FMM=F IPFlag=           0 FMFlag=           0 FMFlg1=           0
         NFxFlg=           0 DoJE=F BraDBF=F KetDBF=F FulRan=T
         wScrn=  0.000000 ICntrl=       600 IOpCl=  0 I1Cent=           0 NGrid=           0
         NMat0=    1 NMatS0=   1653 NMatT0=    0 NMatD0=    1 NMtDS0=    0 NMtDT0=    0
 Petite list used in FoFCou.
 UHF open shell SCF:
 Using DIIS extrapolation, IDIIS=    10.
 NGot=  6710886400 LenX=  6710059561 LenY=  6710055871
 Requested convergence on RMS density matrix=1.00D-06 within  32 cycles.
 Requested convergence on MAX density matrix=1.00D-04.
 Requested convergence on             energy=1.00D-04.
 Virtual orbitals will be shifted by   0.500 hartree.
 No special actions if energy rises.
 Dynamic level shift is on during FON iterations.

 Cycle   1  Pass 1  IDiag  1:
 E= -193.407577128790    
 DIIS: error= 4.75D-02 at cycle   1 NSaved=   1.
 NSaved= 1 IEnMin= 1 EnMin= -193.407577128790     IErMin= 1 ErrMin= 4.75D-02
 ErrMax= 4.75D-02  0.00D+00 EMaxC= 1.00D+00 BMatC= 1.82D-01 BMatP= 1.82D-01
 IDIUse=1 WtCom= 1.00D+00 WtEn= 0.00D+00
 Coeff-Com:  0.100D+01
 Coeff:      0.100D+01
 Gap=     0.357 Goal=   None    Shift=    0.500
 T= 1772. Gap= 0.827 NK=0 IS=   19 IE=   57 IFin=   18
          NO(<0.9)=   0  NV(>0.1)=   0     18.00e < EF      0.00e >EF  Err=0.0D+00
 Gap=     0.245 Goal=   None    Shift=    0.500
 T= 1772. Gap= 0.748 NK=0 IS=   18 IE=   57 IFin=   17
          NO(<0.9)=   0  NV(>0.1)=   0     17.00e < EF      0.00e >EF  Err=0.0D+00
 GapD=    0.245 DampG=1.000 DampE=0.500 DampFc=0.5000 IDamp=-1.
 Damping current iteration by 5.00D-01
 RMSDP=6.62D-03 MaxDP=5.00D-02              OVMax= 9.88D-02

 Cycle   2  Pass 1  IDiag  1:
 E= -193.442291886522     Delta-E=       -0.034714757731 Rises=F Damp=T
 DIIS: error= 2.28D-02 at cycle   2 NSaved=   2.
 NSaved= 2 IEnMin= 2 EnMin= -193.442291886522     IErMin= 2 ErrMin= 2.28D-02
 ErrMax= 2.28D-02  0.00D+00 EMaxC= 1.00D+00 BMatC= 3.17D-02 BMatP= 1.82D-01
 IDIUse=1 WtCom= 1.00D+00 WtEn= 0.00D+00
 Coeff-Com: -0.547D+00 0.155D+01
 Coeff:     -0.547D+00 0.155D+01
 Gap=     0.427 Goal=   None    Shift=    0.500
 T= 1658. Gap= 0.912 NK=4 IS=   19 IE=   23 IFin=   18
          NO(<0.9)=   0  NV(>0.1)=   0     18.00e < EF      0.00e >EF  Err=0.0D+00
 Gap=     0.273 Goal=   None    Shift=    0.500
 T= 1658. Gap= 0.771 NK=4 IS=   18 IE=   23 IFin=   17
          NO(<0.9)=   0  NV(>0.1)=   0     17.00e < EF      0.00e >EF  Err=0.0D+00
 GapD=    0.273 DampG=1.000 DampE=0.500 DampFc=0.5000 IDamp=-1.
 Damping current iteration by 5.00D-01
 RMSDP=4.01D-03 MaxDP=3.12D-02 DE=-3.47D-02 OVMax= 1.56D-02

 Cycle   3  Pass 1  IDiag  1:
 E= -193.454650029911     Delta-E=       -0.012358143390 Rises=F Damp=T
 DIIS: error= 1.30D-02 at cycle   3 NSaved=   3.
 NSaved= 3 IEnMin= 3 EnMin= -193.454650029911     IErMin= 3 ErrMin= 1.30D-02
 ErrMax= 1.30D-02  0.00D+00 EMaxC= 1.00D+00 BMatC= 7.40D-03 BMatP= 3.17D-02
 IDIUse=1 WtCom= 1.00D+00 WtEn= 0.00D+00
 Coeff-Com:  0.337D+00-0.187D+01 0.253D+01
 Coeff:      0.337D+00-0.187D+01 0.253D+01
 Gap=     0.419 Goal=   None    Shift=    0.500
 T= 1449. Gap= 0.919 NK=0 IS=   19 IE=   57 IFin=   18
          NO(<0.9)=   0  NV(>0.1)=   0     18.00e < EF      0.00e >EF  Err=0.0D+00
 Gap=     0.276 Goal=   None    Shift=    0.500
 T= 1449. Gap= 0.777 NK=0 IS=   18 IE=   57 IFin=   17
          NO(<0.9)=   0  NV(>0.1)=   0     17.00e < EF      0.00e >EF  Err=0.0D+00
 GapD=    0.276 DampG=1.000 DampE=0.500 DampFc=0.5000 IDamp=-1.
 Damping current iteration by 5.00D-01
 RMSDP=2.20D-03 MaxDP=1.65D-02 DE=-1.24D-02 OVMax= 1.45D-02

 Cycle   4  Pass 1  IDiag  1:
 E= -193.460492025650     Delta-E=       -0.005841995739 Rises=F Damp=T
 DIIS: error= 8.22D-03 at cycle   4 NSaved=   4.
 NSaved= 4 IEnMin= 4 EnMin= -193.460492025650     IErMin= 4 ErrMin= 8.22D-03
 ErrMax= 8.22D-03  0.00D+00 EMaxC= 1.00D+00 BMatC= 2.50D-03 BMatP= 7.40D-03
 IDIUse=1 WtCom= 1.00D+00 WtEn= 0.00D+00
 Coeff-Com:  0.324D-03 0.821D+00-0.367D+01 0.384D+01
 Coeff:      0.324D-03 0.821D+00-0.367D+01 0.384D+01
 Gap=     0.423 Goal=   None    Shift=    0.500
 T= 1067. Gap= 0.923 NK=0 IS=   19 IE=   57 IFin=   18
          NO(<0.9)=   0  NV(>0.1)=   0     18.00e < EF      0.00e >EF  Err=0.0D+00
 Gap=     0.281 Goal=   None    Shift=    0.500
 T= 1067. Gap= 0.781 NK=0 IS=   18 IE=   57 IFin=   17
          NO(<0.9)=   0  NV(>0.1)=   0     17.00e < EF      0.00e >EF  Err=0.0D+00
 GapD=    0.281 DampG=1.000 DampE=1.000 DampFc=1.0000 IDamp=-1.
 RMSDP=1.36D-03 MaxDP=1.36D-02 DE=-5.84D-03 OVMax= 1.39D-02

 Cycle   5  Pass 1  IDiag  1:
 E= -193.467218769701     Delta-E=       -0.006726744051 Rises=F Damp=F
 DIIS: error= 3.57D-03 at cycle   5 NSaved=   5.
 NSaved= 5 IEnMin= 5 EnMin= -193.467218769701     IErMin= 5 ErrMin= 3.57D-03
 ErrMax= 3.57D-03  0.00D+00 EMaxC= 1.00D+00 BMatC= 3.61D-04 BMatP= 2.50D-03
 IDIUse=1 WtCom= 1.00D+00 WtEn= 0.00D+00
 Coeff-Com: -0.171D+00 0.872D+00-0.721D+00-0.853D+00 0.187D+01
 Coeff:     -0.171D+00 0.872D+00-0.721D+00-0.853D+00 0.187D+01
 Gap=     0.424 Goal=   None    Shift=    0.500
 T=  721. Gap= 0.924 NK=0 IS=   19 IE=   57 IFin=   18
          NO(<0.9)=   0  NV(>0.1)=   0     18.00e < EF      0.00e >EF  Err=0.0D+00
 Gap=     0.284 Goal=   None    Shift=    0.500
 T=  721. Gap= 0.784 NK=0 IS=   18 IE=   57 IFin=   17
          NO(<0.9)=   0  NV(>0.1)=   0     17.00e < EF      0.00e >EF  Err=0.0D+00
 GapD=    0.284 DampG=1.000 DampE=1.000 DampFc=1.0000 IDamp=-1.
 RMSDP=3.88D-04 MaxDP=6.00D-03 DE=-6.73D-03 OVMax= 1.30D-02

 Cycle   6  Pass 1  IDiag  1:
 E= -193.467720407903     Delta-E=       -0.000501638202 Rises=F Damp=F
 DIIS: error= 2.73D-03 at cycle   6 NSaved=   6.
 NSaved= 6 IEnMin= 6 EnMin= -193.467720407903     IErMin= 6 ErrMin= 2.73D-03
 ErrMax= 2.73D-03  0.00D+00 EMaxC= 1.00D+00 BMatC= 1.60D-04 BMatP= 3.61D-04
 IDIUse=1 WtCom= 1.00D+00 WtEn= 0.00D+00
 Coeff-Com:  0.681D-02-0.308D+00 0.922D+00-0.667D+00-0.163D+01 0.267D+01
 Coeff:      0.681D-02-0.308D+00 0.922D+00-0.667D+00-0.163D+01 0.267D+01
 Gap=     0.425 Goal=   None    Shift=    0.500
 T=  402. Gap= 0.925 NK=0 IS=   19 IE=   57 IFin=   18
          NO(<0.9)=   0  NV(>0.1)=   0     18.00e < EF      0.00e >EF  Err=0.0D+00
 Gap=     0.285 Goal=   None    Shift=    0.500
 T=  402. Gap= 0.786 NK=0 IS=   18 IE=   57 IFin=   17
          NO(<0.9)=   0  NV(>0.1)=   0     17.00e < EF      0.00e >EF  Err=0.0D+00
 GapD=    0.285 DampG=1.000 DampE=1.000 DampFc=1.0000 IDamp=-1.
 RMSDP=3.02D-04 MaxDP=4.87D-03 DE=-5.02D-04 OVMax= 1.16D-02

 Cycle   7  Pass 1  IDiag  1:
 E= -193.467999020421     Delta-E=       -0.000278612519 Rises=F Damp=F
 DIIS: error= 1.93D-03 at cycle   7 NSaved=   7.
 NSaved= 7 IEnMin= 7 EnMin= -193.467999020421     IErMin= 7 ErrMin= 1.93D-03
 ErrMax= 1.93D-03  0.00D+00 EMaxC= 1.00D+00 BMatC= 6.81D-05 BMatP= 1.60D-04
 IDIUse=1 WtCom= 1.00D+00 WtEn= 0.00D+00
 Coeff-Com:  0.157D-01-0.677D-01-0.115D+00 0.385D+00-0.383D+00-0.106D+01
 Coeff-Com:  0.222D+01
 Coeff:      0.157D-01-0.677D-01-0.115D+00 0.385D+00-0.383D+00-0.106D+01
 Coeff:      0.222D+01
 Gap=     0.425 Goal=   None    Shift=    0.500
 T=   61. Gap= 0.925 NK=0 IS=   19 IE=   57 IFin=   18
          NO(<0.9)=   0  NV(>0.1)=   0     18.00e < EF      0.00e >EF  Err=0.0D+00
 Gap=     0.287 Goal=   None    Shift=    0.500
 T=   61. Gap= 0.787 NK=0 IS=   18 IE=   57 IFin=   17
          NO(<0.9)=   0  NV(>0.1)=   0     17.00e < EF      0.00e >EF  Err=0.0D+00
 GapD=    0.287 DampG=1.000 DampE=1.000 DampFc=1.0000 IDamp=-1.
 RMSDP=1.98D-04 MaxDP=2.82D-03 DE=-2.79D-04 OVMax= 8.26D-03

 Cycle   8  Pass 1  IDiag  1:
 E= -193.468117082691     Delta-E=       -0.000118062270 Rises=F Damp=F
 DIIS: error= 1.33D-03 at cycle   8 NSaved=   8.
 NSaved= 8 IEnMin= 8 EnMin= -193.468117082691     IErMin= 8 ErrMin= 1.33D-03
 ErrMax= 1.33D-03  0.00D+00 EMaxC= 1.00D+00 BMatC= 3.08D-05 BMatP= 6.81D-05
 IDIUse=1 WtCom= 1.00D+00 WtEn= 0.00D+00
 Coeff-Com: -0.109D-01 0.240D+00-0.736D+00 0.587D+00 0.101D+01-0.228D+01
 Coeff-Com: -0.226D-01 0.221D+01
 Coeff:     -0.109D-01 0.240D+00-0.736D+00 0.587D+00 0.101D+01-0.228D+01
 Coeff:     -0.226D-01 0.221D+01
 Gap=     0.425 Goal=   None    Shift=    0.500
 Gap=     0.287 Goal=   None    Shift=    0.500
 GapD=    0.287 DampG=1.000 DampE=1.000 DampFc=1.0000 IDamp=-1.
 RMSDP=1.50D-04 MaxDP=2.09D-03 DE=-1.18D-04 OVMax= 6.61D-03

 Cycle   9  Pass 1  IDiag  1:
 E= -193.468173228640     Delta-E=       -0.000056145949 Rises=F Damp=F
 DIIS: error= 8.67D-04 at cycle   9 NSaved=   9.
 NSaved= 9 IEnMin= 9 EnMin= -193.468173228640     IErMin= 9 ErrMin= 8.67D-04
 ErrMax= 8.67D-04  0.00D+00 EMaxC= 1.00D+00 BMatC= 1.23D-05 BMatP= 3.08D-05
 IDIUse=1 WtCom= 1.00D+00 WtEn= 0.00D+00
 Coeff-Com:  0.961D-03-0.137D+00 0.561D+00-0.581D+00-0.429D+00 0.184D+01
 Coeff-Com: -0.991D+00-0.311D+01 0.384D+01
 Coeff:      0.961D-03-0.137D+00 0.561D+00-0.581D+00-0.429D+00 0.184D+01
 Coeff:     -0.991D+00-0.311D+01 0.384D+01
 Gap=     0.425 Goal=   None    Shift=    0.500
 Gap=     0.287 Goal=   None    Shift=    0.500
 RMSDP=1.07D-04 MaxDP=1.45D-03 DE=-5.61D-05 OVMax= 5.11D-03

 Cycle  10  Pass 1  IDiag  1:
 E= -193.468197551235     Delta-E=       -0.000024322595 Rises=F Damp=F
 DIIS: error= 5.18D-04 at cycle  10 NSaved=  10.
 NSaved=10 IEnMin=10 EnMin= -193.468197551235     IErMin=10 ErrMin= 5.18D-04
 ErrMax= 5.18D-04  0.00D+00 EMaxC= 1.00D+00 BMatC= 4.17D-06 BMatP= 1.23D-05
 IDIUse=1 WtCom= 1.00D+00 WtEn= 0.00D+00
 Coeff-Com:  0.568D-03 0.357D-01-0.169D+00 0.192D+00 0.903D-01-0.539D+00
 Coeff-Com:  0.442D+00 0.831D+00-0.283D+01 0.295D+01
 Coeff:      0.568D-03 0.357D-01-0.169D+00 0.192D+00 0.903D-01-0.539D+00
 Coeff:      0.442D+00 0.831D+00-0.283D+01 0.295D+01
 Gap=     0.425 Goal=   None    Shift=    0.500
 Gap=     0.287 Goal=   None    Shift=    0.500
 RMSDP=6.12D-05 MaxDP=8.80D-04 DE=-2.43D-05 OVMax= 3.08D-03

 Cycle  11  Pass 1  IDiag  1:
 E= -193.468205636824     Delta-E=       -0.000008085588 Rises=F Damp=F
 DIIS: error= 3.06D-04 at cycle  11 NSaved=  11.
 NSaved=11 IEnMin=11 EnMin= -193.468205636824     IErMin=11 ErrMin= 3.06D-04
 ErrMax= 3.06D-04  0.00D+00 EMaxC= 1.00D+00 BMatC= 1.47D-06 BMatP= 4.17D-06
 IDIUse=1 WtCom= 1.00D+00 WtEn= 0.00D+00
 Coeff-Com: -0.470D-03-0.276D-01 0.144D+00-0.173D+00-0.411D-01 0.460D+00
 Coeff-Com: -0.408D+00-0.909D+00 0.298D+01-0.529D+01 0.426D+01
 Coeff:     -0.470D-03-0.276D-01 0.144D+00-0.173D+00-0.411D-01 0.460D+00
 Coeff:     -0.408D+00-0.909D+00 0.298D+01-0.529D+01 0.426D+01
 Gap=     0.425 Goal=   None    Shift=    0.500
 Gap=     0.287 Goal=   None    Shift=    0.500
 RMSDP=3.76D-05 MaxDP=5.26D-04 DE=-8.09D-06 OVMax= 1.94D-03

 Cycle  12  Pass 1  IDiag  1:
 E= -193.468208517578     Delta-E=       -0.000002880755 Rises=F Damp=F
 DIIS: error= 1.74D-04 at cycle  12 NSaved=  12.
 NSaved=12 IEnMin=12 EnMin= -193.468208517578     IErMin=12 ErrMin= 1.74D-04
 ErrMax= 1.74D-04  0.00D+00 EMaxC= 1.00D+00 BMatC= 4.81D-07 BMatP= 1.47D-06
 IDIUse=1 WtCom= 1.00D+00 WtEn= 0.00D+00
 Coeff-Com:  0.289D-03-0.110D-01 0.369D-01-0.316D-01-0.456D-01 0.124D+00
 Coeff-Com: -0.656D-02-0.189D+00-0.231D+00 0.153D+01-0.328D+01 0.310D+01
 Coeff:      0.289D-03-0.110D-01 0.369D-01-0.316D-01-0.456D-01 0.124D+00
 Coeff:     -0.656D-02-0.189D+00-0.231D+00 0.153D+01-0.328D+01 0.310D+01
 Gap=     0.425 Goal=   None    Shift=    0.500
 Gap=     0.287 Goal=   None    Shift=    0.500
 RMSDP=2.16D-05 MaxDP=2.96D-04 DE=-2.88D-06 OVMax= 1.12D-03

 Cycle  13  Pass 1  IDiag  1:
 E= -193.468209456420     Delta-E=       -0.000000938841 Rises=F Damp=F
 DIIS: error= 9.90D-05 at cycle  13 NSaved=  13.
 NSaved=13 IEnMin=13 EnMin= -193.468209456420     IErMin=13 ErrMin= 9.90D-05
 ErrMax= 9.90D-05  0.00D+00 EMaxC= 1.00D+00 BMatC= 1.53D-07 BMatP= 4.81D-07
 IDIUse=1 WtCom= 1.00D+00 WtEn= 0.00D+00
 Coeff-Com: -0.741D-04 0.604D-02-0.200D-01 0.164D-01 0.312D-01-0.669D-01
 Coeff-Com:  0.221D-02 0.821D-01 0.132D+00-0.918D+00 0.221D+01-0.410D+01
 Coeff-Com:  0.363D+01
 Coeff:     -0.741D-04 0.604D-02-0.200D-01 0.164D-01 0.312D-01-0.669D-01
 Coeff:      0.221D-02 0.821D-01 0.132D+00-0.918D+00 0.221D+01-0.410D+01
 Coeff:      0.363D+01
 Gap=     0.425 Goal=   None    Shift=    0.500
 Gap=     0.287 Goal=   None    Shift=    0.500
 RMSDP=1.26D-05 MaxDP=1.75D-04 DE=-9.39D-07 OVMax= 6.61D-04

 Cycle  14  Pass 1  IDiag  1:
 E= -193.468209762100     Delta-E=       -0.000000305681 Rises=F Damp=F
 DIIS: error= 5.40D-05 at cycle  14 NSaved=  14.
 NSaved=14 IEnMin=14 EnMin= -193.468209762100     IErMin=14 ErrMin= 5.40D-05
 ErrMax= 5.40D-05  0.00D+00 EMaxC= 1.00D+00 BMatC= 4.79D-08 BMatP= 1.53D-07
 IDIUse=1 WtCom= 1.00D+00 WtEn= 0.00D+00
 Coeff-Com:  0.211D-03-0.490D-02 0.197D-01-0.212D-01-0.129D-01 0.572D-01
 Coeff-Com: -0.180D-01-0.108D+00 0.184D+00-0.134D+00-0.363D+00 0.155D+01
 Coeff-Com: -0.333D+01 0.318D+01
 Coeff:      0.211D-03-0.490D-02 0.197D-01-0.212D-01-0.129D-01 0.572D-01
 Coeff:     -0.180D-01-0.108D+00 0.184D+00-0.134D+00-0.363D+00 0.155D+01
 Coeff:     -0.333D+01 0.318D+01
 Gap=     0.425 Goal=   None    Shift=    0.500
 Gap=     0.287 Goal=   None    Shift=    0.500
 RMSDP=7.10D-06 MaxDP=1.00D-04 DE=-3.06D-07 OVMax= 3.79D-04

 Cycle  15  Pass 1  IDiag  1:
 E= -193.468209858165     Delta-E=       -0.000000096065 Rises=F Damp=F
 DIIS: error= 2.95D-05 at cycle  15 NSaved=  15.
 NSaved=15 IEnMin=15 EnMin= -193.468209858165     IErMin=15 ErrMin= 2.95D-05
 ErrMax= 2.95D-05  0.00D+00 EMaxC= 1.00D+00 BMatC= 1.46D-08 BMatP= 4.79D-08
 IDIUse=1 WtCom= 1.00D+00 WtEn= 0.00D+00
 Coeff-Com: -0.120D-03 0.224D-02-0.938D-02 0.106D-01 0.418D-02-0.242D-01
 Coeff-Com:  0.117D-01 0.488D-01-0.104D+00 0.126D+00 0.568D-02-0.589D+00
 Coeff-Com:  0.174D+01-0.354D+01 0.332D+01
 Coeff:     -0.120D-03 0.224D-02-0.938D-02 0.106D-01 0.418D-02-0.242D-01
 Coeff:      0.117D-01 0.488D-01-0.104D+00 0.126D+00 0.568D-02-0.589D+00
 Coeff:      0.174D+01-0.354D+01 0.332D+01
 Gap=     0.425 Goal=   None    Shift=    0.500
 Gap=     0.287 Goal=   None    Shift=    0.500
 RMSDP=3.93D-06 MaxDP=5.52D-05 DE=-9.61D-08 OVMax= 2.12D-04

 Cycle  16  Pass 1  IDiag  1:
 E= -193.468209887211     Delta-E=       -0.000000029046 Rises=F Damp=F
 DIIS: error= 1.57D-05 at cycle  16 NSaved=  16.
 NSaved=16 IEnMin=16 EnMin= -193.468209887211     IErMin=16 ErrMin= 1.57D-05
 ErrMax= 1.57D-05  0.00D+00 EMaxC= 1.00D+00 BMatC= 4.50D-09 BMatP= 1.46D-08
 IDIUse=1 WtCom= 1.00D+00 WtEn= 0.00D+00
 Coeff-Com:  0.284D-04-0.108D-03 0.136D-02-0.244D-02 0.266D-02-0.165D-02
 Coeff-Com:  0.206D-02-0.867D-02 0.400D-01-0.110D+00 0.162D+00-0.130D+00
 Coeff-Com: -0.239D+00 0.141D+01-0.356D+01 0.343D+01
 Coeff:      0.284D-04-0.108D-03 0.136D-02-0.244D-02 0.266D-02-0.165D-02
 Coeff:      0.206D-02-0.867D-02 0.400D-01-0.110D+00 0.162D+00-0.130D+00
 Coeff:     -0.239D+00 0.141D+01-0.356D+01 0.343D+01
 Gap=     0.425 Goal=   None    Shift=    0.500
 Gap=     0.287 Goal=   None    Shift=    0.500
 RMSDP=2.15D-06 MaxDP=2.96D-05 DE=-2.90D-08 OVMax= 1.16D-04

 Cycle  17  Pass 1  IDiag  1:
 E= -193.468209895842     Delta-E=       -0.000000008630 Rises=F Damp=F
 DIIS: error= 8.22D-06 at cycle  17 NSaved=  17.
 NSaved=17 IEnMin=17 EnMin= -193.468209895842     IErMin=17 ErrMin= 8.22D-06
 ErrMax= 8.22D-06  0.00D+00 EMaxC= 1.00D+00 BMatC= 1.38D-09 BMatP= 4.50D-09
 IDIUse=1 WtCom= 1.00D+00 WtEn= 0.00D+00
 Coeff-Com: -0.108D-04 0.302D-03-0.182D-02 0.251D-02-0.674D-03-0.298D-02
 Coeff-Com:  0.295D-02 0.828D-02-0.296D-01 0.615D-01-0.755D-01 0.113D-01
 Coeff-Com:  0.258D+00-0.113D+01 0.298D+01-0.512D+01 0.404D+01
 Coeff:     -0.108D-04 0.302D-03-0.182D-02 0.251D-02-0.674D-03-0.298D-02
 Coeff:      0.295D-02 0.828D-02-0.296D-01 0.615D-01-0.755D-01 0.113D-01
 Coeff:      0.258D+00-0.113D+01 0.298D+01-0.512D+01 0.404D+01
 Gap=     0.425 Goal=   None    Shift=    0.500
 Gap=     0.287 Goal=   None    Shift=    0.500
 RMSDP=1.15D-06 MaxDP=1.56D-05 DE=-8.63D-09 OVMax= 6.26D-05

 Cycle  18  Pass 1  IDiag  1:
 E= -193.468209898340     Delta-E=       -0.000000002499 Rises=F Damp=F
 DIIS: error= 4.25D-06 at cycle  18 NSaved=  18.
 NSaved=18 IEnMin=18 EnMin= -193.468209898340     IErMin=18 ErrMin= 4.25D-06
 ErrMax= 4.25D-06  0.00D+00 EMaxC= 1.00D+00 BMatC= 4.24D-10 BMatP= 1.38D-09
 IDIUse=1 WtCom= 1.00D+00 WtEn= 0.00D+00
 Coeff-Com: -0.149D-05 0.215D-04 0.357D-03-0.778D-03 0.127D-02-0.150D-02
 Coeff-Com:  0.906D-03-0.247D-02 0.156D-01-0.456D-01 0.819D-01-0.110D+00
 Coeff-Com:  0.515D-01 0.369D+00-0.154D+01 0.331D+01-0.501D+01 0.389D+01
 Coeff:     -0.149D-05 0.215D-04 0.357D-03-0.778D-03 0.127D-02-0.150D-02
 Coeff:      0.906D-03-0.247D-02 0.156D-01-0.456D-01 0.819D-01-0.110D+00
 Coeff:      0.515D-01 0.369D+00-0.154D+01 0.331D+01-0.501D+01 0.389D+01
 Gap=     0.425 Goal=   None    Shift=    0.500
 Gap=     0.287 Goal=   None    Shift=    0.500
 RMSDP=5.96D-07 MaxDP=7.91D-06 DE=-2.50D-09 OVMax= 3.26D-05

 SCF Done:  E(ULC-wHPBE) =  -193.468209898     A.U. after   18 cycles
            NFock= 18  Conv=0.60D-06     -V/T= 2.0049
 <Sx>= 0.0000 <Sy>= 0.0000 <Sz>= 0.5000 <S**2>= 0.7967 S= 0.5231
 <L.S>= 0.000000000000E+00
 KE= 1.925278497200D+02 PE=-7.506531445316D+02 EE= 2.092131663847D+02
 Annihilation of the first spin contaminant:
 S**2 before annihilation     0.7967,   after     0.7513
 Leave Link  502 at Tue Feb 25 12:24:00 2020, MaxMem=  6710886400 cpu:              25.9 elap:               1.7
 (Enter /opt/ohpc/pub/libs/gaussian/g16-A.03/haswell/g16/l508.exe)
 QCSCF skips out because SCF is already converged.
 Leave Link  508 at Tue Feb 25 12:24:00 2020, MaxMem=  6710886400 cpu:               0.0 elap:               0.1
 (Enter /opt/ohpc/pub/libs/gaussian/g16-A.03/haswell/g16/l601.exe)
 Copying SCF densities to generalized density rwf, IOpCl= 1 IROHF=0.

 **********************************************************************

            Population analysis using the SCF density.

 **********************************************************************

 Orbital symmetries:
 Alpha Orbitals:
       Occupied  (B2) (A1) (A1) (B2) (A1) (A1) (A1) (B2) (A1) (B2)
                 (A1) (B2) (A1) (A1) (B1) (B2) (A2) (B1)
       Virtual   (B2) (A2) (B1) (A1) (A1) (B2) (A1) (B2) (A1) (B2)
                 (A1) (A1) (B2) (B1) (B2) (B1) (A2) (A1) (A1) (B2)
                 (A1) (A2) (B1) (B2) (B2) (A1) (A1) (B2) (A1) (A1)
                 (B2) (A1) (A1) (B2) (A1) (B2) (A1) (A1) (B2)
 Beta  Orbitals:
       Occupied  (B2) (A1) (A1) (B2) (A1) (A1) (A1) (B2) (A1) (B2)
                 (A1) (B2) (A1) (A1) (B2) (B1) (A2)
       Virtual   (B1) (B2) (A2) (A1) (B1) (A1) (B2) (A1) (B2) (A1)
                 (B2) (A1) (A1) (B2) (B2) (B1) (A2) (A1) (B1) (A1)
                 (B2) (A1) (A2) (B1) (B2) (B2) (A1) (A1) (B2) (A1)
                 (B2) (A1) (A1) (A1) (B2) (A1) (B2) (A1) (A1) (B2)
 The electronic state is 2-B1.
 Alpha  occ. eigenvalues --  -10.37106 -10.37101 -10.32101 -10.31197 -10.31196
 Alpha  occ. eigenvalues --   -1.24162  -1.11363  -1.06921  -0.93098  -0.90952
 Alpha  occ. eigenvalues --   -0.86344  -0.76668  -0.74108  -0.72996  -0.72438
 Alpha  occ. eigenvalues --   -0.70800  -0.57838  -0.56280
 Alpha virt. eigenvalues --   -0.13785  -0.13245  -0.06306  -0.05440  -0.00243
 Alpha virt. eigenvalues --    0.04457   0.06448   0.08769   0.08907   0.20063
 Alpha virt. eigenvalues --    0.20096   0.30039   0.31321   0.39175   0.39833
 Alpha virt. eigenvalues --    0.46888   0.47478   0.48020   0.50551   0.51296
 Alpha virt. eigenvalues --    0.51472   0.54638   0.56146   0.64082   0.70585
 Alpha virt. eigenvalues --    0.72910   0.74205   0.76595   0.76787   0.83106
 Alpha virt. eigenvalues --    0.83121   0.87529   0.91570   0.97891   1.06065
 Alpha virt. eigenvalues --    1.07111   1.12341   1.34291   1.35751
  Beta  occ. eigenvalues --  -10.36554 -10.36547 -10.31460 -10.31460 -10.31206
  Beta  occ. eigenvalues --   -1.23017  -1.09551  -1.06640  -0.92104  -0.90248
  Beta  occ. eigenvalues --   -0.86065  -0.76364  -0.73828  -0.72449  -0.70639
  Beta  occ. eigenvalues --   -0.68179  -0.56554
  Beta virt. eigenvalues --   -0.27853  -0.12441  -0.10374  -0.05209  -0.02995
  Beta virt. eigenvalues --    0.00144   0.04718   0.06680   0.08741   0.09470
  Beta virt. eigenvalues --    0.20405   0.20584   0.30441   0.31694   0.40206
  Beta virt. eigenvalues --    0.41297   0.48463   0.48548   0.49515   0.50955
  Beta virt. eigenvalues --    0.51742   0.52565   0.55220   0.57635   0.64610
  Beta virt. eigenvalues --    0.71045   0.73747   0.74771   0.76499   0.77281
  Beta virt. eigenvalues --    0.83448   0.83554   0.88551   0.92204   0.97945
  Beta virt. eigenvalues --    1.06580   1.07611   1.13386   1.35173   1.36579
          Condensed to atoms (all electrons):
               1          2          3          4          5          6
     1  C    5.346818   0.500059  -0.041341  -0.128165   0.182221   0.165916
     2  C    0.500059   4.949957   0.465317  -0.024445  -0.128165  -0.024034
     3  C   -0.041341   0.465317   4.852626   0.465317  -0.041341   0.007601
     4  C   -0.128165  -0.024445   0.465317   4.949957   0.500059  -0.024034
     5  C    0.182221  -0.128165  -0.041341   0.500059   5.346818   0.165916
     6  H    0.165916  -0.024034   0.007601  -0.024034   0.165916   0.360881
     7  H    0.337563   0.004059  -0.000160   0.003257  -0.015996  -0.008837
     8  H   -0.024138   0.361936  -0.012123   0.004052   0.000965   0.000460
     9  H    0.005368  -0.028237   0.366972  -0.028237   0.005368  -0.000044
    10  H    0.000965   0.004052  -0.012123   0.361936  -0.024138   0.000460
    11  H   -0.015996   0.003257  -0.000160   0.004059   0.337563  -0.008837
               7          8          9         10         11
     1  C    0.337563  -0.024138   0.005368   0.000965  -0.015996
     2  C    0.004059   0.361936  -0.028237   0.004052   0.003257
     3  C   -0.000160  -0.012123   0.366972  -0.012123  -0.000160
     4  C    0.003257   0.004052  -0.028237   0.361936   0.004059
     5  C   -0.015996   0.000965   0.005368  -0.024138   0.337563
     6  H   -0.008837   0.000460  -0.000044   0.000460  -0.008837
     7  H    0.345225  -0.000041  -0.000054  -0.000018   0.000369
     8  H   -0.000041   0.385989  -0.001521  -0.000091  -0.000018
     9  H   -0.000054  -0.001521   0.408209  -0.001521  -0.000054
    10  H   -0.000018  -0.000091  -0.001521   0.385989  -0.000041
    11  H    0.000369  -0.000018  -0.000054  -0.000041   0.345225
          Atomic-Atomic Spin Densities.
               1          2          3          4          5          6
     1  C    0.481095  -0.040004  -0.023686  -0.008951   0.029038  -0.003566
     2  C   -0.040004  -0.223250   0.028506  -0.000327  -0.008951   0.000274
     3  C   -0.023686   0.028506   0.691814   0.028506  -0.023686   0.000209
     4  C   -0.008951  -0.000327   0.028506  -0.223250  -0.040004   0.000274
     5  C    0.029038  -0.008951  -0.023686  -0.040004   0.481095  -0.003566
     6  H   -0.003566   0.000274   0.000209   0.000274  -0.003566  -0.014233
     7  H   -0.002543  -0.000464   0.000093  -0.000088   0.000250  -0.000253
     8  H   -0.000282   0.001771  -0.001020  -0.000118   0.000055   0.000020
     9  H   -0.000036  -0.000066  -0.000876  -0.000066  -0.000036  -0.000002
    10  H    0.000055  -0.000118  -0.001020   0.001771  -0.000282   0.000020
    11  H    0.000250  -0.000088   0.000093  -0.000464  -0.002543  -0.000253
               7          8          9         10         11
     1  C   -0.002543  -0.000282  -0.000036   0.000055   0.000250
     2  C   -0.000464   0.001771  -0.000066  -0.000118  -0.000088
     3  C    0.000093  -0.001020  -0.000876  -0.001020   0.000093
     4  C   -0.000088  -0.000118  -0.000066   0.001771  -0.000464
     5  C    0.000250   0.000055  -0.000036  -0.000282  -0.002543
     6  H   -0.000253   0.000020  -0.000002   0.000020  -0.000253
     7  H   -0.016972   0.000057   0.000004  -0.000000  -0.000064
     8  H    0.000057   0.005771   0.000020   0.000000  -0.000000
     9  H    0.000004   0.000020  -0.026725   0.000020   0.000004
    10  H   -0.000000   0.000000   0.000020   0.005771   0.000057
    11  H   -0.000064  -0.000000   0.000004   0.000057  -0.016972
 Mulliken charges and spin densities:
               1          2
     1  C   -0.329269   0.431371
     2  C   -0.083756  -0.242715
     3  C   -0.050584   0.698934
     4  C   -0.083756  -0.242715
     5  C   -0.329269   0.431371
     6  H    0.364552  -0.021074
     7  H    0.334634  -0.019980
     8  H    0.284532   0.006274
     9  H    0.273751  -0.027760
    10  H    0.284532   0.006274
    11  H    0.334634  -0.019980
 Sum of Mulliken charges =   1.00000   1.00000
 Mulliken charges and spin densities with hydrogens summed into heavy atoms:
               1          2
     1  C    0.369917   0.390317
     2  C    0.200775  -0.236441
     3  C    0.223167   0.671175
     4  C    0.200775  -0.236441
     5  C    0.005365   0.411391
 Electronic spatial extent (au):  <R**2>=            321.3809
 Charge=              1.0000 electrons
 Dipole moment (field-independent basis, Debye):
    X=             -0.0000    Y=              0.0000    Z=             -1.9995  Tot=              1.9995
 Quadrupole moment (field-independent basis, Debye-Ang):
   XX=            -31.4684   YY=            -17.4504   ZZ=            -13.3016
   XY=              0.0000   XZ=              0.0000   YZ=             -0.0000
 Traceless Quadrupole moment (field-independent basis, Debye-Ang):
   XX=            -10.7283   YY=              3.2898   ZZ=              7.4385
   XY=              0.0000   XZ=              0.0000   YZ=             -0.0000
 Octapole moment (field-independent basis, Debye-Ang**2):
  XXX=              0.0000  YYY=             -0.0000  ZZZ=             -7.4036  XYY=             -0.0000
  XXY=              0.0000  XXZ=              0.7053  XZZ=              0.0000  YZZ=             -0.0000
  YYZ=             -2.8609  XYZ=             -0.0000
 Hexadecapole moment (field-independent basis, Debye-Ang**3):
 XXXX=            -31.5537 YYYY=           -147.4128 ZZZZ=           -126.9809 XXXY=             -0.0000
 XXXZ=             -0.0000 YYYX=             -0.0000 YYYZ=              0.0000 ZZZX=              0.0000
 ZZZY=             -0.0000 XXYY=            -42.9870 XXZZ=            -39.1641 YYZZ=            -42.8997
 XXYZ=              0.0000 YYXZ=             -0.0000 ZZXY=             -0.0000
 N-N= 1.554439185285D+02 E-N=-7.506531474983D+02  KE= 1.925278497200D+02
 Symmetry A1   KE= 1.112967753033D+02
 Symmetry A2   KE= 2.506115193249D+00
 Symmetry B1   KE= 3.221103920496D+00
 Symmetry B2   KE= 7.550385530297D+01
 Symmetry A1   SP=-1.139388349876D-14
 Symmetry A2   SP=-2.465831354363D-15
 Symmetry B1   SP= 1.000000000000D+00
 Symmetry B2   SP=-1.196667709046D-14
                          Isotropic Fermi Contact Couplings
        Atom                 a.u.       MegaHertz       Gauss      10(-4) cm-1
     1  C(13)              0.06273      70.51519      25.16157      23.52134
     2  C(13)             -0.04239     -47.65853     -17.00575     -15.89717
     3  C(13)              0.09558     107.44784      38.34006      35.84074
     4  C(13)             -0.04239     -47.65853     -17.00575     -15.89717
     5  C(13)              0.06273      70.51519      25.16157      23.52134
     6  H(1)              -0.00772     -34.51625     -12.31626     -11.51338
     7  H(1)              -0.00814     -36.37279     -12.97872     -12.13266
     8  H(1)               0.00235      10.49567       3.74511       3.50098
     9  H(1)              -0.01180     -52.76321     -18.82723     -17.59991
    10  H(1)               0.00235      10.49567       3.74511       3.50098
    11  H(1)              -0.00814     -36.37279     -12.97872     -12.13266
 --------------------------------------------------------
       Center         ----  Spin Dipole Couplings  ----
                      3XX-RR        3YY-RR        3ZZ-RR
 --------------------------------------------------------
     1   Atom        0.441485     -0.214816     -0.226669
     2   Atom       -0.157237      0.076870      0.080367
     3   Atom        0.669848     -0.342185     -0.327663
     4   Atom       -0.157237      0.076870      0.080367
     5   Atom        0.441485     -0.214816     -0.226669
     6   Atom       -0.006281      0.007722     -0.001442
     7   Atom       -0.005838      0.005507      0.000331
     8   Atom       -0.006482      0.001200      0.005282
     9   Atom       -0.007837     -0.043886      0.051723
    10   Atom       -0.006482      0.001200      0.005282
    11   Atom       -0.005838      0.005507      0.000331
 --------------------------------------------------------
                        XY            XZ            YZ
 --------------------------------------------------------
     1   Atom       -0.000000     -0.000000     -0.007896
     2   Atom       -0.000000      0.000000     -0.006598
     3   Atom       -0.000000     -0.000000      0.000000
     4   Atom       -0.000000     -0.000000      0.006598
     5   Atom        0.000000      0.000000      0.007896
     6   Atom       -0.000000      0.000000     -0.000000
     7   Atom        0.000000      0.000000     -0.032566
     8   Atom       -0.000000      0.000000     -0.004989
     9   Atom       -0.000000     -0.000000     -0.000000
    10   Atom        0.000000     -0.000000      0.004989
    11   Atom       -0.000000     -0.000000      0.032566
 --------------------------------------------------------


 ---------------------------------------------------------------------------------
              Anisotropic Spin Dipole Couplings in Principal Axis System
 ---------------------------------------------------------------------------------

       Atom             a.u.   MegaHertz   Gauss  10(-4) cm-1        Axes

              Baa    -0.2306   -30.946   -11.042   -10.323  0.0000  0.4470  0.8945
     1 C(13)  Bbb    -0.2109   -28.297   -10.097    -9.439  0.0000  0.8945 -0.4470
              Bcc     0.4415    59.243    21.139    19.761  1.0000 -0.0000  0.0000
 
              Baa    -0.1572   -21.100    -7.529    -7.038  1.0000  0.0000  0.0000
     2 C(13)  Bbb     0.0718     9.634     3.438     3.214 -0.0000  0.7925  0.6098
              Bcc     0.0854    11.466     4.091     3.825  0.0000 -0.6098  0.7925
 
              Baa    -0.3422   -45.918   -16.385   -15.317  0.0000  1.0000  0.0000
     3 C(13)  Bbb    -0.3277   -43.969   -15.689   -14.667  0.0000  0.0000  1.0000
              Bcc     0.6698    89.887    32.074    29.983  1.0000  0.0000  0.0000
 
              Baa    -0.1572   -21.100    -7.529    -7.038  1.0000  0.0000  0.0000
     4 C(13)  Bbb     0.0718     9.634     3.438     3.214 -0.0000  0.7925 -0.6098
              Bcc     0.0854    11.466     4.091     3.825 -0.0000  0.6098  0.7925
 
              Baa    -0.2306   -30.946   -11.042   -10.323 -0.0000 -0.4470  0.8945
     5 C(13)  Bbb    -0.2109   -28.297   -10.097    -9.439  0.0000  0.8945  0.4470
              Bcc     0.4415    59.243    21.139    19.761  1.0000 -0.0000  0.0000
 
              Baa    -0.0063    -3.351    -1.196    -1.118  1.0000  0.0000 -0.0000
     6 H(1)   Bbb    -0.0014    -0.769    -0.274    -0.257  0.0000  0.0000  1.0000
              Bcc     0.0077     4.120     1.470     1.374 -0.0000  1.0000 -0.0000
 
              Baa    -0.0297   -15.873    -5.664    -5.295 -0.0000  0.6785  0.7346
     7 H(1)   Bbb    -0.0058    -3.115    -1.111    -1.039  1.0000  0.0000  0.0000
              Bcc     0.0356    18.988     6.775     6.334 -0.0000  0.7346 -0.6785
 
              Baa    -0.0065    -3.459    -1.234    -1.154  1.0000  0.0000  0.0000
     8 H(1)   Bbb    -0.0021    -1.147    -0.409    -0.383 -0.0000  0.8302  0.5574
              Bcc     0.0086     4.606     1.643     1.536  0.0000 -0.5574  0.8302
 
              Baa    -0.0439   -23.415    -8.355    -7.811 -0.0000  1.0000 -0.0000
     9 H(1)   Bbb    -0.0078    -4.181    -1.492    -1.395  1.0000  0.0000  0.0000
              Bcc     0.0517    27.597     9.847     9.205  0.0000  0.0000  1.0000
 
              Baa    -0.0065    -3.459    -1.234    -1.154  1.0000 -0.0000  0.0000
    10 H(1)   Bbb    -0.0021    -1.147    -0.409    -0.383  0.0000  0.8302 -0.5574
              Bcc     0.0086     4.606     1.643     1.536  0.0000  0.5574  0.8302
 
              Baa    -0.0297   -15.873    -5.664    -5.295  0.0000 -0.6785  0.7346
    11 H(1)   Bbb    -0.0058    -3.115    -1.111    -1.039  1.0000  0.0000  0.0000
              Bcc     0.0356    18.988     6.775     6.334 -0.0000  0.7346  0.6785
 

 ---------------------------------------------------------------------------------

 No NMR shielding tensors so no spin-rotation constants.
 Leave Link  601 at Tue Feb 25 12:24:00 2020, MaxMem=  6710886400 cpu:               5.3 elap:               0.5
 (Enter /opt/ohpc/pub/libs/gaussian/g16-A.03/haswell/g16/l9999.exe)

 Test job not archived.
 1\1\GINC-HASWELL008\SP\ULC-wHPBE\6-31G\C5H6(1+,2)\SMGO234\25-Feb-2020\
 0\\#P uLC-wHPBE/6-31G iop(3/107=0315300000, 3/108=0315300000) scf=(con
 ver=6,fermi,ndamp=35,noincfock,novaracc,vshift=500,xqc)\\H6 C5\\1,2\C,
 0,0.,0.895213,-0.933453\C,0,0.,1.131613,0.424372\C,0,0.,0.,1.240919\C,
 0,0.,-1.131613,0.424372\C,0,0.,-0.895213,-0.933453\H,0,0.,0.,-1.720797
 \H,0,0.,1.620085,-1.742217\H,0,0.,2.160007,0.773055\H,0,0.,0.,2.322589
 \H,0,0.,-2.160007,0.773055\H,0,0.,-1.620085,-1.742217\\Version=ES64L-G
 16RevA.03\State=2-B1\HF=-193.4682099\S2=0.796714\S2-1=0.\S2A=0.751262\
 RMSD=5.963e-07\Dipole=0.,0.,-0.7866744\Quadrupole=-7.9762116,2.4458562
 ,5.5303554,0.,0.,0.\PG=C02V [C2(H1C1H1),SGV(C4H4)]\\@


 We find comfort among those who agree with us -- growth among those who don't.
 -- Frank A. Clark
 Job cpu time:       0 days  0 hours  0 minutes 52.1 seconds.
 Elapsed time:       0 days  0 hours  0 minutes  3.8 seconds.
 File lengths (MBytes):  RWF=    272 Int=      0 D2E=      0 Chk=     32 Scr=     32
 Normal termination of Gaussian 16 at Tue Feb 25 12:24:00 2020.
