 *******************************************************************************
 ** Site#: 29200        For non-commercial use only    Version 19.090L 64BITS **
 *******************************************************************************
 ** Cite this program as: MOPAC2016, Version: 19.090L, James J. P. Stewart,   **
 ** Stewart Computational Chemistry, web: HTTP://OpenMOPAC.net. Days left: 175**
 *******************************************************************************
 **                                                                           **
 **                                MOPAC2016                                  **
 **                                                                           **
 *******************************************************************************

                              PM7 CALCULATION RESULTS

 *******************************************************************************
 *  CALCULATION DONE:                                Mon Oct  7 22:30:37 2019  *
 *  CHARGES    - IDENTIFY AND PRINT CHARGED ATOMS
 *  T=         - A TIME OF 172800.0 SECONDS REQUESTED
 *  DUMP=N     - RESTART FILE WRITTEN EVERY  7200.000 SECONDS
 *******************************************************************************
CHARGES


   ATOM   CHEMICAL          X               Y               Z
  NUMBER   SYMBOL      (ANGSTROMS)     (ANGSTROMS)     (ANGSTROMS)
 
     1       H          0.26942400  *   3.89311000  *   0.77557500  *
     2       C          0.28856300  *   3.41160600  *  -0.04313500  *
     3       C         -0.51074900  *   2.25353300  *  -0.18773300  *
     4       C          1.09138700  *   3.85141900  *  -1.06623900  *
     5       C         -0.45040700  *   1.58040900  *  -1.43278300  *
     6       N         -1.30952100  *   1.81847100  *   0.86300800  *
     7       H          1.63038000  *   4.62301000  *  -0.93741900  *
     8       C          1.13038500  *   3.18236700  *  -2.29750400  *
     9       C          0.36313500  *   2.05975800  *  -2.47259200  *
    10       S         -1.41759700  *   0.20718100  *  -1.81626000  *
    11       C         -2.04119500  *   0.63766100  *   0.85546200  *
    12       C         -1.50919100  *   2.76800600  *   1.99112200  *
    13       H          1.68159900  *   3.50294500  *  -3.00176500  *
    14       H          0.38188700  *   1.60200900  *  -3.30486100  *
    15       C         -2.14467800  *  -0.17290500  *  -0.30332000  *
    16       C         -2.71775100  *   0.20022400  *   2.01651200  *
    17       H         -1.55054800  *   3.68789800  *   1.62780200  *
    18       H         -2.38150900  *   2.57479000  *   2.41755300  *
    19       C         -0.42527900  *   2.71303000  *   3.05410700  *
    20       C         -2.91535000  *  -1.34387400  *  -0.29001900  *
    21       H         -2.64607900  *   0.70358200  *   2.81892800  *
    22       C         -3.47806600  *  -0.94427500  *   1.99912700  *
    23       H         -0.47948800  *   3.51899700  *   3.62639500  *
    24       H          0.46493400  *   2.70149100  *   2.62115500  *
    25       O         -0.58244000  *   1.54918800  *   3.85300700  *
    26       H         -2.97384600  *  -1.87740100  *  -1.07380400  *
    27       C         -3.58623200  *  -1.72701300  *   0.84478600  *
    28       H         -3.93910900  *  -1.20904500  *   2.78642600  *
    29       C          0.26451600  *   1.63742200  *   4.99794800  *
    30       H         -4.11775800  *  -2.51446900  *   0.84614900  *
    31       H          1.19118700  *   1.83421800  *   4.71049200  *
    32       H         -0.04096100  *   2.37751900  *   5.58009400  *
    33       C          0.23992900  *   0.35140900  *   5.76654500  *
    34       H         -0.69644200  *   0.06532700  *   5.91314200  *
    35       H          0.66714400  *   0.47992600  *   6.65035700  *
    36       O          0.93530800  *  -0.63918800  *   5.03745000  *
    37       C          1.05284000  *  -1.85665000  *   5.75246800  *
    38       H          1.50869600  *  -2.52061100  *   5.19377300  *
    39       H          1.57211800  *  -1.70634600  *   6.57000400  *
    40       H          0.16038500  *  -2.18494800  *   5.98778000  *
 


          CARTESIAN COORDINATES 

    NO.       ATOM           X           Y           Z

     1         H          0.2694      3.8931      0.7756
     2         C          0.2886      3.4116     -0.0431
     3         C         -0.5107      2.2535     -0.1877
     4         C          1.0914      3.8514     -1.0662
     5         C         -0.4504      1.5804     -1.4328
     6         N         -1.3095      1.8185      0.8630
     7         H          1.6304      4.6230     -0.9374
     8         C          1.1304      3.1824     -2.2975
     9         C          0.3631      2.0598     -2.4726
    10         S         -1.4176      0.2072     -1.8163
    11         C         -2.0412      0.6377      0.8555
    12         C         -1.5092      2.7680      1.9911
    13         H          1.6816      3.5029     -3.0018
    14         H          0.3819      1.6020     -3.3049
    15         C         -2.1447     -0.1729     -0.3033
    16         C         -2.7178      0.2002      2.0165
    17         H         -1.5505      3.6879      1.6278
    18         H         -2.3815      2.5748      2.4176
    19         C         -0.4253      2.7130      3.0541
    20         C         -2.9154     -1.3439     -0.2900
    21         H         -2.6461      0.7036      2.8189
    22         C         -3.4781     -0.9443      1.9991
    23         H         -0.4795      3.5190      3.6264
    24         H          0.4649      2.7015      2.6212
    25         O         -0.5824      1.5492      3.8530
    26         H         -2.9738     -1.8774     -1.0738
    27         C         -3.5862     -1.7270      0.8448
    28         H         -3.9391     -1.2090      2.7864
    29         C          0.2645      1.6374      4.9979
    30         H         -4.1178     -2.5145      0.8461
    31         H          1.1912      1.8342      4.7105
    32         H         -0.0410      2.3775      5.5801
    33         C          0.2399      0.3514      5.7665
    34         H         -0.6964      0.0653      5.9131
    35         H          0.6671      0.4799      6.6504
    36         O          0.9353     -0.6392      5.0374
    37         C          1.0528     -1.8567      5.7525
    38         H          1.5087     -2.5206      5.1938
    39         H          1.5721     -1.7063      6.5700
    40         H          0.1604     -2.1849      5.9878

 General Reference for PM7:
 "Optimization of Parameters for Semiempirical Methods VI: More Modifications to the 
 NDDO Approximations and Re-optimization of Parameters", J. J. P. Stewart, J. Mol. Mod., 1:32, 19 (2013)
 http://www.springerlink.com/openurl.asp?genre=article&id=doi:10.1007/s00894-012-1667-x

           Empirical Formula: C17 H19 N O2 S  =    40 atoms



      MOLECULAR POINT GROUP   :   C1  

          COMPUTED CHARGE ON SYSTEM: +0

   COMPUTED CHARGE ON SYSTEM = +0. THIS AGREES WITH THE CHARGE IN THE DATA-SET.

          JOB STOPPED HERE BECAUSE KEYWORD "CHARGES" WAS USED

 ******************************************************************************
 *                                                                            *
 *     Error and normal termination messages reported in this calculation     *
 *                                                                            *
 * JOB STOPPED HERE BECAUSE KEYWORD "CHARGES" WAS USED                        *
 * JOB ENDED NORMALLY                                                         *
 *                                                                            *
 ******************************************************************************



 TOTAL JOB TIME:             0.00 SECONDS

 == MOPAC DONE ==
