 *******************************************************************************
 ** Site#: 29200        For non-commercial use only    Version 19.090L 64BITS **
 *******************************************************************************
 ** Cite this program as: MOPAC2016, Version: 19.090L, James J. P. Stewart,   **
 ** Stewart Computational Chemistry, web: HTTP://OpenMOPAC.net. Days left: 175**
 *******************************************************************************
 **                                                                           **
 **                                MOPAC2016                                  **
 **                                                                           **
 *******************************************************************************

                              PM7 CALCULATION RESULTS

 *******************************************************************************
 *  CALCULATION DONE:                                Mon Oct  7 21:31:26 2019  *
 *  CHARGES    - IDENTIFY AND PRINT CHARGED ATOMS
 *  T=         - A TIME OF 172800.0 SECONDS REQUESTED
 *  DUMP=N     - RESTART FILE WRITTEN EVERY  7200.000 SECONDS
 *******************************************************************************
CHARGES


   ATOM   CHEMICAL          X               Y               Z
  NUMBER   SYMBOL      (ANGSTROMS)     (ANGSTROMS)     (ANGSTROMS)
 
     1       H          0.26942400  *   4.59094000  *   8.49507500  *
     2       C          0.28856300  *   5.07244400  *   7.67636500  *
     3       C         -0.51074900  *   6.23051700  *   7.53176700  *
     4       C          1.09138700  *   4.63263100  *   6.65326100  *
     5       C         -0.45040700  *   6.90364100  *   6.28671700  *
     6       N         -1.30952100  *   6.66557900  *   8.58250800  *
     7       H          1.63038000  *   3.86104000  *   6.78208100  *
     8       C          1.13038500  *   5.30168300  *   5.42199600  *
     9       C          0.36313500  *   6.42429200  *   5.24690800  *
    10       S         -1.41759700  *   8.27686900  *   5.90324000  *
    11       C         -2.04119500  *   7.84638900  *   8.57496200  *
    12       C         -1.50919100  *   5.71604400  *   9.71062200  *
    13       H          1.68159900  *   4.98110500  *   4.71773500  *
    14       H          0.38188700  *   6.88204100  *   4.41463900  *
    15       C         -2.14467800  *   8.65695500  *   7.41618000  *
    16       C         -2.71775100  *   8.28382600  *   9.73601200  *
    17       H         -1.55054800  *   4.79615200  *   9.34730200  *
    18       H         -2.38150900  *   5.90926000  *  10.13705300  *
    19       C         -0.42527900  *   5.77102000  *  10.77360700  *
    20       C         -2.91535000  *   9.82792400  *   7.42948100  *
    21       H         -2.64607900  *   7.78046800  *  10.53842800  *
    22       C         -3.47806600  *   9.42832500  *   9.71862700  *
    23       H         -0.47948800  *   4.96505300  *  11.34589500  *
    24       H          0.46493400  *   5.78255900  *  10.34065500  *
    25       O         -0.58244000  *   6.93486200  *  11.57250700  *
    26       H         -2.97384600  *  10.36145100  *   6.64569600  *
    27       C         -3.58623200  *  10.21106300  *   8.56428600  *
    28       H         -3.93910900  *   9.69309500  *  10.50592600  *
    29       C          0.26451600  *   6.84662800  *  12.71744800  *
    30       H         -4.11775800  *  10.99851900  *   8.56564900  *
    31       H          1.19118700  *   6.64983200  *  12.42999200  *
    32       H         -0.04096100  *   6.10653100  *  13.29959400  *
    33       C          0.23992900  *   8.13264100  *  13.48604500  *
    34       H         -0.69644200  *   8.41872300  *  13.63264200  *
    35       H          0.66714400  *   8.00412400  *  14.36985700  *
    36       O          0.93530800  *   9.12323800  *  12.75695000  *
    37       C          1.05284000  *  10.34070000  *  13.47196800  *
    38       H          1.50869600  *  11.00466100  *  12.91327300  *
    39       H          1.57211800  *  10.19039600  *  14.28950400  *
    40       H          0.16038500  *  10.66899800  *  13.70728000  *
 


          CARTESIAN COORDINATES 

    NO.       ATOM           X           Y           Z

     1         H          0.2694      4.5909      8.4951
     2         C          0.2886      5.0724      7.6764
     3         C         -0.5107      6.2305      7.5318
     4         C          1.0914      4.6326      6.6533
     5         C         -0.4504      6.9036      6.2867
     6         N         -1.3095      6.6656      8.5825
     7         H          1.6304      3.8610      6.7821
     8         C          1.1304      5.3017      5.4220
     9         C          0.3631      6.4243      5.2469
    10         S         -1.4176      8.2769      5.9032
    11         C         -2.0412      7.8464      8.5750
    12         C         -1.5092      5.7160      9.7106
    13         H          1.6816      4.9811      4.7177
    14         H          0.3819      6.8820      4.4146
    15         C         -2.1447      8.6570      7.4162
    16         C         -2.7178      8.2838      9.7360
    17         H         -1.5505      4.7962      9.3473
    18         H         -2.3815      5.9093     10.1371
    19         C         -0.4253      5.7710     10.7736
    20         C         -2.9154      9.8279      7.4295
    21         H         -2.6461      7.7805     10.5384
    22         C         -3.4781      9.4283      9.7186
    23         H         -0.4795      4.9651     11.3459
    24         H          0.4649      5.7826     10.3407
    25         O         -0.5824      6.9349     11.5725
    26         H         -2.9738     10.3615      6.6457
    27         C         -3.5862     10.2111      8.5643
    28         H         -3.9391      9.6931     10.5059
    29         C          0.2645      6.8466     12.7174
    30         H         -4.1178     10.9985      8.5656
    31         H          1.1912      6.6498     12.4300
    32         H         -0.0410      6.1065     13.2996
    33         C          0.2399      8.1326     13.4860
    34         H         -0.6964      8.4187     13.6326
    35         H          0.6671      8.0041     14.3699
    36         O          0.9353      9.1232     12.7569
    37         C          1.0528     10.3407     13.4720
    38         H          1.5087     11.0047     12.9133
    39         H          1.5721     10.1904     14.2895
    40         H          0.1604     10.6690     13.7073

 General Reference for PM7:
 "Optimization of Parameters for Semiempirical Methods VI: More Modifications to the 
 NDDO Approximations and Re-optimization of Parameters", J. J. P. Stewart, J. Mol. Mod., 1:32, 19 (2013)
 http://www.springerlink.com/openurl.asp?genre=article&id=doi:10.1007/s00894-012-1667-x

           Empirical Formula: C17 H19 N O2 S  =    40 atoms



      MOLECULAR POINT GROUP   :   C1  

          COMPUTED CHARGE ON SYSTEM: +0

   COMPUTED CHARGE ON SYSTEM = +0. THIS AGREES WITH THE CHARGE IN THE DATA-SET.

          JOB STOPPED HERE BECAUSE KEYWORD "CHARGES" WAS USED

 ******************************************************************************
 *                                                                            *
 *     Error and normal termination messages reported in this calculation     *
 *                                                                            *
 * JOB STOPPED HERE BECAUSE KEYWORD "CHARGES" WAS USED                        *
 * JOB ENDED NORMALLY                                                         *
 *                                                                            *
 ******************************************************************************



 TOTAL JOB TIME:             0.00 SECONDS

 == MOPAC DONE ==
