 *******************************************************************************
 ** Site#: 29200        For non-commercial use only    Version 19.090L 64BITS **
 *******************************************************************************
 ** Cite this program as: MOPAC2016, Version: 19.090L, James J. P. Stewart,   **
 ** Stewart Computational Chemistry, web: HTTP://OpenMOPAC.net. Days left: 174**
 *******************************************************************************
 **                                                                           **
 **                                MOPAC2016                                  **
 **                                                                           **
 *******************************************************************************

                              PM7 CALCULATION RESULTS

 *******************************************************************************
 *  CALCULATION DONE:                                Tue Oct  8 20:07:50 2019  *
 *  CHARGES    - IDENTIFY AND PRINT CHARGED ATOMS
 *  T=         - A TIME OF 172800.0 SECONDS REQUESTED
 *  DUMP=N     - RESTART FILE WRITTEN EVERY  7200.000 SECONDS
 *******************************************************************************
CHARGES


   ATOM   CHEMICAL          X               Y               Z
  NUMBER   SYMBOL      (ANGSTROMS)     (ANGSTROMS)     (ANGSTROMS)
 
     1       H          6.61007900  *   1.97245900  *   8.06559800  *
     2       C          7.08566400  *   2.03408700  *   8.88568900  *
     3       C          6.39605700  *   1.85158500  *  10.10893100  *
     4       C          8.43066000  *   2.29898800  *   8.86982800  *
     5       C          7.14092700  *   2.02727700  *  11.29826900  *
     6       N          5.04350200  *   1.50707700  *  10.12011800  *
     7       H          8.87212700  *   2.41869100  *   8.03719500  *
     8       C          9.16419100  *   2.39568800  *  10.05397900  *
     9       C          8.52249200  *   2.27515400  *  11.25889400  *
    10       S          6.45183000  *   1.95271000  *  12.87277600  *
    11       C          4.24663800  *   1.47908900  *  11.25830400  *
    12       C          4.42182400  *   1.05211400  *   8.84803100  *
    13       H         10.10211300  *   2.54343300  *  10.02469000  *
    14       H          9.01276600  *   2.36001800  *  12.06809200  *
    15       C          4.78026500  *   1.70040700  *  12.55370500  *
    16       C          2.86027300  *   1.20124900  *  11.17096300  *
    17       H          3.80302600  *   0.30555600  *   9.04856400  *
    18       H          5.13370000  *   0.69910800  *   8.25739500  *
    19       C          3.65754500  *   2.12465800  *   8.09649600  *
    20       C          3.96225600  *   1.64524800  *  13.69286500  *
    21       H          2.45897000  *   1.07243500  *  10.31954500  *
    22       C          2.08955900  *   1.11476400  *  12.30740100  *
    23       H          3.13898600  *   1.71555200  *   7.35911300  *
    24       H          3.02438500  *   2.57845600  *   8.70753800  *
    25       O          4.58035900  *   3.06481900  *   7.57336900  *
    26       H          4.33212700  *   1.82401200  *  14.54937700  *
    27       C          2.63125500  *   1.33472100  *  13.57557700  *
    28       H          1.16737900  *   0.90095700  *  12.22759700  *
    29       C          3.93069200  *   4.04161600  *   6.74809300  *
    30       H          2.08367500  *   1.26956500  *  14.34916600  *
    31       H          3.41221400  *   4.66876500  *   7.31198000  *
    32       H          3.30567300  *   3.59436200  *   6.12412300  *
    33       C          4.97312200  *   4.79069400  *   5.97723500  *
    34       H          5.53733100  *   4.15381500  *   5.47083100  *
    35       H          4.53790600  *   5.40094100  *   5.33083400  *
    36       O          5.78101800  *   5.53888700  *   6.87757900  *
    37       C          6.80669600  *   6.25071500  *   6.20134800  *
    38       H          7.33906500  *   5.62657700  *   5.66549000  *
    39       H          7.38459300  *   6.69329800  *   6.85758800  *
    40       H          6.40413700  *   6.92438900  *   5.61405700  *
 


          CARTESIAN COORDINATES 

    NO.       ATOM           X           Y           Z

     1         H          6.6101      1.9725      8.0656
     2         C          7.0857      2.0341      8.8857
     3         C          6.3961      1.8516     10.1089
     4         C          8.4307      2.2990      8.8698
     5         C          7.1409      2.0273     11.2983
     6         N          5.0435      1.5071     10.1201
     7         H          8.8721      2.4187      8.0372
     8         C          9.1642      2.3957     10.0540
     9         C          8.5225      2.2752     11.2589
    10         S          6.4518      1.9527     12.8728
    11         C          4.2466      1.4791     11.2583
    12         C          4.4218      1.0521      8.8480
    13         H         10.1021      2.5434     10.0247
    14         H          9.0128      2.3600     12.0681
    15         C          4.7803      1.7004     12.5537
    16         C          2.8603      1.2012     11.1710
    17         H          3.8030      0.3056      9.0486
    18         H          5.1337      0.6991      8.2574
    19         C          3.6575      2.1247      8.0965
    20         C          3.9623      1.6452     13.6929
    21         H          2.4590      1.0724     10.3195
    22         C          2.0896      1.1148     12.3074
    23         H          3.1390      1.7156      7.3591
    24         H          3.0244      2.5785      8.7075
    25         O          4.5804      3.0648      7.5734
    26         H          4.3321      1.8240     14.5494
    27         C          2.6313      1.3347     13.5756
    28         H          1.1674      0.9010     12.2276
    29         C          3.9307      4.0416      6.7481
    30         H          2.0837      1.2696     14.3492
    31         H          3.4122      4.6688      7.3120
    32         H          3.3057      3.5944      6.1241
    33         C          4.9731      4.7907      5.9772
    34         H          5.5373      4.1538      5.4708
    35         H          4.5379      5.4009      5.3308
    36         O          5.7810      5.5389      6.8776
    37         C          6.8067      6.2507      6.2013
    38         H          7.3391      5.6266      5.6655
    39         H          7.3846      6.6933      6.8576
    40         H          6.4041      6.9244      5.6141

 General Reference for PM7:
 "Optimization of Parameters for Semiempirical Methods VI: More Modifications to the 
 NDDO Approximations and Re-optimization of Parameters", J. J. P. Stewart, J. Mol. Mod., 1:32, 19 (2013)
 http://www.springerlink.com/openurl.asp?genre=article&id=doi:10.1007/s00894-012-1667-x

           Empirical Formula: C17 H19 N O2 S  =    40 atoms



      MOLECULAR POINT GROUP   :   C1  

          COMPUTED CHARGE ON SYSTEM: +0

   COMPUTED CHARGE ON SYSTEM = +0. THIS AGREES WITH THE CHARGE IN THE DATA-SET.

          JOB STOPPED HERE BECAUSE KEYWORD "CHARGES" WAS USED

 ******************************************************************************
 *                                                                            *
 *     Error and normal termination messages reported in this calculation     *
 *                                                                            *
 * JOB STOPPED HERE BECAUSE KEYWORD "CHARGES" WAS USED                        *
 * JOB ENDED NORMALLY                                                         *
 *                                                                            *
 ******************************************************************************



 TOTAL JOB TIME:             0.00 SECONDS

 == MOPAC DONE ==
