 Entering Gaussian System, Link 0=g16
 Input=a1b_tune_n2.gjf
 Output=a1b_tune_n2.log
 Initial command:
 /opt/ohpc/pub/libs/gaussian/g16-A.03/sandybridge/g16/l1.exe "/scratch/smgo234/Ocelot/test/a1b/tuning_a1b_acycle3/Gau-89128.inp" -scrdir="/scratch/smgo234/Ocelot/test/a1b/tuning_a1b_acycle3/"
 Entering Link 1 = /opt/ohpc/pub/libs/gaussian/g16-A.03/sandybridge/g16/l1.exe PID=     89129.
  
 Copyright (c) 1988,1990,1992,1993,1995,1998,2003,2009,2016,
            Gaussian, Inc.  All Rights Reserved.
  
 This is part of the Gaussian(R) 16 program.  It is based on
 the Gaussian(R) 09 system (copyright 2009, Gaussian, Inc.),
 the Gaussian(R) 03 system (copyright 2003, Gaussian, Inc.),
 the Gaussian(R) 98 system (copyright 1998, Gaussian, Inc.),
 the Gaussian(R) 94 system (copyright 1995, Gaussian, Inc.),
 the Gaussian 92(TM) system (copyright 1992, Gaussian, Inc.),
 the Gaussian 90(TM) system (copyright 1990, Gaussian, Inc.),
 the Gaussian 88(TM) system (copyright 1988, Gaussian, Inc.),
 the Gaussian 86(TM) system (copyright 1986, Carnegie Mellon
 University), and the Gaussian 82(TM) system (copyright 1983,
 Carnegie Mellon University). Gaussian is a federally registered
 trademark of Gaussian, Inc.
  
 This software contains proprietary and confidential information,
 including trade secrets, belonging to Gaussian, Inc.
  
 This software is provided under written license and may be
 used, copied, transmitted, or stored only in accord with that
 written license.
  
 The following legend is applicable only to US Government
 contracts under FAR:
  
                    RESTRICTED RIGHTS LEGEND
  
 Use, reproduction and disclosure by the US Government is
 subject to restrictions as set forth in subparagraphs (a)
 and (c) of the Commercial Computer Software - Restricted
 Rights clause in FAR 52.227-19.
  
 Gaussian, Inc.
 340 Quinnipiac St., Bldg. 40, Wallingford CT 06492
  
  
 ---------------------------------------------------------------
 Warning -- This program may not be used in any manner that
 competes with the business of Gaussian, Inc. or will provide
 assistance to any competitor of Gaussian, Inc.  The licensee
 of this program is prohibited from giving any competitor of
 Gaussian, Inc. access to this program.  By using this program,
 the user acknowledges that Gaussian, Inc. is engaged in the
 business of creating and licensing software in the field of
 computational chemistry and represents and warrants to the
 licensee that it is not a competitor of Gaussian, Inc. and that
 it will not use this program in any manner prohibited above.
 ---------------------------------------------------------------
  

 Cite this work as:
 Gaussian 16, Revision A.03,
 M. J. Frisch, G. W. Trucks, H. B. Schlegel, G. E. Scuseria, 
 M. A. Robb, J. R. Cheeseman, G. Scalmani, V. Barone, 
 G. A. Petersson, H. Nakatsuji, X. Li, M. Caricato, A. V. Marenich, 
 J. Bloino, B. G. Janesko, R. Gomperts, B. Mennucci, H. P. Hratchian, 
 J. V. Ortiz, A. F. Izmaylov, J. L. Sonnenberg, D. Williams-Young, 
 F. Ding, F. Lipparini, F. Egidi, J. Goings, B. Peng, A. Petrone, 
 T. Henderson, D. Ranasinghe, V. G. Zakrzewski, J. Gao, N. Rega, 
 G. Zheng, W. Liang, M. Hada, M. Ehara, K. Toyota, R. Fukuda, 
 J. Hasegawa, M. Ishida, T. Nakajima, Y. Honda, O. Kitao, H. Nakai, 
 T. Vreven, K. Throssell, J. A. Montgomery, Jr., J. E. Peralta, 
 F. Ogliaro, M. J. Bearpark, J. J. Heyd, E. N. Brothers, K. N. Kudin, 
 V. N. Staroverov, T. A. Keith, R. Kobayashi, J. Normand, 
 K. Raghavachari, A. P. Rendell, J. C. Burant, S. S. Iyengar, 
 J. Tomasi, M. Cossi, J. M. Millam, M. Klene, C. Adamo, R. Cammi, 
 J. W. Ochterski, R. L. Martin, K. Morokuma, O. Farkas, 
 J. B. Foresman, and D. J. Fox, Gaussian, Inc., Wallingford CT, 2016.
 
 ******************************************
 Gaussian 16:  EM64L-G16RevA.03 25-Dec-2016
                 5-Mar-2020 
 ******************************************
 %mem=50GB
 %nproc=16
 Will use up to   16 processors via shared memory.
 ----------------------------------------------------------------------
 #P uLC-wHPBE/6-31G iop(3/130=0219000000, 3/131=0219000000, 3/119=07810
 00000, 3/120=0781000000) scf=(conver=6,fermi,ndamp=35,noincfock,novara
 cc,vshift=500,xqc)
 ----------------------------------------------------------------------
 1/38=1,172=1/1;
 2/12=2,17=6,18=5,40=1/2;
 3/5=1,6=6,11=2,25=1,30=1,74=-71,116=2,119=781000000,120=781000000,130=219000000,131=219000000/1,2,3;
 4//1;
 5/5=100002,6=6,8=3,10=500,13=1,18=-1,22=13,38=1,93=35/2,8;
 6/7=2,8=2,9=2,10=2,28=1/1;
 99/5=1,9=1/99;
 Leave Link    1 at Thu Mar  5 13:02:27 2020, MaxMem=  6710886400 cpu:              17.8 elap:               1.2
 (Enter /opt/ohpc/pub/libs/gaussian/g16-A.03/sandybridge/g16/l101.exe)
 -----
 H6 C5
 -----
 Symbolic Z-matrix:
 Charge =  0 Multiplicity = 1
 C                     0.        0.8788   -0.93154 
 C                     0.        1.12816   0.42346 
 C                     0.        0.        1.24088 
 C                     0.       -1.12816   0.42346 
 C                     0.       -0.8788   -0.93154 
 H                     0.        0.       -1.73227 
 H                     0.        1.6083   -1.73405 
 H                     0.        2.15663   0.76567 
 H                     0.        0.        2.32078 
 H                     0.       -2.15663   0.76567 
 H                     0.       -1.6083   -1.73405 
 
 ITRead=  0  0  0  0  0  0  0  0  0  0  0
 MicOpt= -1 -1 -1 -1 -1 -1 -1 -1 -1 -1 -1
 NAtoms=     11 NQM=       11 NQMF=       0 NMMI=      0 NMMIF=      0
                NMic=       0 NMicF=      0.
                    Isotopes and Nuclear Properties:
 (Nuclear quadrupole moments (NQMom) in fm**2, nuclear magnetic moments (NMagM)
  in nuclear magnetons)

  Atom         1           2           3           4           5           6           7           8           9          10
 IAtWgt=          12          12          12          12          12           1           1           1           1           1
 AtmWgt=  12.0000000  12.0000000  12.0000000  12.0000000  12.0000000   1.0078250   1.0078250   1.0078250   1.0078250   1.0078250
 NucSpn=           0           0           0           0           0           1           1           1           1           1
 AtZEff=  -0.0000000  -0.0000000  -0.0000000  -0.0000000  -0.0000000  -0.0000000  -0.0000000  -0.0000000  -0.0000000  -0.0000000
 NQMom=    0.0000000   0.0000000   0.0000000   0.0000000   0.0000000   0.0000000   0.0000000   0.0000000   0.0000000   0.0000000
 NMagM=    0.0000000   0.0000000   0.0000000   0.0000000   0.0000000   2.7928460   2.7928460   2.7928460   2.7928460   2.7928460
 AtZNuc=   6.0000000   6.0000000   6.0000000   6.0000000   6.0000000   1.0000000   1.0000000   1.0000000   1.0000000   1.0000000

  Atom        11
 IAtWgt=           1
 AtmWgt=   1.0078250
 NucSpn=           1
 AtZEff=  -0.0000000
 NQMom=    0.0000000
 NMagM=    2.7928460
 AtZNuc=   1.0000000
 Leave Link  101 at Thu Mar  5 13:02:28 2020, MaxMem=  6710886400 cpu:               3.4 elap:               0.2
 (Enter /opt/ohpc/pub/libs/gaussian/g16-A.03/sandybridge/g16/l202.exe)
                          Input orientation:                          
 ---------------------------------------------------------------------
 Center     Atomic      Atomic             Coordinates (Angstroms)
 Number     Number       Type             X           Y           Z
 ---------------------------------------------------------------------
      1          6           0        0.000000    0.878804   -0.931542
      2          6           0        0.000000    1.128157    0.423457
      3          6           0        0.000000    0.000000    1.240879
      4          6           0        0.000000   -1.128157    0.423457
      5          6           0        0.000000   -0.878804   -0.931542
      6          1           0        0.000000    0.000000   -1.732269
      7          1           0        0.000000    1.608300   -1.734053
      8          1           0        0.000000    2.156626    0.765670
      9          1           0        0.000000    0.000000    2.320778
     10          1           0        0.000000   -2.156626    0.765670
     11          1           0        0.000000   -1.608300   -1.734053
 ---------------------------------------------------------------------
                    Distance matrix (angstroms):
                    1          2          3          4          5
     1  C    0.000000
     2  C    1.377752   0.000000
     3  C    2.343440   1.393168   0.000000
     4  C    2.421552   2.256314   1.393168   0.000000
     5  C    1.757608   2.421552   2.343440   1.377752   0.000000
     6  H    1.188890   2.433083   2.973148   2.433083   1.188890
     7  H    1.084522   2.210291   3.381841   3.484687   2.613371
     8  H    2.124466   1.083909   2.208361   3.302561   3.477695
     9  H    3.368959   2.207389   1.079899   2.207389   3.368959
    10  H    3.477695   3.302561   2.208361   1.083909   2.124466
    11  H    2.613371   3.484687   3.381841   2.210291   1.084522
                    6          7          8          9         10
     6  H    0.000000
     7  H    1.608301   0.000000
     8  H    3.300111   2.559155   0.000000
     9  H    4.053047   4.362142   2.658834   0.000000
    10  H    3.300111   4.519213   4.313252   2.658834   0.000000
    11  H    1.608301   3.216600   4.519213   4.362142   2.559155
                   11
    11  H    0.000000
 Stoichiometry    C5H6
 Framework group  C2V[C2(HCH),SGV(C4H4)]
 Deg. of freedom    10
 Full point group                 C2V     NOp   4
 Largest Abelian subgroup         C2V     NOp   4
 Largest concise Abelian subgroup C2      NOp   2
                         Standard orientation:                         
 ---------------------------------------------------------------------
 Center     Atomic      Atomic             Coordinates (Angstroms)
 Number     Number       Type             X           Y           Z
 ---------------------------------------------------------------------
      1          6           0        0.000000    0.878804   -0.931542
      2          6           0        0.000000    1.128157    0.423457
      3          6           0        0.000000   -0.000000    1.240879
      4          6           0       -0.000000   -1.128157    0.423457
      5          6           0       -0.000000   -0.878804   -0.931542
      6          1           0       -0.000000    0.000000   -1.732269
      7          1           0        0.000000    1.608300   -1.734053
      8          1           0        0.000000    2.156626    0.765670
      9          1           0        0.000000   -0.000000    2.320778
     10          1           0       -0.000000   -2.156626    0.765670
     11          1           0       -0.000000   -1.608300   -1.734053
 ---------------------------------------------------------------------
 Rotational constants (GHZ):           8.5259551           7.9375455           4.1106177
 Leave Link  202 at Thu Mar  5 13:02:28 2020, MaxMem=  6710886400 cpu:               0.5 elap:               0.0
 (Enter /opt/ohpc/pub/libs/gaussian/g16-A.03/sandybridge/g16/l301.exe)
 Standard basis: 6-31G (6D, 7F)
 Ernie: Thresh=  0.10000D-02 Tol=  0.10000D-05 Strict=F.
 There are    27 symmetry adapted cartesian basis functions of A1  symmetry.
 There are     4 symmetry adapted cartesian basis functions of A2  symmetry.
 There are     6 symmetry adapted cartesian basis functions of B1  symmetry.
 There are    20 symmetry adapted cartesian basis functions of B2  symmetry.
 There are    27 symmetry adapted basis functions of A1  symmetry.
 There are     4 symmetry adapted basis functions of A2  symmetry.
 There are     6 symmetry adapted basis functions of B1  symmetry.
 There are    20 symmetry adapted basis functions of B2  symmetry.
    57 basis functions,   134 primitive gaussians,    57 cartesian basis functions
    18 alpha electrons       18 beta electrons
       nuclear repulsion energy       156.0127424860 Hartrees.
 IExCor=33909 DFT=T Ex+Corr=LC-wHPBE ExCW=0 ScaHFX=  1.000000
 ScaDFX=  1.000000  1.000000  1.000000  1.000000 ScalE2=  1.000000  1.000000
 IRadAn=      5 IRanWt=     -1 IRanGd=            0 ICorTp=0 IEmpDi=  4
 HFx  wShort=  0.000000 wLong=  0.400000 cFull=  0.000000 cShort=  0.000000 cLong=  0.781000
 DFx  wShort=  0.000000 wLong=  0.400000 cFull=  0.000000 cShort=  1.000000 cLong=  0.781000
 NAtoms=   11 NActive=   11 NUniq=    7 SFac= 2.47D+00 NAtFMM=   60 NAOKFM=F Big=F
 Integral buffers will be    131072 words long.
 Raffenetti 2 integral format.
 Two-electron integral symmetry is turned on.
 Leave Link  301 at Thu Mar  5 13:02:28 2020, MaxMem=  6710886400 cpu:               0.9 elap:               0.1
 (Enter /opt/ohpc/pub/libs/gaussian/g16-A.03/sandybridge/g16/l302.exe)
 NPDir=0 NMtPBC=     1 NCelOv=     1 NCel=       1 NClECP=     1 NCelD=      1
         NCelK=      1 NCelE2=     1 NClLst=     1 CellRange=     0.0.
 One-electron integrals computed using PRISM.
 One-electron integral symmetry used in STVInt
 NBasis=    57 RedAO= T EigKep=  1.84D-03  NBF=    27     4     6    20
 NBsUse=    57 1.00D-06 EigRej= -1.00D+00 NBFU=    27     4     6    20
 Precomputing XC quadrature grid using
 IXCGrd= 4 IRadAn=           5 IRanWt=          -1 IRanGd=           0 AccXCQ= 0.00D+00.
 Generated NRdTot=       0 NPtTot=           0 NUsed=           0 NTot=          32
 NSgBfM=    57    57    57    57    57 MxSgAt=    11 MxSgA2=    11.
 Leave Link  302 at Thu Mar  5 13:02:28 2020, MaxMem=  6710886400 cpu:               1.9 elap:               0.1
 (Enter /opt/ohpc/pub/libs/gaussian/g16-A.03/sandybridge/g16/l303.exe)
 DipDrv:  MaxL=1.
 Leave Link  303 at Thu Mar  5 13:02:28 2020, MaxMem=  6710886400 cpu:               0.4 elap:               0.0
 (Enter /opt/ohpc/pub/libs/gaussian/g16-A.03/sandybridge/g16/l401.exe)
 ExpMin= 1.61D-01 ExpMax= 3.05D+03 ExpMxC= 4.57D+02 IAcc=3 IRadAn=         5 AccDes= 0.00D+00
 Harris functional with IExCor=33909 and IRadAn=       5 diagonalized for initial guess.
 HarFok:  IExCor=33909 AccDes= 0.00D+00 IRadAn=         5 IDoV= 1 UseB2=F ITyADJ=14
 ICtDFT=  3500011 ScaDFX=  1.000000  1.000000  1.000000  1.000000
 FoFCou: FMM=F IPFlag=           0 FMFlag=      100000 FMFlg1=           0
         NFxFlg=           0 DoJE=T BraDBF=F KetDBF=T FulRan=T
         wScrn=  0.000000 ICntrl=       500 IOpCl=  0 I1Cent=   200000004 NGrid=           0
         NMat0=    1 NMatS0=      1 NMatT0=    0 NMatD0=    1 NMtDS0=    0 NMtDT0=    0
 Petite list used in FoFCou.
 Harris En= -192.241695593472    
 JPrj=0 DoOrth=F DoCkMO=F.
 Initial guess orbital symmetries:
 Alpha Orbitals:
       Occupied  (A1) (B2) (A1) (B2) (A1) (A1) (A1) (B2) (A1) (B2)
                 (A1) (B2) (A1) (B2) (A1) (B1) (A2) (B1)
       Virtual   (A2) (B2) (B1) (A1) (A1) (B2) (A1) (B2) (A1) (B2)
                 (A1) (B2) (A1) (B2) (B1) (A1) (A2) (B1) (B2) (A1)
                 (A1) (A2) (B1) (B2) (B2) (A1) (B2) (A1) (A1) (B2)
                 (A1) (A1) (A1) (B2) (A1) (B2) (A1) (A1) (B2)
 Beta  Orbitals:
       Occupied  (A1) (B2) (A1) (B2) (A1) (A1) (A1) (B2) (A1) (B2)
                 (A1) (B2) (A1) (B2) (A1) (B1) (A2) (B1)
       Virtual   (A2) (B2) (B1) (A1) (A1) (B2) (A1) (B2) (A1) (B2)
                 (A1) (B2) (A1) (B2) (B1) (A1) (A2) (B1) (B2) (A1)
                 (A1) (A2) (B1) (B2) (B2) (A1) (B2) (A1) (A1) (B2)
                 (A1) (A1) (A1) (B2) (A1) (B2) (A1) (A1) (B2)
 The electronic state of the initial guess is 1-A1.
 Initial guess <Sx>= 0.0000 <Sy>= 0.0000 <Sz>= 0.0000 <S**2>=-0.0000 S=-0.0000
 Leave Link  401 at Thu Mar  5 13:02:28 2020, MaxMem=  6710886400 cpu:               3.1 elap:               0.2
 (Enter /opt/ohpc/pub/libs/gaussian/g16-A.03/sandybridge/g16/l502.exe)
 Keep R1 and R2 ints in memory in symmetry-blocked form, NReq=16815681.
 FoFCou: FMM=F IPFlag=           0 FMFlag=           0 FMFlg1=           0
         NFxFlg=           0 DoJE=F BraDBF=F KetDBF=F FulRan=T
         wScrn=  0.000000 ICntrl=       600 IOpCl=  0 I1Cent=           0 NGrid=           0
         NMat0=    1 NMatS0=   1653 NMatT0=    0 NMatD0=    1 NMtDS0=    0 NMtDT0=    0
 Petite list used in FoFCou.
 UHF open shell SCF:
 Using DIIS extrapolation, IDIIS=    10.
 NGot=  6710886400 LenX=  6710059561 LenY=  6710055871
 Requested convergence on RMS density matrix=1.00D-06 within  32 cycles.
 Requested convergence on MAX density matrix=1.00D-04.
 Requested convergence on             energy=1.00D-04.
 Virtual orbitals will be shifted by   0.500 hartree.
 No special actions if energy rises.
 Dynamic level shift is on during FON iterations.

 Cycle   1  Pass 1  IDiag  1:
 E= -197.577456092882    
 DIIS: error= 4.36D-02 at cycle   1 NSaved=   1.
 NSaved= 1 IEnMin= 1 EnMin= -197.577456092882     IErMin= 1 ErrMin= 4.36D-02
 ErrMax= 4.36D-02  0.00D+00 EMaxC= 1.00D+00 BMatC= 3.46D-01 BMatP= 3.46D-01
 IDIUse=1 WtCom= 1.00D+00 WtEn= 0.00D+00
 Coeff-Com:  0.100D+01
 Coeff:      0.100D+01
 Gap=     0.319 Goal=   None    Shift=    0.500
 T= 1720. Gap= 0.776 NK=0 IS=   19 IE=   57 IFin=   18
          NO(<0.9)=   0  NV(>0.1)=   0     18.00e < EF      0.00e >EF  Err=0.0D+00
 Gap=     0.319 Goal=   None    Shift=    0.500
 T= 1720. Gap= 0.776 NK=0 IS=   19 IE=   57 IFin=   18
          NO(<0.9)=   0  NV(>0.1)=   0     18.00e < EF      0.00e >EF  Err=0.0D+00
 GapD=    0.319 DampG=1.000 DampE=0.500 DampFc=0.5000 IDamp=-1.
 Damping current iteration by 5.00D-01
 RMSDP=7.15D-03 MaxDP=6.25D-02              OVMax= 8.22D-02

 Cycle   2  Pass 1  IDiag  1:
 E= -197.641311345288     Delta-E=       -0.063855252406 Rises=F Damp=T
 DIIS: error= 1.93D-02 at cycle   2 NSaved=   2.
 NSaved= 2 IEnMin= 2 EnMin= -197.641311345288     IErMin= 2 ErrMin= 1.93D-02
 ErrMax= 1.93D-02  0.00D+00 EMaxC= 1.00D+00 BMatC= 6.60D-02 BMatP= 3.46D-01
 IDIUse=1 WtCom= 1.00D+00 WtEn= 0.00D+00
 Coeff-Com: -0.697D+00 0.170D+01
 Coeff:     -0.697D+00 0.170D+01
 Gap=     0.376 Goal=   None    Shift=    0.500
 T= 1597. Gap= 0.863 NK=0 IS=   19 IE=   57 IFin=   18
          NO(<0.9)=   0  NV(>0.1)=   0     18.00e < EF      0.00e >EF  Err=0.0D+00
 Gap=     0.376 Goal=   None    Shift=    0.500
 T= 1597. Gap= 0.863 NK=0 IS=   19 IE=   57 IFin=   18
          NO(<0.9)=   0  NV(>0.1)=   0     18.00e < EF      0.00e >EF  Err=0.0D+00
 GapD=    0.376 DampG=1.000 DampE=0.500 DampFc=0.5000 IDamp=-1.
 Damping current iteration by 5.00D-01
 RMSDP=3.82D-03 MaxDP=2.51D-02 DE=-6.39D-02 OVMax= 9.17D-03

 Cycle   3  Pass 1  IDiag  1:
 E= -197.663980885345     Delta-E=       -0.022669540057 Rises=F Damp=T
 DIIS: error= 8.82D-03 at cycle   3 NSaved=   3.
 NSaved= 3 IEnMin= 3 EnMin= -197.663980885345     IErMin= 3 ErrMin= 8.82D-03
 ErrMax= 8.82D-03  0.00D+00 EMaxC= 1.00D+00 BMatC= 1.37D-02 BMatP= 6.60D-02
 IDIUse=1 WtCom= 1.00D+00 WtEn= 0.00D+00
 Coeff-Com:  0.141D+00-0.126D+01 0.212D+01
 Coeff:      0.141D+00-0.126D+01 0.212D+01
 Gap=     0.362 Goal=   None    Shift=    0.500
 T= 1359. Gap= 0.862 NK=0 IS=   19 IE=   57 IFin=   18
          NO(<0.9)=   0  NV(>0.1)=   0     18.00e < EF      0.00e >EF  Err=0.0D+00
 Gap=     0.362 Goal=   None    Shift=    0.500
 T= 1359. Gap= 0.862 NK=0 IS=   19 IE=   57 IFin=   18
          NO(<0.9)=   0  NV(>0.1)=   0     18.00e < EF      0.00e >EF  Err=0.0D+00
 GapD=    0.362 DampG=1.000 DampE=1.000 DampFc=1.0000 IDamp=-1.
 RMSDP=1.97D-03 MaxDP=1.31D-02 DE=-2.27D-02 OVMax= 7.25D-03

 Cycle   4  Pass 1  IDiag  1:
 E= -197.682550528998     Delta-E=       -0.018569643654 Rises=F Damp=F
 DIIS: error= 1.68D-03 at cycle   4 NSaved=   4.
 NSaved= 4 IEnMin= 4 EnMin= -197.682550528998     IErMin= 4 ErrMin= 1.68D-03
 ErrMax= 1.68D-03  0.00D+00 EMaxC= 1.00D+00 BMatC= 4.08D-04 BMatP= 1.37D-02
 IDIUse=1 WtCom= 1.00D+00 WtEn= 0.00D+00
 Coeff-Com:  0.113D+00-0.863D-01-0.276D+00 0.125D+01
 Coeff:      0.113D+00-0.863D-01-0.276D+00 0.125D+01
 Gap=     0.363 Goal=   None    Shift=    0.500
 T=  833. Gap= 0.863 NK=0 IS=   19 IE=   57 IFin=   18
          NO(<0.9)=   0  NV(>0.1)=   0     18.00e < EF      0.00e >EF  Err=0.0D+00
 Gap=     0.363 Goal=   None    Shift=    0.500
 T=  833. Gap= 0.863 NK=0 IS=   19 IE=   57 IFin=   18
          NO(<0.9)=   0  NV(>0.1)=   0     18.00e < EF      0.00e >EF  Err=0.0D+00
 GapD=    0.363 DampG=1.000 DampE=1.000 DampFc=1.0000 IDamp=-1.
 RMSDP=3.60D-04 MaxDP=2.85D-03 DE=-1.86D-02 OVMax= 3.26D-03

 Cycle   5  Pass 1  IDiag  1:
 E= -197.682728498065     Delta-E=       -0.000177969066 Rises=F Damp=F
 DIIS: error= 9.07D-04 at cycle   5 NSaved=   5.
 NSaved= 5 IEnMin= 5 EnMin= -197.682728498065     IErMin= 5 ErrMin= 9.07D-04
 ErrMax= 9.07D-04  0.00D+00 EMaxC= 1.00D+00 BMatC= 6.50D-05 BMatP= 4.08D-04
 IDIUse=1 WtCom= 1.00D+00 WtEn= 0.00D+00
 Coeff-Com: -0.458D-01 0.223D+00-0.289D+00-0.688D+00 0.180D+01
 Coeff:     -0.458D-01 0.223D+00-0.289D+00-0.688D+00 0.180D+01
 Gap=     0.363 Goal=   None    Shift=    0.500
 Gap=     0.363 Goal=   None    Shift=    0.500
 RMSDP=2.09D-04 MaxDP=1.68D-03 DE=-1.78D-04 OVMax= 2.90D-03

 Cycle   6  Pass 1  IDiag  1:
 E= -197.682778224808     Delta-E=       -0.000049726744 Rises=F Damp=F
 DIIS: error= 6.26D-04 at cycle   6 NSaved=   6.
 NSaved= 6 IEnMin= 6 EnMin= -197.682778224808     IErMin= 6 ErrMin= 6.26D-04
 ErrMax= 6.26D-04  0.00D+00 EMaxC= 1.00D+00 BMatC= 1.43D-05 BMatP= 6.50D-05
 IDIUse=1 WtCom= 1.00D+00 WtEn= 0.00D+00
 Coeff-Com:  0.109D-02-0.549D-01 0.102D+00 0.238D+00-0.178D+01 0.249D+01
 Coeff:      0.109D-02-0.549D-01 0.102D+00 0.238D+00-0.178D+01 0.249D+01
 Gap=     0.363 Goal=   None    Shift=    0.500
 Gap=     0.363 Goal=   None    Shift=    0.500
 RMSDP=1.06D-04 MaxDP=8.15D-04 DE=-4.97D-05 OVMax= 1.86D-03

 Cycle   7  Pass 1  IDiag  1:
 E= -197.682792613629     Delta-E=       -0.000014388821 Rises=F Damp=F
 DIIS: error= 4.03D-04 at cycle   7 NSaved=   7.
 NSaved= 7 IEnMin= 7 EnMin= -197.682792613629     IErMin= 7 ErrMin= 4.03D-04
 ErrMax= 4.03D-04  0.00D+00 EMaxC= 1.00D+00 BMatC= 4.05D-06 BMatP= 1.43D-05
 IDIUse=1 WtCom= 1.00D+00 WtEn= 0.00D+00
 Coeff-Com: -0.182D-02 0.607D-01-0.116D+00 0.724D-01 0.655D+00-0.268D+01
 Coeff-Com:  0.301D+01
 Coeff:     -0.182D-02 0.607D-01-0.116D+00 0.724D-01 0.655D+00-0.268D+01
 Coeff:      0.301D+01
 Gap=     0.363 Goal=   None    Shift=    0.500
 Gap=     0.363 Goal=   None    Shift=    0.500
 RMSDP=4.92D-05 MaxDP=3.84D-04 DE=-1.44D-05 OVMax= 1.11D-03

 Cycle   8  Pass 1  IDiag  1:
 E= -197.682796760542     Delta-E=       -0.000004146913 Rises=F Damp=F
 DIIS: error= 2.55D-04 at cycle   8 NSaved=   8.
 NSaved= 8 IEnMin= 8 EnMin= -197.682796760542     IErMin= 8 ErrMin= 2.55D-04
 ErrMax= 2.55D-04  0.00D+00 EMaxC= 1.00D+00 BMatC= 1.46D-06 BMatP= 4.05D-06
 IDIUse=1 WtCom= 1.00D+00 WtEn= 0.00D+00
 Coeff-Com: -0.304D-02 0.521D-01-0.940D-01 0.302D-01 0.535D+00-0.155D+01
 Coeff-Com:  0.674D+00 0.136D+01
 Coeff:     -0.304D-02 0.521D-01-0.940D-01 0.302D-01 0.535D+00-0.155D+01
 Coeff:      0.674D+00 0.136D+01
 Gap=     0.363 Goal=   None    Shift=    0.500
 Gap=     0.363 Goal=   None    Shift=    0.500
 RMSDP=2.26D-05 MaxDP=1.70D-04 DE=-4.15D-06 OVMax= 6.38D-04

 Cycle   9  Pass 1  IDiag  1:
 E= -197.682797976687     Delta-E=       -0.000001216145 Rises=F Damp=F
 DIIS: error= 1.46D-04 at cycle   9 NSaved=   9.
 NSaved= 9 IEnMin= 9 EnMin= -197.682797976687     IErMin= 9 ErrMin= 1.46D-04
 ErrMax= 1.46D-04  0.00D+00 EMaxC= 1.00D+00 BMatC= 4.89D-07 BMatP= 1.46D-06
 IDIUse=1 WtCom= 1.00D+00 WtEn= 0.00D+00
 Coeff-Com: -0.132D-02 0.795D-02-0.114D-01 0.345D-02-0.120D-01 0.325D+00
 Coeff-Com: -0.891D+00-0.327D+00 0.191D+01
 Coeff:     -0.132D-02 0.795D-02-0.114D-01 0.345D-02-0.120D-01 0.325D+00
 Coeff:     -0.891D+00-0.327D+00 0.191D+01
 Gap=     0.363 Goal=   None    Shift=    0.500
 Gap=     0.363 Goal=   None    Shift=    0.500
 RMSDP=1.13D-05 MaxDP=9.73D-05 DE=-1.22D-06 OVMax= 3.55D-04

 Cycle  10  Pass 1  IDiag  1:
 E= -197.682798336342     Delta-E=       -0.000000359655 Rises=F Damp=F
 DIIS: error= 8.73D-05 at cycle  10 NSaved=  10.
 NSaved=10 IEnMin=10 EnMin= -197.682798336342     IErMin=10 ErrMin= 8.73D-05
 ErrMax= 8.73D-05  0.00D+00 EMaxC= 1.00D+00 BMatC= 1.79D-07 BMatP= 4.89D-07
 IDIUse=1 WtCom= 1.00D+00 WtEn= 0.00D+00
 Coeff-Com:  0.846D-03-0.550D-02 0.764D-02 0.143D-01-0.854D-01 0.723D-01
 Coeff-Com:  0.434D+00-0.909D+00-0.941D+00 0.241D+01
 Coeff:      0.846D-03-0.550D-02 0.764D-02 0.143D-01-0.854D-01 0.723D-01
 Coeff:      0.434D+00-0.909D+00-0.941D+00 0.241D+01
 Gap=     0.363 Goal=   None    Shift=    0.500
 Gap=     0.363 Goal=   None    Shift=    0.500
 RMSDP=5.73D-06 MaxDP=5.12D-05 DE=-3.60D-07 OVMax= 2.01D-04

 Cycle  11  Pass 1  IDiag  1:
 E= -197.682798447383     Delta-E=       -0.000000111041 Rises=F Damp=F
 DIIS: error= 5.09D-05 at cycle  11 NSaved=  11.
 NSaved=11 IEnMin=11 EnMin= -197.682798447383     IErMin=11 ErrMin= 5.09D-05
 ErrMax= 5.09D-05  0.00D+00 EMaxC= 1.00D+00 BMatC= 6.44D-08 BMatP= 1.79D-07
 IDIUse=1 WtCom= 1.00D+00 WtEn= 0.00D+00
 Coeff-Com: -0.159D-03 0.177D-02-0.302D-02 0.138D-02 0.116D-01-0.179D-01
 Coeff-Com:  0.264D-02-0.132D-01 0.359D+00-0.214D+01 0.280D+01
 Coeff:     -0.159D-03 0.177D-02-0.302D-02 0.138D-02 0.116D-01-0.179D-01
 Coeff:      0.264D-02-0.132D-01 0.359D+00-0.214D+01 0.280D+01
 Gap=     0.363 Goal=   None    Shift=    0.500
 Gap=     0.363 Goal=   None    Shift=    0.500
 RMSDP=2.92D-06 MaxDP=2.72D-05 DE=-1.11D-07 OVMax= 1.14D-04

 Cycle  12  Pass 1  IDiag  1:
 E= -197.682798482498     Delta-E=       -0.000000035116 Rises=F Damp=F
 DIIS: error= 2.91D-05 at cycle  12 NSaved=  12.
 NSaved=12 IEnMin=12 EnMin= -197.682798482498     IErMin=12 ErrMin= 2.91D-05
 ErrMax= 2.91D-05  0.00D+00 EMaxC= 1.00D+00 BMatC= 2.20D-08 BMatP= 6.44D-08
 IDIUse=1 WtCom= 1.00D+00 WtEn= 0.00D+00
 Coeff-Com: -0.295D-04 0.120D-03-0.138D-03 0.110D-02-0.738D-02 0.183D-01
 Coeff-Com: -0.161D-01-0.248D-01 0.535D-01 0.681D+00-0.311D+01 0.340D+01
 Coeff:     -0.295D-04 0.120D-03-0.138D-03 0.110D-02-0.738D-02 0.183D-01
 Coeff:     -0.161D-01-0.248D-01 0.535D-01 0.681D+00-0.311D+01 0.340D+01
 Gap=     0.363 Goal=   None    Shift=    0.500
 Gap=     0.363 Goal=   None    Shift=    0.500
 RMSDP=1.54D-06 MaxDP=1.47D-05 DE=-3.51D-08 OVMax= 6.32D-05

 Cycle  13  Pass 1  IDiag  1:
 E= -197.682798493393     Delta-E=       -0.000000010895 Rises=F Damp=F
 DIIS: error= 1.65D-05 at cycle  13 NSaved=  13.
 NSaved=13 IEnMin=13 EnMin= -197.682798493393     IErMin=13 ErrMin= 1.65D-05
 ErrMax= 1.65D-05  0.00D+00 EMaxC= 1.00D+00 BMatC= 7.46D-09 BMatP= 2.20D-08
 IDIUse=1 WtCom= 1.00D+00 WtEn= 0.00D+00
 Coeff-Com:  0.942D-04-0.632D-03 0.893D-03 0.144D-02-0.973D-02 0.138D-01
 Coeff-Com:  0.289D-01-0.728D-01-0.523D-01 0.460D-01 0.101D+01-0.346D+01
 Coeff-Com:  0.350D+01
 Coeff:      0.942D-04-0.632D-03 0.893D-03 0.144D-02-0.973D-02 0.138D-01
 Coeff:      0.289D-01-0.728D-01-0.523D-01 0.460D-01 0.101D+01-0.346D+01
 Coeff:      0.350D+01
 Gap=     0.363 Goal=   None    Shift=    0.500
 Gap=     0.363 Goal=   None    Shift=    0.500
 RMSDP=8.22D-07 MaxDP=8.17D-06 DE=-1.09D-08 OVMax= 3.50D-05

 SCF Done:  E(ULC-wHPBE) =  -197.682798493     A.U. after   13 cycles
            NFock= 13  Conv=0.82D-06     -V/T= 2.0238
 <Sx>= 0.0000 <Sy>= 0.0000 <Sz>= 0.0000 <S**2>=-0.0000 S=-0.0000
 <L.S>= 0.000000000000E+00
 KE= 1.930824308256D+02 PE=-7.618583946199D+02 EE= 2.150804228148D+02
 Annihilation of the first spin contaminant:
 S**2 before annihilation     0.0000,   after    -0.0000
 Leave Link  502 at Thu Mar  5 13:02:30 2020, MaxMem=  6710886400 cpu:              22.2 elap:               1.7
 (Enter /opt/ohpc/pub/libs/gaussian/g16-A.03/sandybridge/g16/l508.exe)
 QCSCF skips out because SCF is already converged.
 Leave Link  508 at Thu Mar  5 13:02:30 2020, MaxMem=  6710886400 cpu:               0.3 elap:               0.0
 (Enter /opt/ohpc/pub/libs/gaussian/g16-A.03/sandybridge/g16/l601.exe)
 Copying SCF densities to generalized density rwf, IOpCl= 1 IROHF=0.

 **********************************************************************

            Population analysis using the SCF density.

 **********************************************************************

 Orbital symmetries:
 Alpha Orbitals:
       Occupied  (B2) (A1) (B2) (A1) (A1) (A1) (A1) (B2) (A1) (B2)
                 (A1) (B2) (A1) (A1) (B2) (B1) (A2) (B1)
       Virtual   (A2) (B2) (A1) (B1) (A1) (B2) (A1) (B2) (A1) (A1)
                 (B2) (A1) (B2) (B2) (B1) (A2) (A1) (B1) (A1) (B2)
                 (A1) (A2) (B1) (B2) (B2) (A1) (B2) (A1) (A1) (B2)
                 (A1) (A1) (A1) (B2) (A1) (B2) (A1) (A1) (B2)
 Beta  Orbitals:
       Occupied  (B2) (A1) (B2) (A1) (A1) (A1) (A1) (B2) (A1) (B2)
                 (A1) (B2) (A1) (A1) (B2) (B1) (A2) (B1)
       Virtual   (A2) (B2) (A1) (B1) (A1) (B2) (A1) (B2) (A1) (A1)
                 (B2) (A1) (B2) (B2) (B1) (A2) (A1) (B1) (A1) (B2)
                 (A1) (A2) (B1) (B2) (B2) (A1) (B2) (A1) (A1) (B2)
                 (A1) (A1) (A1) (B2) (A1) (B2) (A1) (A1) (B2)
 The electronic state is 1-A1.
 Alpha  occ. eigenvalues --  -10.20276 -10.20274 -10.16680 -10.16680 -10.13093
 Alpha  occ. eigenvalues --   -1.06792  -0.93908  -0.90939  -0.76375  -0.75054
 Alpha  occ. eigenvalues --   -0.70826  -0.60117  -0.59324  -0.56264  -0.54932
 Alpha  occ. eigenvalues --   -0.53924  -0.40001  -0.35708
 Alpha virt. eigenvalues --    0.00571   0.01535   0.06009   0.08086   0.10203
 Alpha virt. eigenvalues --    0.14957   0.16667   0.18502   0.19342   0.31698
 Alpha virt. eigenvalues --    0.32992   0.43017   0.43571   0.52545   0.54148
 Alpha virt. eigenvalues --    0.60671   0.61458   0.61580   0.63390   0.64808
 Alpha virt. eigenvalues --    0.66054   0.67188   0.69740   0.76903   0.82826
 Alpha virt. eigenvalues --    0.85665   0.87217   0.87383   0.89236   0.96152
 Alpha virt. eigenvalues --    0.96351   0.99502   1.03999   1.10481   1.18510
 Alpha virt. eigenvalues --    1.20159   1.27085   1.48138   1.49209
  Beta  occ. eigenvalues --  -10.20276 -10.20274 -10.16680 -10.16680 -10.13093
  Beta  occ. eigenvalues --   -1.06792  -0.93908  -0.90939  -0.76375  -0.75054
  Beta  occ. eigenvalues --   -0.70826  -0.60117  -0.59324  -0.56264  -0.54932
  Beta  occ. eigenvalues --   -0.53924  -0.40001  -0.35708
  Beta virt. eigenvalues --    0.00571   0.01535   0.06009   0.08086   0.10203
  Beta virt. eigenvalues --    0.14957   0.16667   0.18502   0.19342   0.31698
  Beta virt. eigenvalues --    0.32992   0.43017   0.43571   0.52545   0.54148
  Beta virt. eigenvalues --    0.60671   0.61458   0.61580   0.63390   0.64808
  Beta virt. eigenvalues --    0.66054   0.67188   0.69740   0.76903   0.82826
  Beta virt. eigenvalues --    0.85665   0.87217   0.87383   0.89236   0.96152
  Beta virt. eigenvalues --    0.96351   0.99502   1.03999   1.10481   1.18510
  Beta virt. eigenvalues --    1.20159   1.27085   1.48138   1.49209
          Condensed to atoms (all electrons):
               1          2          3          4          5          6
     1  C    5.450235   0.472640  -0.055932  -0.127680   0.254414   0.167130
     2  C    0.472640   4.911762   0.552179  -0.017350  -0.127680  -0.019195
     3  C   -0.055932   0.552179   4.854602   0.552179  -0.055932   0.005078
     4  C   -0.127680  -0.017350   0.552179   4.911762   0.472640  -0.019195
     5  C    0.254414  -0.127680  -0.055932   0.472640   5.450235   0.167130
     6  H    0.167130  -0.019195   0.005078  -0.019195   0.167130   0.385549
     7  H    0.346604   0.000191  -0.000245   0.003945  -0.023063  -0.012856
     8  H   -0.036454   0.365094  -0.015965   0.004293   0.001618   0.000785
     9  H    0.006142  -0.037714   0.374705  -0.037714   0.006142  -0.000087
    10  H    0.001618   0.004293  -0.015965   0.365094  -0.036454   0.000785
    11  H   -0.023063   0.003945  -0.000245   0.000191   0.346604  -0.012856
               7          8          9         10         11
     1  C    0.346604  -0.036454   0.006142   0.001618  -0.023063
     2  C    0.000191   0.365094  -0.037714   0.004293   0.003945
     3  C   -0.000245  -0.015965   0.374705  -0.015965  -0.000245
     4  C    0.003945   0.004293  -0.037714   0.365094   0.000191
     5  C   -0.023063   0.001618   0.006142  -0.036454   0.346604
     6  H   -0.012856   0.000785  -0.000087   0.000785  -0.012856
     7  H    0.453340  -0.000069  -0.000098  -0.000033   0.000783
     8  H   -0.000069   0.500140  -0.001816  -0.000152  -0.000033
     9  H   -0.000098  -0.001816   0.536108  -0.001816  -0.000098
    10  H   -0.000033  -0.000152  -0.001816   0.500140  -0.000069
    11  H    0.000783  -0.000033  -0.000098  -0.000069   0.453340
          Atomic-Atomic Spin Densities.
               1          2          3          4          5          6
     1  C   -0.000000   0.000000  -0.000000   0.000000   0.000000  -0.000000
     2  C    0.000000  -0.000000   0.000000  -0.000000   0.000000  -0.000000
     3  C   -0.000000   0.000000   0.000000   0.000000  -0.000000   0.000000
     4  C    0.000000  -0.000000   0.000000  -0.000000   0.000000  -0.000000
     5  C    0.000000   0.000000  -0.000000   0.000000  -0.000000  -0.000000
     6  H   -0.000000  -0.000000   0.000000  -0.000000  -0.000000   0.000000
     7  H   -0.000000   0.000000   0.000000  -0.000000   0.000000  -0.000000
     8  H    0.000000   0.000000   0.000000  -0.000000  -0.000000   0.000000
     9  H   -0.000000   0.000000  -0.000000   0.000000  -0.000000  -0.000000
    10  H   -0.000000  -0.000000   0.000000   0.000000   0.000000   0.000000
    11  H    0.000000  -0.000000   0.000000   0.000000  -0.000000  -0.000000
               7          8          9         10         11
     1  C   -0.000000   0.000000  -0.000000  -0.000000   0.000000
     2  C    0.000000   0.000000   0.000000  -0.000000  -0.000000
     3  C    0.000000   0.000000  -0.000000   0.000000   0.000000
     4  C   -0.000000  -0.000000   0.000000   0.000000   0.000000
     5  C    0.000000  -0.000000  -0.000000   0.000000  -0.000000
     6  H   -0.000000   0.000000  -0.000000   0.000000  -0.000000
     7  H   -0.000000  -0.000000  -0.000000  -0.000000   0.000000
     8  H   -0.000000   0.000000   0.000000   0.000000  -0.000000
     9  H   -0.000000   0.000000  -0.000000   0.000000  -0.000000
    10  H   -0.000000   0.000000   0.000000   0.000000  -0.000000
    11  H    0.000000  -0.000000  -0.000000  -0.000000  -0.000000
 Mulliken charges and spin densities:
               1          2
     1  C   -0.455655   0.000000
     2  C   -0.108164  -0.000000
     3  C   -0.194458   0.000000
     4  C   -0.108164  -0.000000
     5  C   -0.455655   0.000000
     6  H    0.337731  -0.000000
     7  H    0.231502  -0.000000
     8  H    0.182558   0.000000
     9  H    0.156245   0.000000
    10  H    0.182558   0.000000
    11  H    0.231502  -0.000000
 Sum of Mulliken charges =   0.00000   0.00000
 Mulliken charges and spin densities with hydrogens summed into heavy atoms:
               1          2
     1  C    0.113579  -0.000000
     2  C    0.074394   0.000000
     3  C   -0.038213   0.000000
     4  C    0.074394   0.000000
     5  C   -0.224153  -0.000000
 Electronic spatial extent (au):  <R**2>=            334.9053
 Charge=              0.0000 electrons
 Dipole moment (field-independent basis, Debye):
    X=             -0.0000    Y=             -0.0000    Z=             -1.9771  Tot=              1.9771
 Quadrupole moment (field-independent basis, Debye-Ang):
   XX=            -34.8870   YY=            -25.3394   ZZ=            -23.3034
   XY=              0.0000   XZ=              0.0000   YZ=             -0.0000
 Traceless Quadrupole moment (field-independent basis, Debye-Ang):
   XX=             -7.0437   YY=              2.5039   ZZ=              4.5398
   XY=              0.0000   XZ=              0.0000   YZ=             -0.0000
 Octapole moment (field-independent basis, Debye-Ang**2):
  XXX=              0.0000  YYY=              0.0000  ZZZ=             -8.8598  XYY=              0.0000
  XXY=              0.0000  XXZ=              0.8287  XZZ=              0.0000  YZZ=             -0.0000
  YYZ=             -0.9686  XYZ=             -0.0000
 Hexadecapole moment (field-independent basis, Debye-Ang**3):
 XXXX=            -36.9089 YYYY=           -180.4649 ZZZZ=           -167.5771 XXXY=             -0.0000
 XXXZ=             -0.0000 YYYX=             -0.0000 YYYZ=              0.0000 ZZZX=             -0.0000
 ZZZY=              0.0000 XXYY=            -46.2925 XXZZ=            -45.2768 YYZZ=            -57.2648
 XXYZ=             -0.0000 YYXZ=             -0.0000 ZZXY=             -0.0000
 N-N= 1.560127424860D+02 E-N=-7.618583729370D+02  KE= 1.930824308256D+02
 Symmetry A1   KE= 1.110329030672D+02
 Symmetry A2   KE= 2.450585518167D+00
 Symmetry B1   KE= 4.306767026296D+00
 Symmetry B2   KE= 7.529217521396D+01
 Symmetry A1   SP= 1.275550932985D-14
 Symmetry A2   SP= 1.309768798674D-15
 Symmetry B1   SP=-7.849692196791D-15
 Symmetry B2   SP= 3.275972179693D-14
                          Isotropic Fermi Contact Couplings
        Atom                 a.u.       MegaHertz       Gauss      10(-4) cm-1
     1  C(13)              0.00000       0.00000       0.00000       0.00000
     2  C(13)              0.00000       0.00000       0.00000       0.00000
     3  C(13)              0.00000       0.00000       0.00000       0.00000
     4  C(13)              0.00000       0.00000       0.00000       0.00000
     5  C(13)              0.00000       0.00000       0.00000       0.00000
     6  H(1)               0.00000       0.00000       0.00000       0.00000
     7  H(1)               0.00000       0.00000       0.00000       0.00000
     8  H(1)               0.00000       0.00000       0.00000       0.00000
     9  H(1)              -0.00000      -0.00000      -0.00000      -0.00000
    10  H(1)               0.00000       0.00000       0.00000       0.00000
    11  H(1)               0.00000       0.00000       0.00000       0.00000
 --------------------------------------------------------
       Center         ----  Spin Dipole Couplings  ----
                      3XX-RR        3YY-RR        3ZZ-RR
 --------------------------------------------------------
     1   Atom        0.000000      0.000000      0.000000
     2   Atom        0.000000      0.000000      0.000000
     3   Atom        0.000000      0.000000      0.000000
     4   Atom        0.000000      0.000000      0.000000
     5   Atom        0.000000      0.000000      0.000000
     6   Atom        0.000000      0.000000      0.000000
     7   Atom        0.000000      0.000000      0.000000
     8   Atom        0.000000      0.000000      0.000000
     9   Atom        0.000000      0.000000      0.000000
    10   Atom        0.000000      0.000000      0.000000
    11   Atom        0.000000      0.000000      0.000000
 --------------------------------------------------------
                        XY            XZ            YZ
 --------------------------------------------------------
     1   Atom        0.000000      0.000000      0.000000
     2   Atom        0.000000      0.000000      0.000000
     3   Atom        0.000000      0.000000      0.000000
     4   Atom        0.000000      0.000000      0.000000
     5   Atom        0.000000      0.000000      0.000000
     6   Atom        0.000000      0.000000      0.000000
     7   Atom        0.000000      0.000000      0.000000
     8   Atom        0.000000      0.000000      0.000000
     9   Atom        0.000000      0.000000      0.000000
    10   Atom        0.000000      0.000000      0.000000
    11   Atom        0.000000      0.000000      0.000000
 --------------------------------------------------------


 ---------------------------------------------------------------------------------
              Anisotropic Spin Dipole Couplings in Principal Axis System
 ---------------------------------------------------------------------------------

       Atom             a.u.   MegaHertz   Gauss  10(-4) cm-1        Axes

              Baa     0.0000     0.000     0.000     0.000  1.0000  0.0000  0.0000
     1 C(13)  Bbb     0.0000     0.000     0.000     0.000 -0.0000  1.0000  0.0000
              Bcc     0.0000     0.000     0.000     0.000  0.0000  0.0000  1.0000
 
              Baa     0.0000     0.000     0.000     0.000  1.0000  0.0000  0.0000
     2 C(13)  Bbb     0.0000     0.000     0.000     0.000 -0.0000  1.0000  0.0000
              Bcc     0.0000     0.000     0.000     0.000  0.0000  0.0000  1.0000
 
              Baa     0.0000     0.000     0.000     0.000  1.0000  0.0000  0.0000
     3 C(13)  Bbb     0.0000     0.000     0.000     0.000 -0.0000  1.0000  0.0000
              Bcc     0.0000     0.000     0.000     0.000  0.0000  0.0000  1.0000
 
              Baa     0.0000     0.000     0.000     0.000  1.0000  0.0000  0.0000
     4 C(13)  Bbb     0.0000     0.000     0.000     0.000 -0.0000  1.0000  0.0000
              Bcc     0.0000     0.000     0.000     0.000  0.0000  0.0000  1.0000
 
              Baa     0.0000     0.000     0.000     0.000  1.0000  0.0000  0.0000
     5 C(13)  Bbb     0.0000     0.000     0.000     0.000 -0.0000  1.0000  0.0000
              Bcc     0.0000     0.000     0.000     0.000  0.0000  0.0000  1.0000
 
              Baa     0.0000     0.000     0.000     0.000  1.0000  0.0000  0.0000
     6 H(1)   Bbb     0.0000     0.000     0.000     0.000 -0.0000  1.0000  0.0000
              Bcc     0.0000     0.000     0.000     0.000  0.0000  0.0000  1.0000
 
              Baa     0.0000     0.000     0.000     0.000  1.0000  0.0000  0.0000
     7 H(1)   Bbb     0.0000     0.000     0.000     0.000 -0.0000  1.0000  0.0000
              Bcc     0.0000     0.000     0.000     0.000  0.0000  0.0000  1.0000
 
              Baa     0.0000     0.000     0.000     0.000  1.0000  0.0000  0.0000
     8 H(1)   Bbb     0.0000     0.000     0.000     0.000 -0.0000  1.0000  0.0000
              Bcc     0.0000     0.000     0.000     0.000  0.0000  0.0000  1.0000
 
              Baa     0.0000     0.000     0.000     0.000  1.0000  0.0000  0.0000
     9 H(1)   Bbb     0.0000     0.000     0.000     0.000 -0.0000  1.0000  0.0000
              Bcc     0.0000     0.000     0.000     0.000  0.0000  0.0000  1.0000
 
              Baa     0.0000     0.000     0.000     0.000  1.0000  0.0000  0.0000
    10 H(1)   Bbb     0.0000     0.000     0.000     0.000 -0.0000  1.0000  0.0000
              Bcc     0.0000     0.000     0.000     0.000  0.0000  0.0000  1.0000
 
              Baa     0.0000     0.000     0.000     0.000  1.0000  0.0000  0.0000
    11 H(1)   Bbb     0.0000     0.000     0.000     0.000 -0.0000  1.0000  0.0000
              Bcc     0.0000     0.000     0.000     0.000  0.0000  0.0000  1.0000
 

 ---------------------------------------------------------------------------------

 No NMR shielding tensors so no spin-rotation constants.
 Leave Link  601 at Thu Mar  5 13:02:30 2020, MaxMem=  6710886400 cpu:               2.3 elap:               0.2
 (Enter /opt/ohpc/pub/libs/gaussian/g16-A.03/sandybridge/g16/l9999.exe)

 Test job not archived.
 1\1\GINC-CNODE212\SP\ULC-wHPBE\6-31G\C5H6\SMGO234\05-Mar-2020\0\\#P uL
 C-wHPBE/6-31G iop(3/130=0219000000, 3/131=0219000000, 3/119=0781000000
 , 3/120=0781000000) scf=(conver=6,fermi,ndamp=35,noincfock,novaracc,vs
 hift=500,xqc)\\H6 C5\\0,1\C,0,0.,0.878804,-0.931542\C,0,0.,1.128157,0.
 423457\C,0,0.,0.,1.240879\C,0,0.,-1.128157,0.423457\C,0,0.,-0.878804,-
 0.931542\H,0,0.,0.,-1.732269\H,0,0.,1.6083,-1.734053\H,0,0.,2.156626,0
 .76567\H,0,0.,0.,2.320778\H,0,0.,-2.156626,0.76567\H,0,0.,-1.6083,-1.7
 34053\\Version=EM64L-G16RevA.03\State=1-A1\HF=-197.6827985\S2=0.\S2-1=
 0.\S2A=0.\RMSD=8.223e-07\Dipole=0.,0.,-0.7778355\Quadrupole=-5.2368267
 ,1.8615849,3.3752418,0.,0.,0.\PG=C02V [C2(H1C1H1),SGV(C4H4)]\\@


 EVERYBODY NEEDS BEAUTY AS WELL AS BREAD, PLACES TO PLAY IN AND PRAY IN,
 WHERE NATURE MAY HEAL AND CHEER AND GIVE STRENGTH TO BODY AND SOUL ALIKE.

                                    -- JOHN MUIR
 Job cpu time:       0 days  0 hours  0 minutes 53.5 seconds.
 Elapsed time:       0 days  0 hours  0 minutes  4.0 seconds.
 File lengths (MBytes):  RWF=    272 Int=      0 D2E=      0 Chk=     32 Scr=     32
 Normal termination of Gaussian 16 at Thu Mar  5 13:02:30 2020.
