 Entering Gaussian System, Link 0=g16
 Input=a1b_tune_n1.gjf
 Output=a1b_tune_n1.log
 Initial command:
 /opt/ohpc/pub/libs/gaussian/g16-A.03/sandybridge/g16/l1.exe "/scratch/smgo234/Ocelot/test/a1b/tuning_a1b_acycle3/Gau-88788.inp" -scrdir="/scratch/smgo234/Ocelot/test/a1b/tuning_a1b_acycle3/"
 Entering Link 1 = /opt/ohpc/pub/libs/gaussian/g16-A.03/sandybridge/g16/l1.exe PID=     88789.
  
 Copyright (c) 1988,1990,1992,1993,1995,1998,2003,2009,2016,
            Gaussian, Inc.  All Rights Reserved.
  
 This is part of the Gaussian(R) 16 program.  It is based on
 the Gaussian(R) 09 system (copyright 2009, Gaussian, Inc.),
 the Gaussian(R) 03 system (copyright 2003, Gaussian, Inc.),
 the Gaussian(R) 98 system (copyright 1998, Gaussian, Inc.),
 the Gaussian(R) 94 system (copyright 1995, Gaussian, Inc.),
 the Gaussian 92(TM) system (copyright 1992, Gaussian, Inc.),
 the Gaussian 90(TM) system (copyright 1990, Gaussian, Inc.),
 the Gaussian 88(TM) system (copyright 1988, Gaussian, Inc.),
 the Gaussian 86(TM) system (copyright 1986, Carnegie Mellon
 University), and the Gaussian 82(TM) system (copyright 1983,
 Carnegie Mellon University). Gaussian is a federally registered
 trademark of Gaussian, Inc.
  
 This software contains proprietary and confidential information,
 including trade secrets, belonging to Gaussian, Inc.
  
 This software is provided under written license and may be
 used, copied, transmitted, or stored only in accord with that
 written license.
  
 The following legend is applicable only to US Government
 contracts under FAR:
  
                    RESTRICTED RIGHTS LEGEND
  
 Use, reproduction and disclosure by the US Government is
 subject to restrictions as set forth in subparagraphs (a)
 and (c) of the Commercial Computer Software - Restricted
 Rights clause in FAR 52.227-19.
  
 Gaussian, Inc.
 340 Quinnipiac St., Bldg. 40, Wallingford CT 06492
  
  
 ---------------------------------------------------------------
 Warning -- This program may not be used in any manner that
 competes with the business of Gaussian, Inc. or will provide
 assistance to any competitor of Gaussian, Inc.  The licensee
 of this program is prohibited from giving any competitor of
 Gaussian, Inc. access to this program.  By using this program,
 the user acknowledges that Gaussian, Inc. is engaged in the
 business of creating and licensing software in the field of
 computational chemistry and represents and warrants to the
 licensee that it is not a competitor of Gaussian, Inc. and that
 it will not use this program in any manner prohibited above.
 ---------------------------------------------------------------
  

 Cite this work as:
 Gaussian 16, Revision A.03,
 M. J. Frisch, G. W. Trucks, H. B. Schlegel, G. E. Scuseria, 
 M. A. Robb, J. R. Cheeseman, G. Scalmani, V. Barone, 
 G. A. Petersson, H. Nakatsuji, X. Li, M. Caricato, A. V. Marenich, 
 J. Bloino, B. G. Janesko, R. Gomperts, B. Mennucci, H. P. Hratchian, 
 J. V. Ortiz, A. F. Izmaylov, J. L. Sonnenberg, D. Williams-Young, 
 F. Ding, F. Lipparini, F. Egidi, J. Goings, B. Peng, A. Petrone, 
 T. Henderson, D. Ranasinghe, V. G. Zakrzewski, J. Gao, N. Rega, 
 G. Zheng, W. Liang, M. Hada, M. Ehara, K. Toyota, R. Fukuda, 
 J. Hasegawa, M. Ishida, T. Nakajima, Y. Honda, O. Kitao, H. Nakai, 
 T. Vreven, K. Throssell, J. A. Montgomery, Jr., J. E. Peralta, 
 F. Ogliaro, M. J. Bearpark, J. J. Heyd, E. N. Brothers, K. N. Kudin, 
 V. N. Staroverov, T. A. Keith, R. Kobayashi, J. Normand, 
 K. Raghavachari, A. P. Rendell, J. C. Burant, S. S. Iyengar, 
 J. Tomasi, M. Cossi, J. M. Millam, M. Klene, C. Adamo, R. Cammi, 
 J. W. Ochterski, R. L. Martin, K. Morokuma, O. Farkas, 
 J. B. Foresman, and D. J. Fox, Gaussian, Inc., Wallingford CT, 2016.
 
 ******************************************
 Gaussian 16:  EM64L-G16RevA.03 25-Dec-2016
                 5-Mar-2020 
 ******************************************
 %mem=50GB
 %nproc=16
 Will use up to   16 processors via shared memory.
 ----------------------------------------------------------------------
 #P uLC-wHPBE/6-31G iop(3/130=0160700000, 3/131=0160700000, 3/119=08393
 00000, 3/120=0839300000) scf=(conver=6,fermi,ndamp=35,noincfock,novara
 cc,vshift=500,xqc)
 ----------------------------------------------------------------------
 1/38=1,172=1/1;
 2/12=2,17=6,18=5,40=1/2;
 3/5=1,6=6,11=2,25=1,30=1,74=-71,116=2,119=839300000,120=839300000,130=160700000,131=160700000/1,2,3;
 4//1;
 5/5=100002,6=6,8=3,10=500,13=1,18=-1,22=13,38=1,93=35/2,8;
 6/7=2,8=2,9=2,10=2,28=1/1;
 99/5=1,9=1/99;
 Leave Link    1 at Thu Mar  5 13:02:20 2020, MaxMem=  6710886400 cpu:              14.9 elap:               1.0
 (Enter /opt/ohpc/pub/libs/gaussian/g16-A.03/sandybridge/g16/l101.exe)
 -----
 H6 C5
 -----
 Symbolic Z-matrix:
 Charge =  0 Multiplicity = 1
 C                     0.        0.8788   -0.93154 
 C                     0.        1.12816   0.42346 
 C                     0.        0.        1.24088 
 C                     0.       -1.12816   0.42346 
 C                     0.       -0.8788   -0.93154 
 H                     0.        0.       -1.73227 
 H                     0.        1.6083   -1.73405 
 H                     0.        2.15663   0.76567 
 H                     0.        0.        2.32078 
 H                     0.       -2.15663   0.76567 
 H                     0.       -1.6083   -1.73405 
 
 ITRead=  0  0  0  0  0  0  0  0  0  0  0
 MicOpt= -1 -1 -1 -1 -1 -1 -1 -1 -1 -1 -1
 NAtoms=     11 NQM=       11 NQMF=       0 NMMI=      0 NMMIF=      0
                NMic=       0 NMicF=      0.
                    Isotopes and Nuclear Properties:
 (Nuclear quadrupole moments (NQMom) in fm**2, nuclear magnetic moments (NMagM)
  in nuclear magnetons)

  Atom         1           2           3           4           5           6           7           8           9          10
 IAtWgt=          12          12          12          12          12           1           1           1           1           1
 AtmWgt=  12.0000000  12.0000000  12.0000000  12.0000000  12.0000000   1.0078250   1.0078250   1.0078250   1.0078250   1.0078250
 NucSpn=           0           0           0           0           0           1           1           1           1           1
 AtZEff=  -0.0000000  -0.0000000  -0.0000000  -0.0000000  -0.0000000  -0.0000000  -0.0000000  -0.0000000  -0.0000000  -0.0000000
 NQMom=    0.0000000   0.0000000   0.0000000   0.0000000   0.0000000   0.0000000   0.0000000   0.0000000   0.0000000   0.0000000
 NMagM=    0.0000000   0.0000000   0.0000000   0.0000000   0.0000000   2.7928460   2.7928460   2.7928460   2.7928460   2.7928460
 AtZNuc=   6.0000000   6.0000000   6.0000000   6.0000000   6.0000000   1.0000000   1.0000000   1.0000000   1.0000000   1.0000000

  Atom        11
 IAtWgt=           1
 AtmWgt=   1.0078250
 NucSpn=           1
 AtZEff=  -0.0000000
 NQMom=    0.0000000
 NMagM=    2.7928460
 AtZNuc=   1.0000000
 Leave Link  101 at Thu Mar  5 13:02:20 2020, MaxMem=  6710886400 cpu:               2.6 elap:               0.2
 (Enter /opt/ohpc/pub/libs/gaussian/g16-A.03/sandybridge/g16/l202.exe)
                          Input orientation:                          
 ---------------------------------------------------------------------
 Center     Atomic      Atomic             Coordinates (Angstroms)
 Number     Number       Type             X           Y           Z
 ---------------------------------------------------------------------
      1          6           0        0.000000    0.878804   -0.931542
      2          6           0        0.000000    1.128157    0.423457
      3          6           0        0.000000    0.000000    1.240879
      4          6           0        0.000000   -1.128157    0.423457
      5          6           0        0.000000   -0.878804   -0.931542
      6          1           0        0.000000    0.000000   -1.732269
      7          1           0        0.000000    1.608300   -1.734053
      8          1           0        0.000000    2.156626    0.765670
      9          1           0        0.000000    0.000000    2.320778
     10          1           0        0.000000   -2.156626    0.765670
     11          1           0        0.000000   -1.608300   -1.734053
 ---------------------------------------------------------------------
                    Distance matrix (angstroms):
                    1          2          3          4          5
     1  C    0.000000
     2  C    1.377752   0.000000
     3  C    2.343440   1.393168   0.000000
     4  C    2.421552   2.256314   1.393168   0.000000
     5  C    1.757608   2.421552   2.343440   1.377752   0.000000
     6  H    1.188890   2.433083   2.973148   2.433083   1.188890
     7  H    1.084522   2.210291   3.381841   3.484687   2.613371
     8  H    2.124466   1.083909   2.208361   3.302561   3.477695
     9  H    3.368959   2.207389   1.079899   2.207389   3.368959
    10  H    3.477695   3.302561   2.208361   1.083909   2.124466
    11  H    2.613371   3.484687   3.381841   2.210291   1.084522
                    6          7          8          9         10
     6  H    0.000000
     7  H    1.608301   0.000000
     8  H    3.300111   2.559155   0.000000
     9  H    4.053047   4.362142   2.658834   0.000000
    10  H    3.300111   4.519213   4.313252   2.658834   0.000000
    11  H    1.608301   3.216600   4.519213   4.362142   2.559155
                   11
    11  H    0.000000
 Stoichiometry    C5H6
 Framework group  C2V[C2(HCH),SGV(C4H4)]
 Deg. of freedom    10
 Full point group                 C2V     NOp   4
 Largest Abelian subgroup         C2V     NOp   4
 Largest concise Abelian subgroup C2      NOp   2
                         Standard orientation:                         
 ---------------------------------------------------------------------
 Center     Atomic      Atomic             Coordinates (Angstroms)
 Number     Number       Type             X           Y           Z
 ---------------------------------------------------------------------
      1          6           0        0.000000    0.878804   -0.931542
      2          6           0        0.000000    1.128157    0.423457
      3          6           0        0.000000   -0.000000    1.240879
      4          6           0       -0.000000   -1.128157    0.423457
      5          6           0       -0.000000   -0.878804   -0.931542
      6          1           0       -0.000000    0.000000   -1.732269
      7          1           0        0.000000    1.608300   -1.734053
      8          1           0        0.000000    2.156626    0.765670
      9          1           0        0.000000   -0.000000    2.320778
     10          1           0       -0.000000   -2.156626    0.765670
     11          1           0       -0.000000   -1.608300   -1.734053
 ---------------------------------------------------------------------
 Rotational constants (GHZ):           8.5259551           7.9375455           4.1106177
 Leave Link  202 at Thu Mar  5 13:02:20 2020, MaxMem=  6710886400 cpu:               0.2 elap:               0.0
 (Enter /opt/ohpc/pub/libs/gaussian/g16-A.03/sandybridge/g16/l301.exe)
 Standard basis: 6-31G (6D, 7F)
 Ernie: Thresh=  0.10000D-02 Tol=  0.10000D-05 Strict=F.
 There are    27 symmetry adapted cartesian basis functions of A1  symmetry.
 There are     4 symmetry adapted cartesian basis functions of A2  symmetry.
 There are     6 symmetry adapted cartesian basis functions of B1  symmetry.
 There are    20 symmetry adapted cartesian basis functions of B2  symmetry.
 There are    27 symmetry adapted basis functions of A1  symmetry.
 There are     4 symmetry adapted basis functions of A2  symmetry.
 There are     6 symmetry adapted basis functions of B1  symmetry.
 There are    20 symmetry adapted basis functions of B2  symmetry.
    57 basis functions,   134 primitive gaussians,    57 cartesian basis functions
    18 alpha electrons       18 beta electrons
       nuclear repulsion energy       156.0127424860 Hartrees.
 IExCor=33909 DFT=T Ex+Corr=LC-wHPBE ExCW=0 ScaHFX=  1.000000
 ScaDFX=  1.000000  1.000000  1.000000  1.000000 ScalE2=  1.000000  1.000000
 IRadAn=      5 IRanWt=     -1 IRanGd=            0 ICorTp=0 IEmpDi=  4
 HFx  wShort=  0.000000 wLong=  0.400000 cFull=  0.000000 cShort=  0.000000 cLong=  0.839300
 DFx  wShort=  0.000000 wLong=  0.400000 cFull=  0.000000 cShort=  1.000000 cLong=  0.839300
 NAtoms=   11 NActive=   11 NUniq=    7 SFac= 2.47D+00 NAtFMM=   60 NAOKFM=F Big=F
 Integral buffers will be    131072 words long.
 Raffenetti 2 integral format.
 Two-electron integral symmetry is turned on.
 Leave Link  301 at Thu Mar  5 13:02:20 2020, MaxMem=  6710886400 cpu:               1.0 elap:               0.1
 (Enter /opt/ohpc/pub/libs/gaussian/g16-A.03/sandybridge/g16/l302.exe)
 NPDir=0 NMtPBC=     1 NCelOv=     1 NCel=       1 NClECP=     1 NCelD=      1
         NCelK=      1 NCelE2=     1 NClLst=     1 CellRange=     0.0.
 One-electron integrals computed using PRISM.
 One-electron integral symmetry used in STVInt
 NBasis=    57 RedAO= T EigKep=  1.84D-03  NBF=    27     4     6    20
 NBsUse=    57 1.00D-06 EigRej= -1.00D+00 NBFU=    27     4     6    20
 Precomputing XC quadrature grid using
 IXCGrd= 4 IRadAn=           5 IRanWt=          -1 IRanGd=           0 AccXCQ= 0.00D+00.
 Generated NRdTot=       0 NPtTot=           0 NUsed=           0 NTot=          32
 NSgBfM=    57    57    57    57    57 MxSgAt=    11 MxSgA2=    11.
 Leave Link  302 at Thu Mar  5 13:02:20 2020, MaxMem=  6710886400 cpu:               2.1 elap:               0.2
 (Enter /opt/ohpc/pub/libs/gaussian/g16-A.03/sandybridge/g16/l303.exe)
 DipDrv:  MaxL=1.
 Leave Link  303 at Thu Mar  5 13:02:20 2020, MaxMem=  6710886400 cpu:               0.8 elap:               0.1
 (Enter /opt/ohpc/pub/libs/gaussian/g16-A.03/sandybridge/g16/l401.exe)
 ExpMin= 1.61D-01 ExpMax= 3.05D+03 ExpMxC= 4.57D+02 IAcc=3 IRadAn=         5 AccDes= 0.00D+00
 Harris functional with IExCor=33909 and IRadAn=       5 diagonalized for initial guess.
 HarFok:  IExCor=33909 AccDes= 0.00D+00 IRadAn=         5 IDoV= 1 UseB2=F ITyADJ=14
 ICtDFT=  3500011 ScaDFX=  1.000000  1.000000  1.000000  1.000000
 FoFCou: FMM=F IPFlag=           0 FMFlag=      100000 FMFlg1=           0
         NFxFlg=           0 DoJE=T BraDBF=F KetDBF=T FulRan=T
         wScrn=  0.000000 ICntrl=       500 IOpCl=  0 I1Cent=   200000004 NGrid=           0
         NMat0=    1 NMatS0=      1 NMatT0=    0 NMatD0=    1 NMtDS0=    0 NMtDT0=    0
 Petite list used in FoFCou.
 Harris En= -192.651795672134    
 JPrj=0 DoOrth=F DoCkMO=F.
 Initial guess orbital symmetries:
 Alpha Orbitals:
       Occupied  (A1) (B2) (A1) (B2) (A1) (A1) (A1) (B2) (A1) (B2)
                 (A1) (B2) (A1) (B2) (A1) (B1) (A2) (B1)
       Virtual   (A2) (B2) (B1) (A1) (A1) (B2) (A1) (B2) (A1) (B2)
                 (A1) (B2) (A1) (B2) (B1) (A1) (A2) (B1) (B2) (A1)
                 (A1) (A2) (B1) (B2) (B2) (A1) (B2) (A1) (A1) (B2)
                 (A1) (A1) (A1) (B2) (A1) (B2) (A1) (A1) (B2)
 Beta  Orbitals:
       Occupied  (A1) (B2) (A1) (B2) (A1) (A1) (A1) (B2) (A1) (B2)
                 (A1) (B2) (A1) (B2) (A1) (B1) (A2) (B1)
       Virtual   (A2) (B2) (B1) (A1) (A1) (B2) (A1) (B2) (A1) (B2)
                 (A1) (B2) (A1) (B2) (B1) (A1) (A2) (B1) (B2) (A1)
                 (A1) (A2) (B1) (B2) (B2) (A1) (B2) (A1) (A1) (B2)
                 (A1) (A1) (A1) (B2) (A1) (B2) (A1) (A1) (B2)
 The electronic state of the initial guess is 1-A1.
 Initial guess <Sx>= 0.0000 <Sy>= 0.0000 <Sz>= 0.0000 <S**2>= 0.0000 S= 0.0000
 Leave Link  401 at Thu Mar  5 13:02:20 2020, MaxMem=  6710886400 cpu:               3.0 elap:               0.2
 (Enter /opt/ohpc/pub/libs/gaussian/g16-A.03/sandybridge/g16/l502.exe)
 Keep R1 and R2 ints in memory in symmetry-blocked form, NReq=16815681.
 FoFCou: FMM=F IPFlag=           0 FMFlag=           0 FMFlg1=           0
         NFxFlg=           0 DoJE=F BraDBF=F KetDBF=F FulRan=T
         wScrn=  0.000000 ICntrl=       600 IOpCl=  0 I1Cent=           0 NGrid=           0
         NMat0=    1 NMatS0=   1653 NMatT0=    0 NMatD0=    1 NMtDS0=    0 NMtDT0=    0
 Petite list used in FoFCou.
 UHF open shell SCF:
 Using DIIS extrapolation, IDIIS=    10.
 NGot=  6710886400 LenX=  6710059561 LenY=  6710055871
 Requested convergence on RMS density matrix=1.00D-06 within  32 cycles.
 Requested convergence on MAX density matrix=1.00D-04.
 Requested convergence on             energy=1.00D-04.
 Virtual orbitals will be shifted by   0.500 hartree.
 No special actions if energy rises.
 Dynamic level shift is on during FON iterations.

 Cycle   1  Pass 1  IDiag  1:
 E= -198.401444451207    
 DIIS: error= 4.37D-02 at cycle   1 NSaved=   1.
 NSaved= 1 IEnMin= 1 EnMin= -198.401444451207     IErMin= 1 ErrMin= 4.37D-02
 ErrMax= 4.37D-02  0.00D+00 EMaxC= 1.00D+00 BMatC= 3.46D-01 BMatP= 3.46D-01
 IDIUse=1 WtCom= 1.00D+00 WtEn= 0.00D+00
 Coeff-Com:  0.100D+01
 Coeff:      0.100D+01
 Gap=     0.336 Goal=   None    Shift=    0.500
 T= 1722. Gap= 0.792 NK=0 IS=   19 IE=   57 IFin=   18
          NO(<0.9)=   0  NV(>0.1)=   0     18.00e < EF      0.00e >EF  Err=0.0D+00
 Gap=     0.336 Goal=   None    Shift=    0.500
 T= 1722. Gap= 0.792 NK=0 IS=   19 IE=   57 IFin=   18
          NO(<0.9)=   0  NV(>0.1)=   0     18.00e < EF      0.00e >EF  Err=0.0D+00
 GapD=    0.336 DampG=1.000 DampE=0.500 DampFc=0.5000 IDamp=-1.
 Damping current iteration by 5.00D-01
 RMSDP=7.09D-03 MaxDP=6.16D-02              OVMax= 8.13D-02

 Cycle   2  Pass 1  IDiag  1:
 E= -198.464625013215     Delta-E=       -0.063180562008 Rises=F Damp=T
 DIIS: error= 1.97D-02 at cycle   2 NSaved=   2.
 NSaved= 2 IEnMin= 2 EnMin= -198.464625013215     IErMin= 2 ErrMin= 1.97D-02
 ErrMax= 1.97D-02  0.00D+00 EMaxC= 1.00D+00 BMatC= 6.84D-02 BMatP= 3.46D-01
 IDIUse=1 WtCom= 1.00D+00 WtEn= 0.00D+00
 Coeff-Com: -0.721D+00 0.172D+01
 Coeff:     -0.721D+00 0.172D+01
 Gap=     0.390 Goal=   None    Shift=    0.500
 T= 1601. Gap= 0.878 NK=0 IS=   19 IE=   57 IFin=   18
          NO(<0.9)=   0  NV(>0.1)=   0     18.00e < EF      0.00e >EF  Err=0.0D+00
 Gap=     0.390 Goal=   None    Shift=    0.500
 T= 1601. Gap= 0.878 NK=0 IS=   19 IE=   57 IFin=   18
          NO(<0.9)=   0  NV(>0.1)=   0     18.00e < EF      0.00e >EF  Err=0.0D+00
 GapD=    0.390 DampG=1.000 DampE=0.500 DampFc=0.5000 IDamp=-1.
 Damping current iteration by 5.00D-01
 RMSDP=3.86D-03 MaxDP=2.49D-02 DE=-6.32D-02 OVMax= 9.10D-03

 Cycle   3  Pass 1  IDiag  1:
 E= -198.487527565281     Delta-E=       -0.022902552066 Rises=F Damp=T
 DIIS: error= 9.22D-03 at cycle   3 NSaved=   3.
 NSaved= 3 IEnMin= 3 EnMin= -198.487527565281     IErMin= 3 ErrMin= 9.22D-03
 ErrMax= 9.22D-03  0.00D+00 EMaxC= 1.00D+00 BMatC= 1.47D-02 BMatP= 6.84D-02
 IDIUse=1 WtCom= 1.00D+00 WtEn= 0.00D+00
 Coeff-Com:  0.141D+00-0.128D+01 0.214D+01
 Coeff:      0.141D+00-0.128D+01 0.214D+01
 Gap=     0.376 Goal=   None    Shift=    0.500
 T= 1368. Gap= 0.876 NK=0 IS=   19 IE=   57 IFin=   18
          NO(<0.9)=   0  NV(>0.1)=   0     18.00e < EF      0.00e >EF  Err=0.0D+00
 Gap=     0.376 Goal=   None    Shift=    0.500
 T= 1368. Gap= 0.876 NK=0 IS=   19 IE=   57 IFin=   18
          NO(<0.9)=   0  NV(>0.1)=   0     18.00e < EF      0.00e >EF  Err=0.0D+00
 GapD=    0.376 DampG=1.000 DampE=1.000 DampFc=1.0000 IDamp=-1.
 RMSDP=2.04D-03 MaxDP=1.38D-02 DE=-2.29D-02 OVMax= 7.74D-03

 Cycle   4  Pass 1  IDiag  1:
 E= -198.506507438457     Delta-E=       -0.018979873176 Rises=F Damp=F
 DIIS: error= 1.63D-03 at cycle   4 NSaved=   4.
 NSaved= 4 IEnMin= 4 EnMin= -198.506507438457     IErMin= 4 ErrMin= 1.63D-03
 ErrMax= 1.63D-03  0.00D+00 EMaxC= 1.00D+00 BMatC= 3.98D-04 BMatP= 1.47D-02
 IDIUse=1 WtCom= 1.00D+00 WtEn= 0.00D+00
 Coeff-Com:  0.114D+00-0.537D-01-0.353D+00 0.129D+01
 Coeff:      0.114D+00-0.537D-01-0.353D+00 0.129D+01
 Gap=     0.377 Goal=   None    Shift=    0.500
 T=  849. Gap= 0.877 NK=0 IS=   19 IE=   57 IFin=   18
          NO(<0.9)=   0  NV(>0.1)=   0     18.00e < EF      0.00e >EF  Err=0.0D+00
 Gap=     0.377 Goal=   None    Shift=    0.500
 T=  849. Gap= 0.877 NK=0 IS=   19 IE=   57 IFin=   18
          NO(<0.9)=   0  NV(>0.1)=   0     18.00e < EF      0.00e >EF  Err=0.0D+00
 GapD=    0.377 DampG=1.000 DampE=1.000 DampFc=1.0000 IDamp=-1.
 RMSDP=3.67D-04 MaxDP=2.84D-03 DE=-1.90D-02 OVMax= 3.77D-03

 Cycle   5  Pass 1  IDiag  1:
 E= -198.506698295815     Delta-E=       -0.000190857358 Rises=F Damp=F
 DIIS: error= 1.07D-03 at cycle   5 NSaved=   5.
 NSaved= 5 IEnMin= 5 EnMin= -198.506698295815     IErMin= 5 ErrMin= 1.07D-03
 ErrMax= 1.07D-03  0.00D+00 EMaxC= 1.00D+00 BMatC= 6.93D-05 BMatP= 3.98D-04
 IDIUse=1 WtCom= 1.00D+00 WtEn= 0.00D+00
 Coeff-Com: -0.495D-01 0.242D+00-0.312D+00-0.692D+00 0.181D+01
 Coeff:     -0.495D-01 0.242D+00-0.312D+00-0.692D+00 0.181D+01
 Gap=     0.377 Goal=   None    Shift=    0.500
 T=  283. Gap= 0.877 NK=0 IS=   19 IE=   57 IFin=   18
          NO(<0.9)=   0  NV(>0.1)=   0     18.00e < EF      0.00e >EF  Err=0.0D+00
 Gap=     0.377 Goal=   None    Shift=    0.500
 T=  283. Gap= 0.877 NK=0 IS=   19 IE=   57 IFin=   18
          NO(<0.9)=   0  NV(>0.1)=   0     18.00e < EF      0.00e >EF  Err=0.0D+00
 GapD=    0.377 DampG=1.000 DampE=1.000 DampFc=1.0000 IDamp=-1.
 RMSDP=2.17D-04 MaxDP=1.69D-03 DE=-1.91D-04 OVMax= 3.29D-03

 Cycle   6  Pass 1  IDiag  1:
 E= -198.506755455347     Delta-E=       -0.000057159532 Rises=F Damp=F
 DIIS: error= 7.20D-04 at cycle   6 NSaved=   6.
 NSaved= 6 IEnMin= 6 EnMin= -198.506755455347     IErMin= 6 ErrMin= 7.20D-04
 ErrMax= 7.20D-04  0.00D+00 EMaxC= 1.00D+00 BMatC= 1.65D-05 BMatP= 6.93D-05
 IDIUse=1 WtCom= 1.00D+00 WtEn= 0.00D+00
 Coeff-Com:  0.399D-02-0.700D-01 0.122D+00 0.278D+00-0.191D+01 0.258D+01
 Coeff:      0.399D-02-0.700D-01 0.122D+00 0.278D+00-0.191D+01 0.258D+01
 Gap=     0.377 Goal=   None    Shift=    0.500
 Gap=     0.377 Goal=   None    Shift=    0.500
 RMSDP=1.12D-04 MaxDP=8.32D-04 DE=-5.72D-05 OVMax= 2.12D-03

 Cycle   7  Pass 1  IDiag  1:
 E= -198.506772519753     Delta-E=       -0.000017064406 Rises=F Damp=F
 DIIS: error= 4.55D-04 at cycle   7 NSaved=   7.
 NSaved= 7 IEnMin= 7 EnMin= -198.506772519753     IErMin= 7 ErrMin= 4.55D-04
 ErrMax= 4.55D-04  0.00D+00 EMaxC= 1.00D+00 BMatC= 4.81D-06 BMatP= 1.65D-05
 IDIUse=1 WtCom= 1.00D+00 WtEn= 0.00D+00
 Coeff-Com: -0.449D-02 0.832D-01-0.151D+00 0.487D-01 0.856D+00-0.296D+01
 Coeff-Com:  0.313D+01
 Coeff:     -0.449D-02 0.832D-01-0.151D+00 0.487D-01 0.856D+00-0.296D+01
 Coeff:      0.313D+01
 Gap=     0.377 Goal=   None    Shift=    0.500
 Gap=     0.377 Goal=   None    Shift=    0.500
 RMSDP=5.19D-05 MaxDP=3.91D-04 DE=-1.71D-05 OVMax= 1.27D-03

 Cycle   8  Pass 1  IDiag  1:
 E= -198.506777426953     Delta-E=       -0.000004907200 Rises=F Damp=F
 DIIS: error= 2.80D-04 at cycle   8 NSaved=   8.
 NSaved= 8 IEnMin= 8 EnMin= -198.506777426953     IErMin= 8 ErrMin= 2.80D-04
 ErrMax= 2.80D-04  0.00D+00 EMaxC= 1.00D+00 BMatC= 1.72D-06 BMatP= 4.81D-06
 IDIUse=1 WtCom= 1.00D+00 WtEn= 0.00D+00
 Coeff-Com: -0.444D-02 0.521D-01-0.887D-01 0.160D-01 0.434D+00-0.949D+00
 Coeff-Com: -0.357D+00 0.190D+01
 Coeff:     -0.444D-02 0.521D-01-0.887D-01 0.160D-01 0.434D+00-0.949D+00
 Coeff:     -0.357D+00 0.190D+01
 Gap=     0.377 Goal=   None    Shift=    0.500
 Gap=     0.377 Goal=   None    Shift=    0.500
 RMSDP=2.39D-05 MaxDP=1.87D-04 DE=-4.91D-06 OVMax= 7.19D-04

 Cycle   9  Pass 1  IDiag  1:
 E= -198.506778846557     Delta-E=       -0.000001419604 Rises=F Damp=F
 DIIS: error= 1.59D-04 at cycle   9 NSaved=   9.
 NSaved= 9 IEnMin= 9 EnMin= -198.506778846557     IErMin= 9 ErrMin= 1.59D-04
 ErrMax= 1.59D-04  0.00D+00 EMaxC= 1.00D+00 BMatC= 5.77D-07 BMatP= 1.72D-06
 IDIUse=1 WtCom= 1.00D+00 WtEn= 0.00D+00
 Coeff-Com: -0.123D-02 0.720D-02-0.104D-01 0.144D-01-0.604D-01 0.389D+00
 Coeff-Com: -0.978D+00-0.939D-01 0.173D+01
 Coeff:     -0.123D-02 0.720D-02-0.104D-01 0.144D-01-0.604D-01 0.389D+00
 Coeff:     -0.978D+00-0.939D-01 0.173D+01
 Gap=     0.377 Goal=   None    Shift=    0.500
 Gap=     0.377 Goal=   None    Shift=    0.500
 RMSDP=1.18D-05 MaxDP=1.03D-04 DE=-1.42D-06 OVMax= 3.92D-04

 Cycle  10  Pass 1  IDiag  1:
 E= -198.506779258445     Delta-E=       -0.000000411888 Rises=F Damp=F
 DIIS: error= 9.30D-05 at cycle  10 NSaved=  10.
 NSaved=10 IEnMin=10 EnMin= -198.506779258445     IErMin=10 ErrMin= 9.30D-05
 ErrMax= 9.30D-05  0.00D+00 EMaxC= 1.00D+00 BMatC= 2.04D-07 BMatP= 5.77D-07
 IDIUse=1 WtCom= 1.00D+00 WtEn= 0.00D+00
 Coeff-Com:  0.961D-03-0.566D-02 0.754D-02 0.124D-01-0.711D-01 0.383D-01
 Coeff-Com:  0.512D+00-0.123D+01-0.324D+00 0.206D+01
 Coeff:      0.961D-03-0.566D-02 0.754D-02 0.124D-01-0.711D-01 0.383D-01
 Coeff:      0.512D+00-0.123D+01-0.324D+00 0.206D+01
 Gap=     0.377 Goal=   None    Shift=    0.500
 Gap=     0.377 Goal=   None    Shift=    0.500
 RMSDP=5.92D-06 MaxDP=5.33D-05 DE=-4.12D-07 OVMax= 2.18D-04

 Cycle  11  Pass 1  IDiag  1:
 E= -198.506779382826     Delta-E=       -0.000000124381 Rises=F Damp=F
 DIIS: error= 5.32D-05 at cycle  11 NSaved=  11.
 NSaved=11 IEnMin=11 EnMin= -198.506779382826     IErMin=11 ErrMin= 5.32D-05
 ErrMax= 5.32D-05  0.00D+00 EMaxC= 1.00D+00 BMatC= 7.02D-08 BMatP= 2.04D-07
 IDIUse=1 WtCom= 1.00D+00 WtEn= 0.00D+00
 Coeff-Com: -0.173D-03 0.195D-02-0.332D-02 0.116D-02 0.140D-01-0.228D-01
 Coeff-Com: -0.642D-03 0.179D-01 0.266D+00-0.196D+01 0.269D+01
 Coeff:     -0.173D-03 0.195D-02-0.332D-02 0.116D-02 0.140D-01-0.228D-01
 Coeff:     -0.642D-03 0.179D-01 0.266D+00-0.196D+01 0.269D+01
 Gap=     0.377 Goal=   None    Shift=    0.500
 Gap=     0.377 Goal=   None    Shift=    0.500
 RMSDP=3.02D-06 MaxDP=2.88D-05 DE=-1.24D-07 OVMax= 1.21D-04

 Cycle  12  Pass 1  IDiag  1:
 E= -198.506779421083     Delta-E=       -0.000000038256 Rises=F Damp=F
 DIIS: error= 2.98D-05 at cycle  12 NSaved=  12.
 NSaved=12 IEnMin=12 EnMin= -198.506779421083     IErMin=12 ErrMin= 2.98D-05
 ErrMax= 2.98D-05  0.00D+00 EMaxC= 1.00D+00 BMatC= 2.31D-08 BMatP= 7.02D-08
 IDIUse=1 WtCom= 1.00D+00 WtEn= 0.00D+00
 Coeff-Com:  0.174D-04-0.251D-03 0.421D-03 0.200D-02-0.132D-01 0.271D-01
 Coeff-Com: -0.134D-01-0.435D-01 0.201D-01 0.795D+00-0.313D+01 0.335D+01
 Coeff:      0.174D-04-0.251D-03 0.421D-03 0.200D-02-0.132D-01 0.271D-01
 Coeff:     -0.134D-01-0.435D-01 0.201D-01 0.795D+00-0.313D+01 0.335D+01
 Gap=     0.377 Goal=   None    Shift=    0.500
 Gap=     0.377 Goal=   None    Shift=    0.500
 RMSDP=1.58D-06 MaxDP=1.57D-05 DE=-3.83D-08 OVMax= 6.63D-05

 Cycle  13  Pass 1  IDiag  1:
 E= -198.506779432612     Delta-E=       -0.000000011529 Rises=F Damp=F
 DIIS: error= 1.66D-05 at cycle  13 NSaved=  13.
 NSaved=13 IEnMin=13 EnMin= -198.506779432612     IErMin=13 ErrMin= 1.66D-05
 ErrMax= 1.66D-05  0.00D+00 EMaxC= 1.00D+00 BMatC= 7.57D-09 BMatP= 2.31D-08
 IDIUse=1 WtCom= 1.00D+00 WtEn= 0.00D+00
 Coeff-Com:  0.709D-04-0.437D-03 0.587D-03 0.109D-02-0.649D-02 0.956D-02
 Coeff-Com:  0.222D-01-0.710D-01 0.180D-01-0.129D+00 0.120D+01-0.350D+01
 Coeff-Com:  0.345D+01
 Coeff:      0.709D-04-0.437D-03 0.587D-03 0.109D-02-0.649D-02 0.956D-02
 Coeff:      0.222D-01-0.710D-01 0.180D-01-0.129D+00 0.120D+01-0.350D+01
 Coeff:      0.345D+01
 Gap=     0.377 Goal=   None    Shift=    0.500
 Gap=     0.377 Goal=   None    Shift=    0.500
 RMSDP=8.36D-07 MaxDP=8.58D-06 DE=-1.15D-08 OVMax= 3.61D-05

 SCF Done:  E(ULC-wHPBE) =  -198.506779433     A.U. after   13 cycles
            NFock= 13  Conv=0.84D-06     -V/T= 2.0277
 <Sx>= 0.0000 <Sy>= 0.0000 <Sz>= 0.0000 <S**2>=-0.0000 S=-0.0000
 <L.S>= 0.000000000000E+00
 KE= 1.931552709604D+02 PE=-7.620440811885D+02 EE= 2.143692883094D+02
 Annihilation of the first spin contaminant:
 S**2 before annihilation    -0.0000,   after    -0.0000
 Leave Link  502 at Thu Mar  5 13:02:22 2020, MaxMem=  6710886400 cpu:              20.9 elap:               1.3
 (Enter /opt/ohpc/pub/libs/gaussian/g16-A.03/sandybridge/g16/l508.exe)
 QCSCF skips out because SCF is already converged.
 Leave Link  508 at Thu Mar  5 13:02:22 2020, MaxMem=  6710886400 cpu:               0.3 elap:               0.0
 (Enter /opt/ohpc/pub/libs/gaussian/g16-A.03/sandybridge/g16/l601.exe)
 Copying SCF densities to generalized density rwf, IOpCl= 1 IROHF=0.

 **********************************************************************

            Population analysis using the SCF density.

 **********************************************************************

 Orbital symmetries:
 Alpha Orbitals:
       Occupied  (B2) (A1) (B2) (A1) (A1) (A1) (A1) (B2) (A1) (B2)
                 (A1) (B2) (A1) (A1) (B2) (B1) (A2) (B1)
       Virtual   (A2) (B2) (A1) (B1) (A1) (B2) (A1) (B2) (A1) (A1)
                 (B2) (A1) (B2) (B2) (B1) (A2) (A1) (B1) (A1) (B2)
                 (A1) (A2) (B1) (B2) (B2) (A1) (B2) (A1) (A1) (B2)
                 (A1) (A1) (A1) (B2) (A1) (B2) (A1) (A1) (B2)
 Beta  Orbitals:
       Occupied  (B2) (A1) (B2) (A1) (A1) (A1) (A1) (B2) (A1) (B2)
                 (A1) (B2) (A1) (A1) (B2) (B1) (A2) (B1)
       Virtual   (A2) (B2) (A1) (B1) (A1) (B2) (A1) (B2) (A1) (A1)
                 (B2) (A1) (B2) (B2) (B1) (A2) (A1) (B1) (A1) (B2)
                 (A1) (A2) (B1) (B2) (B2) (A1) (B2) (A1) (A1) (B2)
                 (A1) (A1) (A1) (B2) (A1) (B2) (A1) (A1) (B2)
 The electronic state is 1-A1.
 Alpha  occ. eigenvalues --  -10.23646 -10.23644 -10.20135 -10.20134 -10.16452
 Alpha  occ. eigenvalues --   -1.10093  -0.97148  -0.94202  -0.79500  -0.78189
 Alpha  occ. eigenvalues --   -0.73894  -0.63129  -0.62305  -0.59267  -0.57940
 Alpha  occ. eigenvalues --   -0.56896  -0.42808  -0.38422
 Alpha virt. eigenvalues --   -0.00710   0.00460   0.04980   0.06923   0.09342
 Alpha virt. eigenvalues --    0.14073   0.15790   0.17637   0.18480   0.30807
 Alpha virt. eigenvalues --    0.32082   0.42122   0.42640   0.51679   0.53312
 Alpha virt. eigenvalues --    0.59827   0.60549   0.60743   0.62474   0.63895
 Alpha virt. eigenvalues --    0.65151   0.66359   0.68917   0.76006   0.82010
 Alpha virt. eigenvalues --    0.84863   0.86373   0.86527   0.88407   0.95297
 Alpha virt. eigenvalues --    0.95483   0.98623   1.03135   1.09621   1.17641
 Alpha virt. eigenvalues --    1.19282   1.26234   1.47287   1.48354
  Beta  occ. eigenvalues --  -10.23646 -10.23644 -10.20135 -10.20134 -10.16452
  Beta  occ. eigenvalues --   -1.10093  -0.97148  -0.94202  -0.79500  -0.78189
  Beta  occ. eigenvalues --   -0.73894  -0.63129  -0.62305  -0.59267  -0.57940
  Beta  occ. eigenvalues --   -0.56896  -0.42808  -0.38422
  Beta virt. eigenvalues --   -0.00710   0.00460   0.04980   0.06923   0.09342
  Beta virt. eigenvalues --    0.14073   0.15790   0.17637   0.18480   0.30807
  Beta virt. eigenvalues --    0.32082   0.42122   0.42640   0.51679   0.53312
  Beta virt. eigenvalues --    0.59827   0.60549   0.60743   0.62474   0.63895
  Beta virt. eigenvalues --    0.65151   0.66359   0.68917   0.76006   0.82010
  Beta virt. eigenvalues --    0.84863   0.86373   0.86527   0.88407   0.95297
  Beta virt. eigenvalues --    0.95483   0.98623   1.03135   1.09621   1.17641
  Beta virt. eigenvalues --    1.19282   1.26234   1.47287   1.48354
          Condensed to atoms (all electrons):
               1          2          3          4          5          6
     1  C    5.454561   0.471902  -0.056018  -0.126881   0.253484   0.167347
     2  C    0.471902   4.915320   0.548628  -0.017875  -0.126881  -0.019550
     3  C   -0.056018   0.548628   4.868276   0.548628  -0.056018   0.005395
     4  C   -0.126881  -0.017875   0.548628   4.915320   0.471902  -0.019550
     5  C    0.253484  -0.126881  -0.056018   0.471902   5.454561   0.167347
     6  H    0.167347  -0.019550   0.005395  -0.019550   0.167347   0.383392
     7  H    0.347576   0.000636  -0.000389   0.003866  -0.022188  -0.013349
     8  H   -0.035662   0.365789  -0.015478   0.004154   0.001483   0.000725
     9  H    0.005879  -0.036661   0.375169  -0.036661   0.005879  -0.000075
    10  H    0.001483   0.004154  -0.015478   0.365789  -0.035662   0.000725
    11  H   -0.022188   0.003866  -0.000389   0.000636   0.347576  -0.013349
               7          8          9         10         11
     1  C    0.347576  -0.035662   0.005879   0.001483  -0.022188
     2  C    0.000636   0.365789  -0.036661   0.004154   0.003866
     3  C   -0.000389  -0.015478   0.375169  -0.015478  -0.000389
     4  C    0.003866   0.004154  -0.036661   0.365789   0.000636
     5  C   -0.022188   0.001483   0.005879  -0.035662   0.347576
     6  H   -0.013349   0.000725  -0.000075   0.000725  -0.013349
     7  H    0.448285   0.000063  -0.000094  -0.000031   0.000762
     8  H    0.000063   0.494445  -0.001646  -0.000143  -0.000031
     9  H   -0.000094  -0.001646   0.529272  -0.001646  -0.000094
    10  H   -0.000031  -0.000143  -0.001646   0.494445   0.000063
    11  H    0.000762  -0.000031  -0.000094   0.000063   0.448285
          Atomic-Atomic Spin Densities.
               1          2          3          4          5          6
     1  C    0.000000  -0.000000   0.000000  -0.000000  -0.000000   0.000000
     2  C   -0.000000   0.000000   0.000000   0.000000  -0.000000   0.000000
     3  C    0.000000   0.000000  -0.000000   0.000000   0.000000  -0.000000
     4  C   -0.000000   0.000000   0.000000   0.000000  -0.000000   0.000000
     5  C   -0.000000  -0.000000   0.000000  -0.000000   0.000000   0.000000
     6  H    0.000000   0.000000  -0.000000   0.000000   0.000000   0.000000
     7  H   -0.000000   0.000000  -0.000000  -0.000000   0.000000  -0.000000
     8  H   -0.000000   0.000000   0.000000   0.000000  -0.000000  -0.000000
     9  H    0.000000  -0.000000  -0.000000  -0.000000   0.000000   0.000000
    10  H   -0.000000   0.000000   0.000000   0.000000  -0.000000  -0.000000
    11  H    0.000000  -0.000000  -0.000000   0.000000  -0.000000  -0.000000
               7          8          9         10         11
     1  C   -0.000000  -0.000000   0.000000  -0.000000   0.000000
     2  C    0.000000   0.000000  -0.000000   0.000000  -0.000000
     3  C   -0.000000   0.000000  -0.000000   0.000000  -0.000000
     4  C   -0.000000   0.000000  -0.000000   0.000000   0.000000
     5  C    0.000000  -0.000000   0.000000  -0.000000  -0.000000
     6  H   -0.000000  -0.000000   0.000000  -0.000000  -0.000000
     7  H   -0.000000  -0.000000  -0.000000   0.000000   0.000000
     8  H   -0.000000  -0.000000  -0.000000   0.000000   0.000000
     9  H   -0.000000  -0.000000   0.000000  -0.000000  -0.000000
    10  H    0.000000   0.000000  -0.000000  -0.000000  -0.000000
    11  H    0.000000   0.000000  -0.000000  -0.000000  -0.000000
 Mulliken charges and spin densities:
               1          2
     1  C   -0.461483   0.000000
     2  C   -0.109327  -0.000000
     3  C   -0.202328  -0.000000
     4  C   -0.109327  -0.000000
     5  C   -0.461483   0.000000
     6  H    0.340944   0.000000
     7  H    0.234864  -0.000000
     8  H    0.186300  -0.000000
     9  H    0.160677  -0.000000
    10  H    0.186300  -0.000000
    11  H    0.234864  -0.000000
 Sum of Mulliken charges =  -0.00000  -0.00000
 Mulliken charges and spin densities with hydrogens summed into heavy atoms:
               1          2
     1  C    0.114324   0.000000
     2  C    0.076973  -0.000000
     3  C   -0.041651  -0.000000
     4  C    0.076973  -0.000000
     5  C   -0.226619   0.000000
 Electronic spatial extent (au):  <R**2>=            334.5635
 Charge=             -0.0000 electrons
 Dipole moment (field-independent basis, Debye):
    X=             -0.0000    Y=             -0.0000    Z=             -1.9719  Tot=              1.9719
 Quadrupole moment (field-independent basis, Debye-Ang):
   XX=            -34.7555   YY=            -25.1613   ZZ=            -23.1532
   XY=              0.0000   XZ=              0.0000   YZ=             -0.0000
 Traceless Quadrupole moment (field-independent basis, Debye-Ang):
   XX=             -7.0655   YY=              2.5287   ZZ=              4.5368
   XY=              0.0000   XZ=              0.0000   YZ=             -0.0000
 Octapole moment (field-independent basis, Debye-Ang**2):
  XXX=              0.0000  YYY=              0.0000  ZZZ=             -8.8640  XYY=              0.0000
  XXY=              0.0000  XXZ=              0.8281  XZZ=              0.0000  YZZ=              0.0000
  YYZ=             -0.9231  XYZ=             -0.0000
 Hexadecapole moment (field-independent basis, Debye-Ang**3):
 XXXX=            -36.6366 YYYY=           -178.8123 ZZZZ=           -166.0682 XXXY=             -0.0000
 XXXZ=             -0.0000 YYYX=             -0.0000 YYYZ=             -0.0000 ZZZX=             -0.0000
 ZZZY=              0.0000 XXYY=            -46.0241 XXZZ=            -45.0418 YYZZ=            -56.7665
 XXYZ=              0.0000 YYXZ=             -0.0000 ZZXY=             -0.0000
 N-N= 1.560127424860D+02 E-N=-7.620440586163D+02  KE= 1.931552709604D+02
 Symmetry A1   KE= 1.110580529667D+02
 Symmetry A2   KE= 2.460517261171D+00
 Symmetry B1   KE= 4.327804666914D+00
 Symmetry B2   KE= 7.530889606558D+01
 Symmetry A1   SP=-1.392431446436D-14
 Symmetry A2   SP= 2.391059780626D-15
 Symmetry B1   SP=-8.652688773618D-15
 Symmetry B2   SP=-3.187111658897D-14
                          Isotropic Fermi Contact Couplings
        Atom                 a.u.       MegaHertz       Gauss      10(-4) cm-1
     1  C(13)             -0.00000      -0.00000      -0.00000      -0.00000
     2  C(13)             -0.00000      -0.00000      -0.00000      -0.00000
     3  C(13)             -0.00000      -0.00000      -0.00000      -0.00000
     4  C(13)             -0.00000      -0.00000      -0.00000      -0.00000
     5  C(13)             -0.00000      -0.00000      -0.00000      -0.00000
     6  H(1)              -0.00000      -0.00000      -0.00000      -0.00000
     7  H(1)               0.00000       0.00000       0.00000       0.00000
     8  H(1)              -0.00000      -0.00000      -0.00000      -0.00000
     9  H(1)              -0.00000      -0.00000      -0.00000      -0.00000
    10  H(1)              -0.00000      -0.00000      -0.00000      -0.00000
    11  H(1)               0.00000       0.00000       0.00000       0.00000
 --------------------------------------------------------
       Center         ----  Spin Dipole Couplings  ----
                      3XX-RR        3YY-RR        3ZZ-RR
 --------------------------------------------------------
     1   Atom        0.000000      0.000000      0.000000
     2   Atom        0.000000      0.000000      0.000000
     3   Atom        0.000000      0.000000      0.000000
     4   Atom        0.000000      0.000000      0.000000
     5   Atom        0.000000      0.000000      0.000000
     6   Atom        0.000000      0.000000      0.000000
     7   Atom        0.000000      0.000000      0.000000
     8   Atom        0.000000      0.000000      0.000000
     9   Atom        0.000000      0.000000      0.000000
    10   Atom        0.000000      0.000000      0.000000
    11   Atom        0.000000      0.000000      0.000000
 --------------------------------------------------------
                        XY            XZ            YZ
 --------------------------------------------------------
     1   Atom        0.000000      0.000000      0.000000
     2   Atom        0.000000      0.000000      0.000000
     3   Atom        0.000000      0.000000      0.000000
     4   Atom        0.000000      0.000000      0.000000
     5   Atom        0.000000      0.000000      0.000000
     6   Atom        0.000000      0.000000      0.000000
     7   Atom        0.000000      0.000000      0.000000
     8   Atom        0.000000      0.000000      0.000000
     9   Atom        0.000000      0.000000      0.000000
    10   Atom        0.000000      0.000000      0.000000
    11   Atom        0.000000      0.000000      0.000000
 --------------------------------------------------------


 ---------------------------------------------------------------------------------
              Anisotropic Spin Dipole Couplings in Principal Axis System
 ---------------------------------------------------------------------------------

       Atom             a.u.   MegaHertz   Gauss  10(-4) cm-1        Axes

              Baa     0.0000     0.000     0.000     0.000  1.0000  0.0000  0.0000
     1 C(13)  Bbb     0.0000     0.000     0.000     0.000 -0.0000  1.0000  0.0000
              Bcc     0.0000     0.000     0.000     0.000  0.0000  0.0000  1.0000
 
              Baa     0.0000     0.000     0.000     0.000  1.0000  0.0000  0.0000
     2 C(13)  Bbb     0.0000     0.000     0.000     0.000 -0.0000  1.0000  0.0000
              Bcc     0.0000     0.000     0.000     0.000  0.0000  0.0000  1.0000
 
              Baa     0.0000     0.000     0.000     0.000  1.0000  0.0000  0.0000
     3 C(13)  Bbb     0.0000     0.000     0.000     0.000 -0.0000  1.0000  0.0000
              Bcc     0.0000     0.000     0.000     0.000  0.0000  0.0000  1.0000
 
              Baa     0.0000     0.000     0.000     0.000  1.0000  0.0000  0.0000
     4 C(13)  Bbb     0.0000     0.000     0.000     0.000 -0.0000  1.0000  0.0000
              Bcc     0.0000     0.000     0.000     0.000  0.0000  0.0000  1.0000
 
              Baa     0.0000     0.000     0.000     0.000  1.0000  0.0000  0.0000
     5 C(13)  Bbb     0.0000     0.000     0.000     0.000 -0.0000  1.0000  0.0000
              Bcc     0.0000     0.000     0.000     0.000  0.0000  0.0000  1.0000
 
              Baa     0.0000     0.000     0.000     0.000  1.0000  0.0000  0.0000
     6 H(1)   Bbb     0.0000     0.000     0.000     0.000 -0.0000  1.0000  0.0000
              Bcc     0.0000     0.000     0.000     0.000  0.0000  0.0000  1.0000
 
              Baa     0.0000     0.000     0.000     0.000  1.0000  0.0000  0.0000
     7 H(1)   Bbb     0.0000     0.000     0.000     0.000 -0.0000  1.0000  0.0000
              Bcc     0.0000     0.000     0.000     0.000  0.0000  0.0000  1.0000
 
              Baa     0.0000     0.000     0.000     0.000  1.0000  0.0000  0.0000
     8 H(1)   Bbb     0.0000     0.000     0.000     0.000 -0.0000  1.0000  0.0000
              Bcc     0.0000     0.000     0.000     0.000  0.0000  0.0000  1.0000
 
              Baa     0.0000     0.000     0.000     0.000  1.0000  0.0000  0.0000
     9 H(1)   Bbb     0.0000     0.000     0.000     0.000 -0.0000  1.0000  0.0000
              Bcc     0.0000     0.000     0.000     0.000  0.0000  0.0000  1.0000
 
              Baa     0.0000     0.000     0.000     0.000  1.0000  0.0000  0.0000
    10 H(1)   Bbb     0.0000     0.000     0.000     0.000 -0.0000  1.0000  0.0000
              Bcc     0.0000     0.000     0.000     0.000  0.0000  0.0000  1.0000
 
              Baa     0.0000     0.000     0.000     0.000  1.0000  0.0000  0.0000
    11 H(1)   Bbb     0.0000     0.000     0.000     0.000 -0.0000  1.0000  0.0000
              Bcc     0.0000     0.000     0.000     0.000  0.0000  0.0000  1.0000
 

 ---------------------------------------------------------------------------------

 No NMR shielding tensors so no spin-rotation constants.
 Leave Link  601 at Thu Mar  5 13:02:22 2020, MaxMem=  6710886400 cpu:               2.0 elap:               0.1
 (Enter /opt/ohpc/pub/libs/gaussian/g16-A.03/sandybridge/g16/l9999.exe)

 Test job not archived.
 1\1\GINC-CNODE212\SP\ULC-wHPBE\6-31G\C5H6\SMGO234\05-Mar-2020\0\\#P uL
 C-wHPBE/6-31G iop(3/130=0160700000, 3/131=0160700000, 3/119=0839300000
 , 3/120=0839300000) scf=(conver=6,fermi,ndamp=35,noincfock,novaracc,vs
 hift=500,xqc)\\H6 C5\\0,1\C,0,0.,0.878804,-0.931542\C,0,0.,1.128157,0.
 423457\C,0,0.,0.,1.240879\C,0,0.,-1.128157,0.423457\C,0,0.,-0.878804,-
 0.931542\H,0,0.,0.,-1.732269\H,0,0.,1.6083,-1.734053\H,0,0.,2.156626,0
 .76567\H,0,0.,0.,2.320778\H,0,0.,-2.156626,0.76567\H,0,0.,-1.6083,-1.7
 34053\\Version=EM64L-G16RevA.03\State=1-A1\HF=-198.5067794\S2=0.\S2-1=
 0.\S2A=0.\RMSD=8.359e-07\Dipole=0.,0.,-0.7758063\Quadrupole=-5.253039,
 1.8800192,3.3730197,0.,0.,0.\PG=C02V [C2(H1C1H1),SGV(C4H4)]\\@


 THERE'S NOTHING SO GREAT AS THE GREAT OUTDOORS.

                                       -- ZIGGY
 Job cpu time:       0 days  0 hours  0 minutes 48.5 seconds.
 Elapsed time:       0 days  0 hours  0 minutes  3.3 seconds.
 File lengths (MBytes):  RWF=    272 Int=      0 D2E=      0 Chk=     32 Scr=     32
 Normal termination of Gaussian 16 at Thu Mar  5 13:02:22 2020.
