 Entering Gaussian System, Link 0=g16
 Input=a1b_tune_c2.gjf
 Output=a1b_tune_c2.log
 Initial command:
 /opt/ohpc/pub/libs/gaussian/g16-A.03/sandybridge/g16/l1.exe "/scratch/smgo234/Ocelot/test/a1b/tuning_a1b_acycle3/Gau-89298.inp" -scrdir="/scratch/smgo234/Ocelot/test/a1b/tuning_a1b_acycle3/"
 Entering Link 1 = /opt/ohpc/pub/libs/gaussian/g16-A.03/sandybridge/g16/l1.exe PID=     89299.
  
 Copyright (c) 1988,1990,1992,1993,1995,1998,2003,2009,2016,
            Gaussian, Inc.  All Rights Reserved.
  
 This is part of the Gaussian(R) 16 program.  It is based on
 the Gaussian(R) 09 system (copyright 2009, Gaussian, Inc.),
 the Gaussian(R) 03 system (copyright 2003, Gaussian, Inc.),
 the Gaussian(R) 98 system (copyright 1998, Gaussian, Inc.),
 the Gaussian(R) 94 system (copyright 1995, Gaussian, Inc.),
 the Gaussian 92(TM) system (copyright 1992, Gaussian, Inc.),
 the Gaussian 90(TM) system (copyright 1990, Gaussian, Inc.),
 the Gaussian 88(TM) system (copyright 1988, Gaussian, Inc.),
 the Gaussian 86(TM) system (copyright 1986, Carnegie Mellon
 University), and the Gaussian 82(TM) system (copyright 1983,
 Carnegie Mellon University). Gaussian is a federally registered
 trademark of Gaussian, Inc.
  
 This software contains proprietary and confidential information,
 including trade secrets, belonging to Gaussian, Inc.
  
 This software is provided under written license and may be
 used, copied, transmitted, or stored only in accord with that
 written license.
  
 The following legend is applicable only to US Government
 contracts under FAR:
  
                    RESTRICTED RIGHTS LEGEND
  
 Use, reproduction and disclosure by the US Government is
 subject to restrictions as set forth in subparagraphs (a)
 and (c) of the Commercial Computer Software - Restricted
 Rights clause in FAR 52.227-19.
  
 Gaussian, Inc.
 340 Quinnipiac St., Bldg. 40, Wallingford CT 06492
  
  
 ---------------------------------------------------------------
 Warning -- This program may not be used in any manner that
 competes with the business of Gaussian, Inc. or will provide
 assistance to any competitor of Gaussian, Inc.  The licensee
 of this program is prohibited from giving any competitor of
 Gaussian, Inc. access to this program.  By using this program,
 the user acknowledges that Gaussian, Inc. is engaged in the
 business of creating and licensing software in the field of
 computational chemistry and represents and warrants to the
 licensee that it is not a competitor of Gaussian, Inc. and that
 it will not use this program in any manner prohibited above.
 ---------------------------------------------------------------
  

 Cite this work as:
 Gaussian 16, Revision A.03,
 M. J. Frisch, G. W. Trucks, H. B. Schlegel, G. E. Scuseria, 
 M. A. Robb, J. R. Cheeseman, G. Scalmani, V. Barone, 
 G. A. Petersson, H. Nakatsuji, X. Li, M. Caricato, A. V. Marenich, 
 J. Bloino, B. G. Janesko, R. Gomperts, B. Mennucci, H. P. Hratchian, 
 J. V. Ortiz, A. F. Izmaylov, J. L. Sonnenberg, D. Williams-Young, 
 F. Ding, F. Lipparini, F. Egidi, J. Goings, B. Peng, A. Petrone, 
 T. Henderson, D. Ranasinghe, V. G. Zakrzewski, J. Gao, N. Rega, 
 G. Zheng, W. Liang, M. Hada, M. Ehara, K. Toyota, R. Fukuda, 
 J. Hasegawa, M. Ishida, T. Nakajima, Y. Honda, O. Kitao, H. Nakai, 
 T. Vreven, K. Throssell, J. A. Montgomery, Jr., J. E. Peralta, 
 F. Ogliaro, M. J. Bearpark, J. J. Heyd, E. N. Brothers, K. N. Kudin, 
 V. N. Staroverov, T. A. Keith, R. Kobayashi, J. Normand, 
 K. Raghavachari, A. P. Rendell, J. C. Burant, S. S. Iyengar, 
 J. Tomasi, M. Cossi, J. M. Millam, M. Klene, C. Adamo, R. Cammi, 
 J. W. Ochterski, R. L. Martin, K. Morokuma, O. Farkas, 
 J. B. Foresman, and D. J. Fox, Gaussian, Inc., Wallingford CT, 2016.
 
 ******************************************
 Gaussian 16:  EM64L-G16RevA.03 25-Dec-2016
                 5-Mar-2020 
 ******************************************
 %mem=50GB
 %nproc=16
 Will use up to   16 processors via shared memory.
 ----------------------------------------------------------------------
 #P uLC-wHPBE/6-31G iop(3/130=0219000000, 3/131=0219000000, 3/119=07810
 00000, 3/120=0781000000) scf=(conver=6,fermi,ndamp=35,noincfock,novara
 cc,vshift=500,xqc)
 ----------------------------------------------------------------------
 1/38=1,172=1/1;
 2/12=2,17=6,18=5,40=1/2;
 3/5=1,6=6,11=2,25=1,30=1,74=-71,116=2,119=781000000,120=781000000,130=219000000,131=219000000/1,2,3;
 4//1;
 5/5=100002,6=6,8=3,10=500,13=1,18=-1,22=13,38=1,93=35/2,8;
 6/7=2,8=2,9=2,10=2,28=1/1;
 99/5=1,9=1/99;
 Leave Link    1 at Thu Mar  5 13:02:32 2020, MaxMem=  6710886400 cpu:              20.9 elap:               1.4
 (Enter /opt/ohpc/pub/libs/gaussian/g16-A.03/sandybridge/g16/l101.exe)
 -----
 H6 C5
 -----
 Symbolic Z-matrix:
 Charge =  1 Multiplicity = 2
 C                     0.        0.8788   -0.93154 
 C                     0.        1.12816   0.42346 
 C                     0.        0.        1.24088 
 C                     0.       -1.12816   0.42346 
 C                     0.       -0.8788   -0.93154 
 H                     0.        0.       -1.73227 
 H                     0.        1.6083   -1.73405 
 H                     0.        2.15663   0.76567 
 H                     0.        0.        2.32078 
 H                     0.       -2.15663   0.76567 
 H                     0.       -1.6083   -1.73405 
 
 ITRead=  0  0  0  0  0  0  0  0  0  0  0
 MicOpt= -1 -1 -1 -1 -1 -1 -1 -1 -1 -1 -1
 NAtoms=     11 NQM=       11 NQMF=       0 NMMI=      0 NMMIF=      0
                NMic=       0 NMicF=      0.
                    Isotopes and Nuclear Properties:
 (Nuclear quadrupole moments (NQMom) in fm**2, nuclear magnetic moments (NMagM)
  in nuclear magnetons)

  Atom         1           2           3           4           5           6           7           8           9          10
 IAtWgt=          12          12          12          12          12           1           1           1           1           1
 AtmWgt=  12.0000000  12.0000000  12.0000000  12.0000000  12.0000000   1.0078250   1.0078250   1.0078250   1.0078250   1.0078250
 NucSpn=           0           0           0           0           0           1           1           1           1           1
 AtZEff=  -0.0000000  -0.0000000  -0.0000000  -0.0000000  -0.0000000  -0.0000000  -0.0000000  -0.0000000  -0.0000000  -0.0000000
 NQMom=    0.0000000   0.0000000   0.0000000   0.0000000   0.0000000   0.0000000   0.0000000   0.0000000   0.0000000   0.0000000
 NMagM=    0.0000000   0.0000000   0.0000000   0.0000000   0.0000000   2.7928460   2.7928460   2.7928460   2.7928460   2.7928460
 AtZNuc=   6.0000000   6.0000000   6.0000000   6.0000000   6.0000000   1.0000000   1.0000000   1.0000000   1.0000000   1.0000000

  Atom        11
 IAtWgt=           1
 AtmWgt=   1.0078250
 NucSpn=           1
 AtZEff=  -0.0000000
 NQMom=    0.0000000
 NMagM=    2.7928460
 AtZNuc=   1.0000000
 Leave Link  101 at Thu Mar  5 13:02:32 2020, MaxMem=  6710886400 cpu:               4.1 elap:               0.3
 (Enter /opt/ohpc/pub/libs/gaussian/g16-A.03/sandybridge/g16/l202.exe)
                          Input orientation:                          
 ---------------------------------------------------------------------
 Center     Atomic      Atomic             Coordinates (Angstroms)
 Number     Number       Type             X           Y           Z
 ---------------------------------------------------------------------
      1          6           0        0.000000    0.878804   -0.931542
      2          6           0        0.000000    1.128157    0.423457
      3          6           0        0.000000    0.000000    1.240879
      4          6           0        0.000000   -1.128157    0.423457
      5          6           0        0.000000   -0.878804   -0.931542
      6          1           0        0.000000    0.000000   -1.732269
      7          1           0        0.000000    1.608300   -1.734053
      8          1           0        0.000000    2.156626    0.765670
      9          1           0        0.000000    0.000000    2.320778
     10          1           0        0.000000   -2.156626    0.765670
     11          1           0        0.000000   -1.608300   -1.734053
 ---------------------------------------------------------------------
                    Distance matrix (angstroms):
                    1          2          3          4          5
     1  C    0.000000
     2  C    1.377752   0.000000
     3  C    2.343440   1.393168   0.000000
     4  C    2.421552   2.256314   1.393168   0.000000
     5  C    1.757608   2.421552   2.343440   1.377752   0.000000
     6  H    1.188890   2.433083   2.973148   2.433083   1.188890
     7  H    1.084522   2.210291   3.381841   3.484687   2.613371
     8  H    2.124466   1.083909   2.208361   3.302561   3.477695
     9  H    3.368959   2.207389   1.079899   2.207389   3.368959
    10  H    3.477695   3.302561   2.208361   1.083909   2.124466
    11  H    2.613371   3.484687   3.381841   2.210291   1.084522
                    6          7          8          9         10
     6  H    0.000000
     7  H    1.608301   0.000000
     8  H    3.300111   2.559155   0.000000
     9  H    4.053047   4.362142   2.658834   0.000000
    10  H    3.300111   4.519213   4.313252   2.658834   0.000000
    11  H    1.608301   3.216600   4.519213   4.362142   2.559155
                   11
    11  H    0.000000
 Stoichiometry    C5H6(1+,2)
 Framework group  C2V[C2(HCH),SGV(C4H4)]
 Deg. of freedom    10
 Full point group                 C2V     NOp   4
 Largest Abelian subgroup         C2V     NOp   4
 Largest concise Abelian subgroup C2      NOp   2
                         Standard orientation:                         
 ---------------------------------------------------------------------
 Center     Atomic      Atomic             Coordinates (Angstroms)
 Number     Number       Type             X           Y           Z
 ---------------------------------------------------------------------
      1          6           0        0.000000    0.878804   -0.931542
      2          6           0        0.000000    1.128157    0.423457
      3          6           0        0.000000   -0.000000    1.240879
      4          6           0       -0.000000   -1.128157    0.423457
      5          6           0       -0.000000   -0.878804   -0.931542
      6          1           0       -0.000000    0.000000   -1.732269
      7          1           0        0.000000    1.608300   -1.734053
      8          1           0        0.000000    2.156626    0.765670
      9          1           0        0.000000   -0.000000    2.320778
     10          1           0       -0.000000   -2.156626    0.765670
     11          1           0       -0.000000   -1.608300   -1.734053
 ---------------------------------------------------------------------
 Rotational constants (GHZ):           8.5259551           7.9375455           4.1106177
 Leave Link  202 at Thu Mar  5 13:02:32 2020, MaxMem=  6710886400 cpu:               0.2 elap:               0.0
 (Enter /opt/ohpc/pub/libs/gaussian/g16-A.03/sandybridge/g16/l301.exe)
 Standard basis: 6-31G (6D, 7F)
 Ernie: Thresh=  0.10000D-02 Tol=  0.10000D-05 Strict=F.
 There are    27 symmetry adapted cartesian basis functions of A1  symmetry.
 There are     4 symmetry adapted cartesian basis functions of A2  symmetry.
 There are     6 symmetry adapted cartesian basis functions of B1  symmetry.
 There are    20 symmetry adapted cartesian basis functions of B2  symmetry.
 There are    27 symmetry adapted basis functions of A1  symmetry.
 There are     4 symmetry adapted basis functions of A2  symmetry.
 There are     6 symmetry adapted basis functions of B1  symmetry.
 There are    20 symmetry adapted basis functions of B2  symmetry.
    57 basis functions,   134 primitive gaussians,    57 cartesian basis functions
    18 alpha electrons       17 beta electrons
       nuclear repulsion energy       156.0127424860 Hartrees.
 IExCor=33909 DFT=T Ex+Corr=LC-wHPBE ExCW=0 ScaHFX=  1.000000
 ScaDFX=  1.000000  1.000000  1.000000  1.000000 ScalE2=  1.000000  1.000000
 IRadAn=      5 IRanWt=     -1 IRanGd=            0 ICorTp=0 IEmpDi=  4
 HFx  wShort=  0.000000 wLong=  0.400000 cFull=  0.000000 cShort=  0.000000 cLong=  0.781000
 DFx  wShort=  0.000000 wLong=  0.400000 cFull=  0.000000 cShort=  1.000000 cLong=  0.781000
 NAtoms=   11 NActive=   11 NUniq=    7 SFac= 2.47D+00 NAtFMM=   60 NAOKFM=F Big=F
 Integral buffers will be    131072 words long.
 Raffenetti 2 integral format.
 Two-electron integral symmetry is turned on.
 Leave Link  301 at Thu Mar  5 13:02:32 2020, MaxMem=  6710886400 cpu:               0.9 elap:               0.1
 (Enter /opt/ohpc/pub/libs/gaussian/g16-A.03/sandybridge/g16/l302.exe)
 NPDir=0 NMtPBC=     1 NCelOv=     1 NCel=       1 NClECP=     1 NCelD=      1
         NCelK=      1 NCelE2=     1 NClLst=     1 CellRange=     0.0.
 One-electron integrals computed using PRISM.
 One-electron integral symmetry used in STVInt
 NBasis=    57 RedAO= T EigKep=  1.84D-03  NBF=    27     4     6    20
 NBsUse=    57 1.00D-06 EigRej= -1.00D+00 NBFU=    27     4     6    20
 Precomputing XC quadrature grid using
 IXCGrd= 4 IRadAn=           5 IRanWt=          -1 IRanGd=           0 AccXCQ= 0.00D+00.
 Generated NRdTot=       0 NPtTot=           0 NUsed=           0 NTot=          32
 NSgBfM=    57    57    57    57    57 MxSgAt=    11 MxSgA2=    11.
 Leave Link  302 at Thu Mar  5 13:02:32 2020, MaxMem=  6710886400 cpu:               2.2 elap:               0.2
 (Enter /opt/ohpc/pub/libs/gaussian/g16-A.03/sandybridge/g16/l303.exe)
 DipDrv:  MaxL=1.
 Leave Link  303 at Thu Mar  5 13:02:33 2020, MaxMem=  6710886400 cpu:               1.4 elap:               0.3
 (Enter /opt/ohpc/pub/libs/gaussian/g16-A.03/sandybridge/g16/l401.exe)
 ExpMin= 1.61D-01 ExpMax= 3.05D+03 ExpMxC= 4.57D+02 IAcc=3 IRadAn=         5 AccDes= 0.00D+00
 Harris functional with IExCor=33909 and IRadAn=       5 diagonalized for initial guess.
 HarFok:  IExCor=33909 AccDes= 0.00D+00 IRadAn=         5 IDoV= 1 UseB2=F ITyADJ=14
 ICtDFT=  3500011 ScaDFX=  1.000000  1.000000  1.000000  1.000000
 FoFCou: FMM=F IPFlag=           0 FMFlag=      100000 FMFlg1=           0
         NFxFlg=           0 DoJE=T BraDBF=F KetDBF=T FulRan=T
         wScrn=  0.000000 ICntrl=       500 IOpCl=  0 I1Cent=   200000004 NGrid=           0
         NMat0=    1 NMatS0=      1 NMatT0=    0 NMatD0=    1 NMtDS0=    0 NMtDT0=    0
 Petite list used in FoFCou.
 Harris En= -191.992666426318    
 JPrj=0 DoOrth=F DoCkMO=F.
 Initial guess orbital symmetries:
 Alpha Orbitals:
       Occupied  (A1) (B2) (A1) (B2) (A1) (A1) (A1) (B2) (A1) (B2)
                 (A1) (B2) (A1) (B2) (A1) (B1) (A2) (B1)
       Virtual   (A2) (B2) (B1) (A1) (A1) (B2) (A1) (B2) (A1) (B2)
                 (A1) (B2) (A1) (B2) (B1) (A1) (A2) (B1) (B2) (A1)
                 (A1) (A2) (B1) (B2) (B2) (A1) (B2) (A1) (A1) (B2)
                 (A1) (A1) (A1) (B2) (A1) (B2) (A1) (A1) (B2)
 Beta  Orbitals:
       Occupied  (A1) (B2) (A1) (B2) (A1) (A1) (A1) (B2) (A1) (B2)
                 (A1) (B2) (A1) (B2) (A1) (B1) (A2)
       Virtual   (B1) (A2) (B2) (B1) (A1) (A1) (B2) (A1) (B2) (A1)
                 (B2) (A1) (B2) (A1) (B2) (B1) (A1) (A2) (B1) (B2)
                 (A1) (A1) (A2) (B1) (B2) (B2) (A1) (B2) (A1) (A1)
                 (B2) (A1) (A1) (A1) (B2) (A1) (B2) (A1) (A1) (B2)
 The electronic state of the initial guess is 2-B1.
 Initial guess <Sx>= 0.0000 <Sy>= 0.0000 <Sz>= 0.5000 <S**2>= 0.7500 S= 0.5000
 Leave Link  401 at Thu Mar  5 13:02:33 2020, MaxMem=  6710886400 cpu:               3.3 elap:               0.2
 (Enter /opt/ohpc/pub/libs/gaussian/g16-A.03/sandybridge/g16/l502.exe)
 Keep R1 and R2 ints in memory in symmetry-blocked form, NReq=16815681.
 FoFCou: FMM=F IPFlag=           0 FMFlag=           0 FMFlg1=           0
         NFxFlg=           0 DoJE=F BraDBF=F KetDBF=F FulRan=T
         wScrn=  0.000000 ICntrl=       600 IOpCl=  0 I1Cent=           0 NGrid=           0
         NMat0=    1 NMatS0=   1653 NMatT0=    0 NMatD0=    1 NMtDS0=    0 NMtDT0=    0
 Petite list used in FoFCou.
 UHF open shell SCF:
 Using DIIS extrapolation, IDIIS=    10.
 NGot=  6710886400 LenX=  6710059561 LenY=  6710055871
 Requested convergence on RMS density matrix=1.00D-06 within  32 cycles.
 Requested convergence on MAX density matrix=1.00D-04.
 Requested convergence on             energy=1.00D-04.
 Virtual orbitals will be shifted by   0.500 hartree.
 No special actions if energy rises.
 Dynamic level shift is on during FON iterations.

 Cycle   1  Pass 1  IDiag  1:
 E= -197.244644796745    
 DIIS: error= 4.85D-02 at cycle   1 NSaved=   1.
 NSaved= 1 IEnMin= 1 EnMin= -197.244644796745     IErMin= 1 ErrMin= 4.85D-02
 ErrMax= 4.85D-02  0.00D+00 EMaxC= 1.00D+00 BMatC= 1.96D-01 BMatP= 1.96D-01
 IDIUse=1 WtCom= 1.00D+00 WtEn= 0.00D+00
 Coeff-Com:  0.100D+01
 Coeff:      0.100D+01
 Gap=     0.333 Goal=   None    Shift=    0.500
 T= 1785. Gap= 0.806 NK=0 IS=   19 IE=   57 IFin=   18
          NO(<0.9)=   0  NV(>0.1)=   0     18.00e < EF      0.00e >EF  Err=0.0D+00
 Gap=     0.209 Goal=   None    Shift=    0.500
 T= 1785. Gap= 0.712 NK=0 IS=   18 IE=   57 IFin=   17
          NO(<0.9)=   0  NV(>0.1)=   0     17.00e < EF      0.00e >EF  Err=0.0D+00
 GapD=    0.209 DampG=1.000 DampE=0.500 DampFc=0.5000 IDamp=-1.
 Damping current iteration by 5.00D-01
 RMSDP=6.98D-03 MaxDP=5.31D-02              OVMax= 1.05D-01

 Cycle   2  Pass 1  IDiag  1:
 E= -197.282331615402     Delta-E=       -0.037686818657 Rises=F Damp=T
 DIIS: error= 2.30D-02 at cycle   2 NSaved=   2.
 NSaved= 2 IEnMin= 2 EnMin= -197.282331615402     IErMin= 2 ErrMin= 2.30D-02
 ErrMax= 2.30D-02  0.00D+00 EMaxC= 1.00D+00 BMatC= 3.37D-02 BMatP= 1.96D-01
 IDIUse=1 WtCom= 1.00D+00 WtEn= 0.00D+00
 Coeff-Com: -0.533D+00 0.153D+01
 Coeff:     -0.533D+00 0.153D+01
 Gap=     0.403 Goal=   None    Shift=    0.500
 T= 1669. Gap= 0.889 NK=4 IS=   19 IE=   23 IFin=   18
          NO(<0.9)=   0  NV(>0.1)=   0     18.00e < EF      0.00e >EF  Err=0.0D+00
 Gap=     0.238 Goal=   None    Shift=    0.500
 T= 1669. Gap= 0.736 NK=4 IS=   18 IE=   23 IFin=   17
          NO(<0.9)=   0  NV(>0.1)=   0     17.00e < EF      0.00e >EF  Err=0.0D+00
 GapD=    0.238 DampG=1.000 DampE=0.500 DampFc=0.5000 IDamp=-1.
 Damping current iteration by 5.00D-01
 RMSDP=4.22D-03 MaxDP=3.27D-02 DE=-3.77D-02 OVMax= 1.74D-02

 Cycle   3  Pass 1  IDiag  1:
 E= -197.295634208737     Delta-E=       -0.013302593335 Rises=F Damp=T
 DIIS: error= 1.31D-02 at cycle   3 NSaved=   3.
 NSaved= 3 IEnMin= 3 EnMin= -197.295634208737     IErMin= 3 ErrMin= 1.31D-02
 ErrMax= 1.31D-02  0.00D+00 EMaxC= 1.00D+00 BMatC= 7.87D-03 BMatP= 3.37D-02
 IDIUse=1 WtCom= 1.00D+00 WtEn= 0.00D+00
 Coeff-Com:  0.320D+00-0.179D+01 0.247D+01
 Coeff:      0.320D+00-0.179D+01 0.247D+01
 Gap=     0.392 Goal=   None    Shift=    0.500
 T= 1460. Gap= 0.892 NK=0 IS=   19 IE=   57 IFin=   18
          NO(<0.9)=   0  NV(>0.1)=   0     18.00e < EF      0.00e >EF  Err=0.0D+00
 Gap=     0.243 Goal=   None    Shift=    0.500
 T= 1460. Gap= 0.743 NK=0 IS=   18 IE=   57 IFin=   17
          NO(<0.9)=   0  NV(>0.1)=   0     17.00e < EF      0.00e >EF  Err=0.0D+00
 GapD=    0.243 DampG=1.000 DampE=0.500 DampFc=0.5000 IDamp=-1.
 Damping current iteration by 5.00D-01
 RMSDP=2.35D-03 MaxDP=1.90D-02 DE=-1.33D-02 OVMax= 1.60D-02

 Cycle   4  Pass 1  IDiag  1:
 E= -197.301970262431     Delta-E=       -0.006336053694 Rises=F Damp=T
 DIIS: error= 8.43D-03 at cycle   4 NSaved=   4.
 NSaved= 4 IEnMin= 4 EnMin= -197.301970262431     IErMin= 4 ErrMin= 8.43D-03
 ErrMax= 8.43D-03  0.00D+00 EMaxC= 1.00D+00 BMatC= 2.76D-03 BMatP= 7.87D-03
 IDIUse=1 WtCom= 1.00D+00 WtEn= 0.00D+00
 Coeff-Com:  0.249D-01 0.712D+00-0.353D+01 0.379D+01
 Coeff:      0.249D-01 0.712D+00-0.353D+01 0.379D+01
 Gap=     0.397 Goal=   None    Shift=    0.500
 T= 1075. Gap= 0.897 NK=0 IS=   19 IE=   57 IFin=   18
          NO(<0.9)=   0  NV(>0.1)=   0     18.00e < EF      0.00e >EF  Err=0.0D+00
 Gap=     0.248 Goal=   None    Shift=    0.500
 T= 1075. Gap= 0.748 NK=0 IS=   18 IE=   57 IFin=   17
          NO(<0.9)=   0  NV(>0.1)=   0     17.00e < EF      0.00e >EF  Err=0.0D+00
 GapD=    0.248 DampG=1.000 DampE=1.000 DampFc=1.0000 IDamp=-1.
 RMSDP=1.49D-03 MaxDP=1.56D-02 DE=-6.34D-03 OVMax= 1.51D-02

 Cycle   5  Pass 1  IDiag  1:
 E= -197.309432674063     Delta-E=       -0.007462411632 Rises=F Damp=F
 DIIS: error= 4.03D-03 at cycle   5 NSaved=   5.
 NSaved= 5 IEnMin= 5 EnMin= -197.309432674063     IErMin= 5 ErrMin= 4.03D-03
 ErrMax= 4.03D-03  0.00D+00 EMaxC= 1.00D+00 BMatC= 4.57D-04 BMatP= 2.76D-03
 IDIUse=1 WtCom= 1.00D+00 WtEn= 0.00D+00
 Coeff-Com: -0.180D+00 0.918D+00-0.794D+00-0.850D+00 0.191D+01
 Coeff:     -0.180D+00 0.918D+00-0.794D+00-0.850D+00 0.191D+01
 Gap=     0.400 Goal=   None    Shift=    0.500
 T=  742. Gap= 0.900 NK=0 IS=   19 IE=   57 IFin=   18
          NO(<0.9)=   0  NV(>0.1)=   0     18.00e < EF      0.00e >EF  Err=0.0D+00
 Gap=     0.252 Goal=   None    Shift=    0.500
 T=  742. Gap= 0.752 NK=0 IS=   18 IE=   57 IFin=   17
          NO(<0.9)=   0  NV(>0.1)=   0     17.00e < EF      0.00e >EF  Err=0.0D+00
 GapD=    0.252 DampG=1.000 DampE=1.000 DampFc=1.0000 IDamp=-1.
 RMSDP=4.43D-04 MaxDP=7.10D-03 DE=-7.46D-03 OVMax= 1.50D-02

 Cycle   6  Pass 1  IDiag  1:
 E= -197.310090402665     Delta-E=       -0.000657728601 Rises=F Damp=F
 DIIS: error= 3.20D-03 at cycle   6 NSaved=   6.
 NSaved= 6 IEnMin= 6 EnMin= -197.310090402665     IErMin= 6 ErrMin= 3.20D-03
 ErrMax= 3.20D-03  0.00D+00 EMaxC= 1.00D+00 BMatC= 2.12D-04 BMatP= 4.57D-04
 IDIUse=1 WtCom= 1.00D+00 WtEn= 0.00D+00
 Coeff-Com: -0.400D-02-0.243D+00 0.785D+00-0.562D+00-0.165D+01 0.268D+01
 Coeff:     -0.400D-02-0.243D+00 0.785D+00-0.562D+00-0.165D+01 0.268D+01
 Gap=     0.402 Goal=   None    Shift=    0.500
 T=  447. Gap= 0.903 NK=0 IS=   19 IE=   57 IFin=   18
          NO(<0.9)=   0  NV(>0.1)=   0     18.00e < EF      0.00e >EF  Err=0.0D+00
 Gap=     0.254 Goal=   None    Shift=    0.500
 T=  447. Gap= 0.754 NK=0 IS=   18 IE=   57 IFin=   17
          NO(<0.9)=   0  NV(>0.1)=   0     17.00e < EF      0.00e >EF  Err=0.0D+00
 GapD=    0.254 DampG=1.000 DampE=1.000 DampFc=1.0000 IDamp=-1.
 RMSDP=3.56D-04 MaxDP=5.79D-03 DE=-6.58D-04 OVMax= 1.38D-02

 Cycle   7  Pass 1  IDiag  1:
 E= -197.310469976172     Delta-E=       -0.000379573508 Rises=F Damp=F
 DIIS: error= 2.37D-03 at cycle   7 NSaved=   7.
 NSaved= 7 IEnMin= 7 EnMin= -197.310469976172     IErMin= 7 ErrMin= 2.37D-03
 ErrMax= 2.37D-03  0.00D+00 EMaxC= 1.00D+00 BMatC= 9.73D-05 BMatP= 2.12D-04
 IDIUse=1 WtCom= 1.00D+00 WtEn= 0.00D+00
 Coeff-Com:  0.194D-01-0.969D-01-0.437D-01 0.336D+00-0.439D+00-0.974D+00
 Coeff-Com:  0.220D+01
 Coeff:      0.194D-01-0.969D-01-0.437D-01 0.336D+00-0.439D+00-0.974D+00
 Coeff:      0.220D+01
 Gap=     0.403 Goal=   None    Shift=    0.500
 T=  153. Gap= 0.903 NK=0 IS=   19 IE=   57 IFin=   18
          NO(<0.9)=   0  NV(>0.1)=   0     18.00e < EF      0.00e >EF  Err=0.0D+00
 Gap=     0.255 Goal=   None    Shift=    0.500
 T=  153. Gap= 0.755 NK=0 IS=   18 IE=   57 IFin=   17
          NO(<0.9)=   0  NV(>0.1)=   0     17.00e < EF      0.00e >EF  Err=0.0D+00
 GapD=    0.255 DampG=1.000 DampE=1.000 DampFc=1.0000 IDamp=-1.
 RMSDP=2.44D-04 MaxDP=3.60D-03 DE=-3.80D-04 OVMax= 1.03D-02

 Cycle   8  Pass 1  IDiag  1:
 E= -197.310644562226     Delta-E=       -0.000174586054 Rises=F Damp=F
 DIIS: error= 1.73D-03 at cycle   8 NSaved=   8.
 NSaved= 8 IEnMin= 8 EnMin= -197.310644562226     IErMin= 8 ErrMin= 1.73D-03
 ErrMax= 1.73D-03  0.00D+00 EMaxC= 1.00D+00 BMatC= 4.87D-05 BMatP= 9.73D-05
 IDIUse=1 WtCom= 1.00D+00 WtEn= 0.00D+00
 Coeff-Com: -0.690D-02 0.246D+00-0.747D+00 0.547D+00 0.129D+01-0.264D+01
 Coeff-Com: -0.129D+00 0.244D+01
 Coeff:     -0.690D-02 0.246D+00-0.747D+00 0.547D+00 0.129D+01-0.264D+01
 Coeff:     -0.129D+00 0.244D+01
 Gap=     0.404 Goal=   None    Shift=    0.500
 Gap=     0.256 Goal=   None    Shift=    0.500
 GapD=    0.256 DampG=1.000 DampE=1.000 DampFc=1.0000 IDamp=-1.
 RMSDP=2.02D-04 MaxDP=2.92D-03 DE=-1.75D-04 OVMax= 9.04D-03

 Cycle   9  Pass 1  IDiag  1:
 E= -197.310740482701     Delta-E=       -0.000095920476 Rises=F Damp=F
 DIIS: error= 1.19D-03 at cycle   9 NSaved=   9.
 NSaved= 9 IEnMin= 9 EnMin= -197.310740482701     IErMin= 9 ErrMin= 1.19D-03
 ErrMax= 1.19D-03  0.00D+00 EMaxC= 1.00D+00 BMatC= 2.18D-05 BMatP= 4.87D-05
 IDIUse=1 WtCom= 1.00D+00 WtEn= 0.00D+00
 Coeff-Com: -0.547D-02-0.113D+00 0.531D+00-0.567D+00-0.475D+00 0.201D+01
 Coeff-Com: -0.101D+01-0.352D+01 0.415D+01
 Coeff:     -0.547D-02-0.113D+00 0.531D+00-0.567D+00-0.475D+00 0.201D+01
 Coeff:     -0.101D+01-0.352D+01 0.415D+01
 Gap=     0.404 Goal=   None    Shift=    0.500
 Gap=     0.256 Goal=   None    Shift=    0.500
 GapD=    0.256 DampG=1.000 DampE=1.000 DampFc=1.0000 IDamp=-1.
 RMSDP=1.59D-04 MaxDP=2.43D-03 DE=-9.59D-05 OVMax= 7.64D-03

 Cycle  10  Pass 1  IDiag  1:
 E= -197.310789199508     Delta-E=       -0.000048716806 Rises=F Damp=F
 DIIS: error= 7.29D-04 at cycle  10 NSaved=  10.
 NSaved=10 IEnMin=10 EnMin= -197.310789199508     IErMin=10 ErrMin= 7.29D-04
 ErrMax= 7.29D-04  0.00D+00 EMaxC= 1.00D+00 BMatC= 8.66D-06 BMatP= 2.18D-05
 IDIUse=1 WtCom= 1.00D+00 WtEn= 0.00D+00
 Coeff-Com:  0.284D-02 0.189D-02-0.349D-01 0.442D-01 0.259D-01-0.158D+00
 Coeff-Com:  0.260D+00 0.134D+00-0.189D+01 0.261D+01
 Coeff:      0.284D-02 0.189D-02-0.349D-01 0.442D-01 0.259D-01-0.158D+00
 Coeff:      0.260D+00 0.134D+00-0.189D+01 0.261D+01
 Gap=     0.404 Goal=   None    Shift=    0.500
 Gap=     0.256 Goal=   None    Shift=    0.500
 RMSDP=9.45D-05 MaxDP=1.48D-03 DE=-4.87D-05 OVMax= 4.74D-03

 Cycle  11  Pass 1  IDiag  1:
 E= -197.310807284051     Delta-E=       -0.000018084543 Rises=F Damp=F
 DIIS: error= 4.50D-04 at cycle  11 NSaved=  11.
 NSaved=11 IEnMin=11 EnMin= -197.310807284051     IErMin=11 ErrMin= 4.50D-04
 ErrMax= 4.50D-04  0.00D+00 EMaxC= 1.00D+00 BMatC= 3.67D-06 BMatP= 8.66D-06
 IDIUse=1 WtCom= 1.00D+00 WtEn= 0.00D+00
 Coeff-Com: -0.221D-02-0.951D-02 0.850D-01-0.115D+00 0.672D-02 0.294D+00
 Coeff-Com: -0.387D+00-0.584D+00 0.281D+01-0.583D+01 0.473D+01
 Coeff:     -0.221D-02-0.951D-02 0.850D-01-0.115D+00 0.672D-02 0.294D+00
 Coeff:     -0.387D+00-0.584D+00 0.281D+01-0.583D+01 0.473D+01
 Gap=     0.404 Goal=   None    Shift=    0.500
 Gap=     0.256 Goal=   None    Shift=    0.500
 RMSDP=6.30D-05 MaxDP=9.46D-04 DE=-1.81D-05 OVMax= 3.22D-03

 Cycle  12  Pass 1  IDiag  1:
 E= -197.310814840698     Delta-E=       -0.000007556647 Rises=F Damp=F
 DIIS: error= 2.65D-04 at cycle  12 NSaved=  12.
 NSaved=12 IEnMin=12 EnMin= -197.310814840698     IErMin=12 ErrMin= 2.65D-04
 ErrMax= 2.65D-04  0.00D+00 EMaxC= 1.00D+00 BMatC= 1.36D-06 BMatP= 3.67D-06
 IDIUse=1 WtCom= 1.00D+00 WtEn= 0.00D+00
 Coeff-Com: -0.650D-03-0.189D-01 0.866D-01-0.920D-01-0.695D-01 0.299D+00
 Coeff-Com: -0.803D-01-0.628D+00 0.619D+00 0.510D+00-0.249D+01 0.287D+01
 Coeff:     -0.650D-03-0.189D-01 0.866D-01-0.920D-01-0.695D-01 0.299D+00
 Coeff:     -0.803D-01-0.628D+00 0.619D+00 0.510D+00-0.249D+01 0.287D+01
 Gap=     0.404 Goal=   None    Shift=    0.500
 Gap=     0.256 Goal=   None    Shift=    0.500
 RMSDP=3.80D-05 MaxDP=5.58D-04 DE=-7.56D-06 OVMax= 1.95D-03

 Cycle  13  Pass 1  IDiag  1:
 E= -197.310817571097     Delta-E=       -0.000002730399 Rises=F Damp=F
 DIIS: error= 1.54D-04 at cycle  13 NSaved=  13.
 NSaved=13 IEnMin=13 EnMin= -197.310817571097     IErMin=13 ErrMin= 1.54D-04
 ErrMax= 1.54D-04  0.00D+00 EMaxC= 1.00D+00 BMatC= 4.88D-07 BMatP= 1.36D-06
 IDIUse=1 WtCom= 1.00D+00 WtEn= 0.00D+00
 Coeff-Com:  0.571D-03 0.635D-02-0.270D-01 0.249D-01 0.434D-01-0.104D+00
 Coeff-Com: -0.260D-01 0.230D+00 0.108D+00-0.127D+01 0.285D+01-0.495D+01
 Coeff-Com:  0.412D+01
 Coeff:      0.571D-03 0.635D-02-0.270D-01 0.249D-01 0.434D-01-0.104D+00
 Coeff:     -0.260D-01 0.230D+00 0.108D+00-0.127D+01 0.285D+01-0.495D+01
 Coeff:      0.412D+01
 Gap=     0.404 Goal=   None    Shift=    0.500
 Gap=     0.256 Goal=   None    Shift=    0.500
 RMSDP=2.33D-05 MaxDP=3.47D-04 DE=-2.73D-06 OVMax= 1.21D-03

 Cycle  14  Pass 1  IDiag  1:
 E= -197.310818556696     Delta-E=       -0.000000985599 Rises=F Damp=F
 DIIS: error= 8.55D-05 at cycle  14 NSaved=  14.
 NSaved=14 IEnMin=14 EnMin= -197.310818556696     IErMin=14 ErrMin= 8.55D-05
 ErrMax= 8.55D-05  0.00D+00 EMaxC= 1.00D+00 BMatC= 1.78D-07 BMatP= 4.88D-07
 IDIUse=1 WtCom= 1.00D+00 WtEn= 0.00D+00
 Coeff-Com: -0.152D-03-0.433D-02 0.240D-01-0.290D-01-0.834D-02 0.672D-01
 Coeff-Com: -0.219D-01-0.169D+00 0.368D+00-0.477D+00-0.696D-01 0.151D+01
 Coeff-Com: -0.347D+01 0.328D+01
 Coeff:     -0.152D-03-0.433D-02 0.240D-01-0.290D-01-0.834D-02 0.672D-01
 Coeff:     -0.219D-01-0.169D+00 0.368D+00-0.477D+00-0.696D-01 0.151D+01
 Coeff:     -0.347D+01 0.328D+01
 Gap=     0.404 Goal=   None    Shift=    0.500
 Gap=     0.256 Goal=   None    Shift=    0.500
 RMSDP=1.37D-05 MaxDP=2.03D-04 DE=-9.86D-07 OVMax= 7.15D-04

 Cycle  15  Pass 1  IDiag  1:
 E= -197.310818895092     Delta-E=       -0.000000338396 Rises=F Damp=F
 DIIS: error= 4.70D-05 at cycle  15 NSaved=  15.
 NSaved=15 IEnMin=15 EnMin= -197.310818895092     IErMin=15 ErrMin= 4.70D-05
 ErrMax= 4.70D-05  0.00D+00 EMaxC= 1.00D+00 BMatC= 6.17D-08 BMatP= 1.78D-07
 IDIUse=1 WtCom= 1.00D+00 WtEn= 0.00D+00
 Coeff-Com:  0.129D-03 0.153D-02-0.981D-02 0.126D-01 0.253D-02-0.270D-01
 Coeff-Com:  0.120D-01 0.765D-01-0.175D+00 0.243D+00-0.128D-01-0.960D+00
 Coeff-Com:  0.266D+01-0.478D+01 0.395D+01
 Coeff:      0.129D-03 0.153D-02-0.981D-02 0.126D-01 0.253D-02-0.270D-01
 Coeff:      0.120D-01 0.765D-01-0.175D+00 0.243D+00-0.128D-01-0.960D+00
 Coeff:      0.266D+01-0.478D+01 0.395D+01
 Gap=     0.404 Goal=   None    Shift=    0.500
 Gap=     0.256 Goal=   None    Shift=    0.500
 RMSDP=7.80D-06 MaxDP=1.13D-04 DE=-3.38D-07 OVMax= 4.10D-04

 Cycle  16  Pass 1  IDiag  1:
 E= -197.310819004963     Delta-E=       -0.000000109870 Rises=F Damp=F
 DIIS: error= 2.52D-05 at cycle  16 NSaved=  16.
 NSaved=16 IEnMin=16 EnMin= -197.310819004963     IErMin=16 ErrMin= 2.52D-05
 ErrMax= 2.52D-05  0.00D+00 EMaxC= 1.00D+00 BMatC= 2.15D-08 BMatP= 6.17D-08
 IDIUse=1 WtCom= 1.00D+00 WtEn= 0.00D+00
 Coeff-Com:  0.836D-05 0.412D-03 0.386D-03-0.236D-02 0.738D-02-0.111D-01
 Coeff-Com:  0.460D-02 0.166D-03 0.646D-01-0.217D+00 0.304D+00-0.228D+00
 Coeff-Com: -0.362D+00 0.176D+01-0.376D+01 0.344D+01
 Coeff:      0.836D-05 0.412D-03 0.386D-03-0.236D-02 0.738D-02-0.111D-01
 Coeff:      0.460D-02 0.166D-03 0.646D-01-0.217D+00 0.304D+00-0.228D+00
 Coeff:     -0.362D+00 0.176D+01-0.376D+01 0.344D+01
 Gap=     0.404 Goal=   None    Shift=    0.500
 Gap=     0.256 Goal=   None    Shift=    0.500
 RMSDP=4.33D-06 MaxDP=6.05D-05 DE=-1.10D-07 OVMax= 2.28D-04

 Cycle  17  Pass 1  IDiag  1:
 E= -197.310819039482     Delta-E=       -0.000000034519 Rises=F Damp=F
 DIIS: error= 1.33D-05 at cycle  17 NSaved=  17.
 NSaved=17 IEnMin=17 EnMin= -197.310819039482     IErMin=17 ErrMin= 1.33D-05
 ErrMax= 1.33D-05  0.00D+00 EMaxC= 1.00D+00 BMatC= 7.33D-09 BMatP= 2.15D-08
 IDIUse=1 WtCom= 1.00D+00 WtEn= 0.00D+00
 Coeff-Com:  0.508D-04-0.165D-03-0.857D-03 0.207D-02-0.312D-02 0.132D-02
 Coeff-Com:  0.296D-02 0.577D-02-0.422D-01 0.106D+00-0.120D+00-0.157D-02
 Coeff-Com:  0.398D+00-0.130D+01 0.277D+01-0.471D+01 0.389D+01
 Coeff:      0.508D-04-0.165D-03-0.857D-03 0.207D-02-0.312D-02 0.132D-02
 Coeff:      0.296D-02 0.577D-02-0.422D-01 0.106D+00-0.120D+00-0.157D-02
 Coeff:      0.398D+00-0.130D+01 0.277D+01-0.471D+01 0.389D+01
 Gap=     0.404 Goal=   None    Shift=    0.500
 Gap=     0.256 Goal=   None    Shift=    0.500
 RMSDP=2.32D-06 MaxDP=3.14D-05 DE=-3.45D-08 OVMax= 1.23D-04

 Cycle  18  Pass 1  IDiag  1:
 E= -197.310819050011     Delta-E=       -0.000000010529 Rises=F Damp=F
 DIIS: error= 7.37D-06 at cycle  18 NSaved=  18.
 NSaved=18 IEnMin=18 EnMin= -197.310819050011     IErMin=18 ErrMin= 7.37D-06
 ErrMax= 7.37D-06  0.00D+00 EMaxC= 1.00D+00 BMatC= 2.41D-09 BMatP= 7.33D-09
 IDIUse=1 WtCom= 1.00D+00 WtEn= 0.00D+00
 Coeff-Com:  0.821D-05 0.372D-03-0.157D-02 0.159D-02 0.219D-02-0.787D-02
 Coeff-Com:  0.451D-02 0.106D-01-0.150D-01-0.715D-04 0.406D-01-0.118D+00
 Coeff-Com:  0.187D+00-0.149D+00-0.275D+00 0.141D+01-0.345D+01 0.336D+01
 Coeff:      0.821D-05 0.372D-03-0.157D-02 0.159D-02 0.219D-02-0.787D-02
 Coeff:      0.451D-02 0.106D-01-0.150D-01-0.715D-04 0.406D-01-0.118D+00
 Coeff:      0.187D+00-0.149D+00-0.275D+00 0.141D+01-0.345D+01 0.336D+01
 Gap=     0.404 Goal=   None    Shift=    0.500
 Gap=     0.256 Goal=   None    Shift=    0.500
 RMSDP=1.22D-06 MaxDP=1.65D-05 DE=-1.05D-08 OVMax= 6.48D-05

 Cycle  19  Pass 1  IDiag  1:
 E= -197.310819053183     Delta-E=       -0.000000003172 Rises=F Damp=F
 DIIS: error= 4.44D-06 at cycle  19 NSaved=  19.
 NSaved=19 IEnMin=19 EnMin= -197.310819053183     IErMin=19 ErrMin= 4.44D-06
 ErrMax= 4.44D-06  0.00D+00 EMaxC= 1.00D+00 BMatC= 7.67D-10 BMatP= 2.41D-09
 IDIUse=1 WtCom= 1.00D+00 WtEn= 0.00D+00
 Coeff-Com:  0.478D-05 0.114D-03-0.445D-03 0.424D-03 0.576D-03-0.241D-02
 Coeff-Com:  0.215D-02 0.266D-02-0.625D-02 0.526D-02 0.566D-03-0.763D-02
 Coeff-Com:  0.668D-02 0.666D-02 0.194D-01-0.378D+00 0.128D+01-0.297D+01
 Coeff-Com:  0.304D+01
 Coeff:      0.478D-05 0.114D-03-0.445D-03 0.424D-03 0.576D-03-0.241D-02
 Coeff:      0.215D-02 0.266D-02-0.625D-02 0.526D-02 0.566D-03-0.763D-02
 Coeff:      0.668D-02 0.666D-02 0.194D-01-0.378D+00 0.128D+01-0.297D+01
 Coeff:      0.304D+01
 Gap=     0.404 Goal=   None    Shift=    0.500
 Gap=     0.256 Goal=   None    Shift=    0.500
 RMSDP=6.46D-07 MaxDP=8.91D-06 DE=-3.17D-09 OVMax= 3.44D-05

 SCF Done:  E(ULC-wHPBE) =  -197.310819053     A.U. after   19 cycles
            NFock= 19  Conv=0.65D-06     -V/T= 2.0225
 <Sx>= 0.0000 <Sy>= 0.0000 <Sz>= 0.5000 <S**2>= 0.8196 S= 0.5342
 <L.S>= 0.000000000000E+00
 KE= 1.929611058368D+02 PE=-7.527017301175D+02 EE= 2.064170627415D+02
 Annihilation of the first spin contaminant:
 S**2 before annihilation     0.8196,   after     0.7527
 Leave Link  502 at Thu Mar  5 13:02:35 2020, MaxMem=  6710886400 cpu:              31.3 elap:               2.0
 (Enter /opt/ohpc/pub/libs/gaussian/g16-A.03/sandybridge/g16/l508.exe)
 QCSCF skips out because SCF is already converged.
 Leave Link  508 at Thu Mar  5 13:02:35 2020, MaxMem=  6710886400 cpu:               0.2 elap:               0.0
 (Enter /opt/ohpc/pub/libs/gaussian/g16-A.03/sandybridge/g16/l601.exe)
 Copying SCF densities to generalized density rwf, IOpCl= 1 IROHF=0.

 **********************************************************************

            Population analysis using the SCF density.

 **********************************************************************

 Orbital symmetries:
 Alpha Orbitals:
       Occupied  (B2) (A1) (A1) (B2) (A1) (A1) (A1) (B2) (A1) (B2)
                 (A1) (B2) (A1) (A1) (B1) (B2) (A2) (B1)
       Virtual   (A2) (B2) (B1) (A1) (A1) (B2) (A1) (A1) (B2) (A1)
                 (B2) (A1) (B2) (B1) (B2) (B1) (A2) (A1) (A1) (B2)
                 (A1) (A2) (B1) (B2) (B2) (A1) (A1) (A1) (B2) (A1)
                 (B2) (A1) (A1) (B2) (A1) (B2) (A1) (A1) (B2)
 Beta  Orbitals:
       Occupied  (B2) (A1) (B2) (A1) (A1) (A1) (A1) (B2) (A1) (B2)
                 (A1) (B2) (A1) (A1) (B2) (B1) (A2)
       Virtual   (B1) (B2) (A2) (A1) (B1) (A1) (B2) (A1) (B2) (A1)
                 (A1) (B2) (A1) (B2) (B2) (B1) (A2) (A1) (B1) (A1)
                 (B2) (A1) (A2) (B1) (B2) (B2) (A1) (A1) (B2) (A1)
                 (B2) (A1) (A1) (A1) (B2) (A1) (B2) (A1) (A1) (B2)
 The electronic state is 2-B1.
 Alpha  occ. eigenvalues --  -10.47006 -10.47003 -10.41971 -10.41126 -10.41125
 Alpha  occ. eigenvalues --   -1.33619  -1.20663  -1.15722  -1.01887  -0.99593
 Alpha  occ. eigenvalues --   -0.94869  -0.84990  -0.82784  -0.81650  -0.80491
 Alpha  occ. eigenvalues --   -0.79297  -0.65610  -0.64604
 Alpha virt. eigenvalues --   -0.24196  -0.23665  -0.17216  -0.16550  -0.09891
 Alpha virt. eigenvalues --   -0.05141  -0.03147  -0.00728  -0.00706   0.10017
 Alpha virt. eigenvalues --    0.10345   0.20571   0.20920   0.29108   0.30039
 Alpha virt. eigenvalues --    0.36800   0.37343   0.38143   0.40085   0.40918
 Alpha virt. eigenvalues --    0.41266   0.44755   0.46236   0.53943   0.60721
 Alpha virt. eigenvalues --    0.63025   0.64103   0.66671   0.66738   0.72771
 Alpha virt. eigenvalues --    0.72941   0.77245   0.81465   0.88102   0.96170
 Alpha virt. eigenvalues --    0.97105   1.02995   1.24454   1.25980
  Beta  occ. eigenvalues --  -10.46375 -10.46370 -10.41468 -10.41467 -10.40985
  Beta  occ. eigenvalues --   -1.32295  -1.18694  -1.15502  -1.00776  -0.98843
  Beta  occ. eigenvalues --   -0.94623  -0.84718  -0.82520  -0.81086  -0.79155
  Beta  occ. eigenvalues --   -0.75826  -0.64216
  Beta virt. eigenvalues --   -0.38578  -0.22095  -0.21098  -0.16323  -0.13664
  Beta virt. eigenvalues --   -0.09469  -0.04872  -0.02948  -0.00783  -0.00064
  Beta virt. eigenvalues --    0.10509   0.10677   0.20985   0.21285   0.30454
  Beta virt. eigenvalues --    0.31572   0.38455   0.38717   0.39786   0.40452
  Beta virt. eigenvalues --    0.41283   0.42421   0.45308   0.47909   0.54520
  Beta virt. eigenvalues --    0.61158   0.63939   0.64578   0.66621   0.67132
  Beta virt. eigenvalues --    0.73228   0.73472   0.78070   0.82281   0.88075
  Beta virt. eigenvalues --    0.96652   0.97635   1.04212   1.25408   1.26858
          Condensed to atoms (all electrons):
               1          2          3          4          5          6
     1  C    5.375082   0.494908  -0.043545  -0.123503   0.178103   0.161929
     2  C    0.494908   4.967342   0.456730  -0.026934  -0.123503  -0.021139
     3  C   -0.043545   0.456730   4.890469   0.456730  -0.043545   0.007281
     4  C   -0.123503  -0.026934   0.456730   4.967342   0.494908  -0.021139
     5  C    0.178103  -0.123503  -0.043545   0.494908   5.375082   0.161929
     6  H    0.161929  -0.021139   0.007281  -0.021139   0.161929   0.347221
     7  H    0.335204   0.004742  -0.000397   0.003109  -0.015245  -0.009747
     8  H   -0.023062   0.360283  -0.011556   0.003744   0.000786   0.000344
     9  H    0.004804  -0.025836   0.362861  -0.025836   0.004804  -0.000033
    10  H    0.000786   0.003744  -0.011556   0.360283  -0.023062   0.000344
    11  H   -0.015245   0.003109  -0.000397   0.004742   0.335204  -0.009747
               7          8          9         10         11
     1  C    0.335204  -0.023062   0.004804   0.000786  -0.015245
     2  C    0.004742   0.360283  -0.025836   0.003744   0.003109
     3  C   -0.000397  -0.011556   0.362861  -0.011556  -0.000397
     4  C    0.003109   0.003744  -0.025836   0.360283   0.004742
     5  C   -0.015245   0.000786   0.004804  -0.023062   0.335204
     6  H   -0.009747   0.000344  -0.000033   0.000344  -0.009747
     7  H    0.338614   0.000151  -0.000049  -0.000015   0.000387
     8  H    0.000151   0.377391  -0.001106  -0.000078  -0.000015
     9  H   -0.000049  -0.001106   0.396148  -0.001106  -0.000049
    10  H   -0.000015  -0.000078  -0.001106   0.377391   0.000151
    11  H    0.000387  -0.000015  -0.000049   0.000151   0.338614
          Atomic-Atomic Spin Densities.
               1          2          3          4          5          6
     1  C    0.530079  -0.040651  -0.022614  -0.009544   0.021679  -0.004280
     2  C   -0.040651  -0.281949   0.027692   0.000193  -0.009544   0.000391
     3  C   -0.022614   0.027692   0.737905   0.027692  -0.022614   0.000204
     4  C   -0.009544   0.000193   0.027692  -0.281949  -0.040651   0.000391
     5  C    0.021679  -0.009544  -0.022614  -0.040651   0.530079  -0.004280
     6  H   -0.004280   0.000391   0.000204   0.000391  -0.004280  -0.016336
     7  H   -0.003129  -0.000562   0.000122  -0.000112   0.000182  -0.000126
     8  H   -0.000393   0.002158  -0.001112  -0.000138   0.000074   0.000025
     9  H   -0.000013  -0.000015  -0.001375  -0.000015  -0.000013  -0.000001
    10  H    0.000074  -0.000138  -0.001112   0.002158  -0.000393   0.000025
    11  H    0.000182  -0.000112   0.000122  -0.000562  -0.003129  -0.000126
               7          8          9         10         11
     1  C   -0.003129  -0.000393  -0.000013   0.000074   0.000182
     2  C   -0.000562   0.002158  -0.000015  -0.000138  -0.000112
     3  C    0.000122  -0.001112  -0.001375  -0.001112   0.000122
     4  C   -0.000112  -0.000138  -0.000015   0.002158  -0.000562
     5  C    0.000182   0.000074  -0.000013  -0.000393  -0.003129
     6  H   -0.000126   0.000025  -0.000001   0.000025  -0.000126
     7  H   -0.019335   0.000051   0.000004  -0.000000  -0.000076
     8  H    0.000051   0.008358   0.000007  -0.000000  -0.000000
     9  H    0.000004   0.000007  -0.029178   0.000007   0.000004
    10  H   -0.000000  -0.000000   0.000007   0.008358   0.000051
    11  H   -0.000076  -0.000000   0.000004   0.000051  -0.019335
 Mulliken charges and spin densities:
               1          2
     1  C   -0.345462   0.471388
     2  C   -0.093444  -0.302540
     3  C   -0.063074   0.744910
     4  C   -0.093444  -0.302540
     5  C   -0.345462   0.471388
     6  H    0.382756  -0.024114
     7  H    0.343247  -0.022982
     8  H    0.293119   0.009030
     9  H    0.285397  -0.030589
    10  H    0.293119   0.009030
    11  H    0.343247  -0.022982
 Sum of Mulliken charges =   1.00000   1.00000
 Mulliken charges and spin densities with hydrogens summed into heavy atoms:
               1          2
     1  C    0.380541   0.424292
     2  C    0.199675  -0.293509
     3  C    0.222323   0.714321
     4  C    0.199675  -0.293509
     5  C   -0.002215   0.448406
 Electronic spatial extent (au):  <R**2>=            317.7010
 Charge=              1.0000 electrons
 Dipole moment (field-independent basis, Debye):
    X=             -0.0000    Y=             -0.0000    Z=             -2.0491  Tot=              2.0491
 Quadrupole moment (field-independent basis, Debye-Ang):
   XX=            -30.8120   YY=            -16.9468   ZZ=            -12.6305
   XY=              0.0000   XZ=              0.0000   YZ=             -0.0000
 Traceless Quadrupole moment (field-independent basis, Debye-Ang):
   XX=            -10.6823   YY=              3.1829   ZZ=              7.4993
   XY=              0.0000   XZ=              0.0000   YZ=             -0.0000
 Octapole moment (field-independent basis, Debye-Ang**2):
  XXX=              0.0000  YYY=              0.0000  ZZZ=             -7.5990  XYY=             -0.0000
  XXY=              0.0000  XXZ=              0.6479  XZZ=              0.0000  YZZ=              0.0000
  YYZ=             -2.7100  XYZ=             -0.0000
 Hexadecapole moment (field-independent basis, Debye-Ang**3):
 XXXX=            -30.2688 YYYY=           -139.6352 ZZZZ=           -120.5787 XXXY=             -0.0000
 XXXZ=             -0.0000 YYYX=             -0.0000 YYYZ=              0.0000 ZZZX=              0.0000
 ZZZY=             -0.0000 XXYY=            -41.3389 XXZZ=            -37.9514 YYZZ=            -41.1125
 XXYZ=              0.0000 YYXZ=             -0.0000 ZZXY=             -0.0000
 N-N= 1.560127424860D+02 E-N=-7.527017348609D+02  KE= 1.929611058368D+02
 Symmetry A1   KE= 1.114857686825D+02
 Symmetry A2   KE= 2.561731618417D+00
 Symmetry B1   KE= 3.303608672059D+00
 Symmetry B2   KE= 7.560999686381D+01
 Symmetry A1   SP= 2.396190393322D-14
 Symmetry A2   SP=-3.191891195797D-15
 Symmetry B1   SP= 1.000000000000D+00
 Symmetry B2   SP= 4.480613877969D-14
                          Isotropic Fermi Contact Couplings
        Atom                 a.u.       MegaHertz       Gauss      10(-4) cm-1
     1  C(13)              0.07638      85.86790      30.63980      28.64245
     2  C(13)             -0.05405     -60.76794     -21.68351     -20.27000
     3  C(13)              0.11216     126.09315      44.99317      42.06015
     4  C(13)             -0.05405     -60.76794     -21.68351     -20.27000
     5  C(13)              0.07638      85.86790      30.63980      28.64245
     6  H(1)              -0.00919     -41.07676     -14.65721     -13.70173
     7  H(1)              -0.01002     -44.79004     -15.98220     -14.94035
     8  H(1)               0.00368      16.44480       5.86791       5.48540
     9  H(1)              -0.01406     -62.83353     -22.42057     -20.95901
    10  H(1)               0.00368      16.44480       5.86791       5.48540
    11  H(1)              -0.01002     -44.79004     -15.98220     -14.94035
 --------------------------------------------------------
       Center         ----  Spin Dipole Couplings  ----
                      3XX-RR        3YY-RR        3ZZ-RR
 --------------------------------------------------------
     1   Atom        0.493548     -0.240366     -0.253181
     2   Atom       -0.203076      0.099502      0.103574
     3   Atom        0.708866     -0.362315     -0.346551
     4   Atom       -0.203076      0.099502      0.103574
     5   Atom        0.493548     -0.240366     -0.253181
     6   Atom       -0.008320      0.008129      0.000191
     7   Atom       -0.006694      0.006951     -0.000257
     8   Atom       -0.006177     -0.001565      0.007742
     9   Atom       -0.008589     -0.046099      0.054689
    10   Atom       -0.006177     -0.001565      0.007742
    11   Atom       -0.006694      0.006951     -0.000257
 --------------------------------------------------------
                        XY            XZ            YZ
 --------------------------------------------------------
     1   Atom       -0.000000      0.000000     -0.008324
     2   Atom       -0.000000      0.000000     -0.005216
     3   Atom       -0.000000     -0.000000     -0.000000
     4   Atom       -0.000000     -0.000000      0.005216
     5   Atom        0.000000      0.000000      0.008324
     6   Atom       -0.000000      0.000000     -0.000000
     7   Atom        0.000000      0.000000     -0.035755
     8   Atom       -0.000000      0.000000     -0.006476
     9   Atom       -0.000000     -0.000000      0.000000
    10   Atom        0.000000     -0.000000      0.006476
    11   Atom       -0.000000     -0.000000      0.035755
 --------------------------------------------------------


 ---------------------------------------------------------------------------------
              Anisotropic Spin Dipole Couplings in Principal Axis System
 ---------------------------------------------------------------------------------

       Atom             a.u.   MegaHertz   Gauss  10(-4) cm-1        Axes

              Baa    -0.2573   -34.524   -12.319   -11.516 -0.0000  0.4416  0.8972
     1 C(13)  Bbb    -0.2363   -31.705   -11.313   -10.576 -0.0000  0.8972 -0.4416
              Bcc     0.4935    66.229    23.632    22.092  1.0000  0.0000  0.0000
 
              Baa    -0.2031   -27.251    -9.724    -9.090  1.0000  0.0000  0.0000
     2 C(13)  Bbb     0.0959    12.874     4.594     4.294 -0.0000  0.8257  0.5641
              Bcc     0.1071    14.377     5.130     4.796  0.0000 -0.5641  0.8257
 
              Baa    -0.3623   -48.619   -17.349   -16.218  0.0000  1.0000 -0.0000
     3 C(13)  Bbb    -0.3466   -46.504   -16.594   -15.512  0.0000  0.0000  1.0000
              Bcc     0.7089    95.123    33.942    31.730  1.0000 -0.0000 -0.0000
 
              Baa    -0.2031   -27.251    -9.724    -9.090  1.0000  0.0000  0.0000
     4 C(13)  Bbb     0.0959    12.874     4.594     4.294 -0.0000  0.8257 -0.5641
              Bcc     0.1071    14.377     5.130     4.796 -0.0000  0.5641  0.8257
 
              Baa    -0.2573   -34.524   -12.319   -11.516 -0.0000 -0.4416  0.8972
     5 C(13)  Bbb    -0.2363   -31.705   -11.313   -10.576  0.0000  0.8972  0.4416
              Bcc     0.4935    66.229    23.632    22.092  1.0000 -0.0000  0.0000
 
              Baa    -0.0083    -4.439    -1.584    -1.481  1.0000 -0.0000 -0.0000
     6 H(1)   Bbb     0.0002     0.102     0.036     0.034  0.0000  0.0000  1.0000
              Bcc     0.0081     4.337     1.548     1.447  0.0000  1.0000 -0.0000
 
              Baa    -0.0326   -17.388    -6.205    -5.800 -0.0000  0.6707  0.7417
     7 H(1)   Bbb    -0.0067    -3.572    -1.274    -1.191  1.0000  0.0000  0.0000
              Bcc     0.0393    20.960     7.479     6.991 -0.0000  0.7417 -0.6707
 
              Baa    -0.0062    -3.296    -1.176    -1.099  1.0000  0.0000  0.0000
     8 H(1)   Bbb    -0.0049    -2.607    -0.930    -0.870 -0.0000  0.8898  0.4563
              Bcc     0.0111     5.903     2.106     1.969  0.0000 -0.4563  0.8898
 
              Baa    -0.0461   -24.597    -8.777    -8.205 -0.0000  1.0000 -0.0000
     9 H(1)   Bbb    -0.0086    -4.583    -1.635    -1.529  1.0000  0.0000  0.0000
              Bcc     0.0547    29.179    10.412     9.733  0.0000  0.0000  1.0000
 
              Baa    -0.0062    -3.296    -1.176    -1.099  1.0000 -0.0000  0.0000
    10 H(1)   Bbb    -0.0049    -2.607    -0.930    -0.870  0.0000  0.8898 -0.4563
              Bcc     0.0111     5.903     2.106     1.969  0.0000  0.4563  0.8898
 
              Baa    -0.0326   -17.388    -6.205    -5.800  0.0000 -0.6707  0.7417
    11 H(1)   Bbb    -0.0067    -3.572    -1.274    -1.191  1.0000  0.0000  0.0000
              Bcc     0.0393    20.960     7.479     6.991 -0.0000  0.7417  0.6707
 

 ---------------------------------------------------------------------------------

 No NMR shielding tensors so no spin-rotation constants.
 Leave Link  601 at Thu Mar  5 13:02:35 2020, MaxMem=  6710886400 cpu:               4.0 elap:               0.3
 (Enter /opt/ohpc/pub/libs/gaussian/g16-A.03/sandybridge/g16/l9999.exe)

 Test job not archived.
 1\1\GINC-CNODE212\SP\ULC-wHPBE\6-31G\C5H6(1+,2)\SMGO234\05-Mar-2020\0\
 \#P uLC-wHPBE/6-31G iop(3/130=0219000000, 3/131=0219000000, 3/119=0781
 000000, 3/120=0781000000) scf=(conver=6,fermi,ndamp=35,noincfock,novar
 acc,vshift=500,xqc)\\H6 C5\\1,2\C,0,0.,0.878804,-0.931542\C,0,0.,1.128
 157,0.423457\C,0,0.,0.,1.240879\C,0,0.,-1.128157,0.423457\C,0,0.,-0.87
 8804,-0.931542\H,0,0.,0.,-1.732269\H,0,0.,1.6083,-1.734053\H,0,0.,2.15
 6626,0.76567\H,0,0.,0.,2.320778\H,0,0.,-2.156626,0.76567\H,0,0.,-1.608
 3,-1.734053\\Version=EM64L-G16RevA.03\State=2-B1\HF=-197.3108191\S2=0.
 819586\S2-1=0.\S2A=0.752738\RMSD=6.459e-07\Dipole=0.,0.,-0.8061604\Qua
 drupole=-7.9419921,2.3664351,5.575557,0.,0.,0.\PG=C02V [C2(H1C1H1),SGV
 (C4H4)]\\@


 THE ATTENTION SPAN OF A COMPUTER IS AS LONG
 AS ITS EXTENSION CORD.
 Job cpu time:       0 days  0 hours  1 minutes  9.0 seconds.
 Elapsed time:       0 days  0 hours  0 minutes  4.8 seconds.
 File lengths (MBytes):  RWF=    272 Int=      0 D2E=      0 Chk=     32 Scr=     32
 Normal termination of Gaussian 16 at Thu Mar  5 13:02:35 2020.
