 Entering Gaussian System, Link 0=g16
 Input=a1b_tune_n7.gjf
 Output=a1b_tune_n7.log
 Initial command:
 /opt/ohpc/pub/libs/gaussian/g16-A.03/sandybridge/g16/l1.exe "/scratch/smgo234/Ocelot/test/a1b/tuning_a1b_acycle3/Gau-90833.inp" -scrdir="/scratch/smgo234/Ocelot/test/a1b/tuning_a1b_acycle3/"
 Entering Link 1 = /opt/ohpc/pub/libs/gaussian/g16-A.03/sandybridge/g16/l1.exe PID=     90834.
  
 Copyright (c) 1988,1990,1992,1993,1995,1998,2003,2009,2016,
            Gaussian, Inc.  All Rights Reserved.
  
 This is part of the Gaussian(R) 16 program.  It is based on
 the Gaussian(R) 09 system (copyright 2009, Gaussian, Inc.),
 the Gaussian(R) 03 system (copyright 2003, Gaussian, Inc.),
 the Gaussian(R) 98 system (copyright 1998, Gaussian, Inc.),
 the Gaussian(R) 94 system (copyright 1995, Gaussian, Inc.),
 the Gaussian 92(TM) system (copyright 1992, Gaussian, Inc.),
 the Gaussian 90(TM) system (copyright 1990, Gaussian, Inc.),
 the Gaussian 88(TM) system (copyright 1988, Gaussian, Inc.),
 the Gaussian 86(TM) system (copyright 1986, Carnegie Mellon
 University), and the Gaussian 82(TM) system (copyright 1983,
 Carnegie Mellon University). Gaussian is a federally registered
 trademark of Gaussian, Inc.
  
 This software contains proprietary and confidential information,
 including trade secrets, belonging to Gaussian, Inc.
  
 This software is provided under written license and may be
 used, copied, transmitted, or stored only in accord with that
 written license.
  
 The following legend is applicable only to US Government
 contracts under FAR:
  
                    RESTRICTED RIGHTS LEGEND
  
 Use, reproduction and disclosure by the US Government is
 subject to restrictions as set forth in subparagraphs (a)
 and (c) of the Commercial Computer Software - Restricted
 Rights clause in FAR 52.227-19.
  
 Gaussian, Inc.
 340 Quinnipiac St., Bldg. 40, Wallingford CT 06492
  
  
 ---------------------------------------------------------------
 Warning -- This program may not be used in any manner that
 competes with the business of Gaussian, Inc. or will provide
 assistance to any competitor of Gaussian, Inc.  The licensee
 of this program is prohibited from giving any competitor of
 Gaussian, Inc. access to this program.  By using this program,
 the user acknowledges that Gaussian, Inc. is engaged in the
 business of creating and licensing software in the field of
 computational chemistry and represents and warrants to the
 licensee that it is not a competitor of Gaussian, Inc. and that
 it will not use this program in any manner prohibited above.
 ---------------------------------------------------------------
  

 Cite this work as:
 Gaussian 16, Revision A.03,
 M. J. Frisch, G. W. Trucks, H. B. Schlegel, G. E. Scuseria, 
 M. A. Robb, J. R. Cheeseman, G. Scalmani, V. Barone, 
 G. A. Petersson, H. Nakatsuji, X. Li, M. Caricato, A. V. Marenich, 
 J. Bloino, B. G. Janesko, R. Gomperts, B. Mennucci, H. P. Hratchian, 
 J. V. Ortiz, A. F. Izmaylov, J. L. Sonnenberg, D. Williams-Young, 
 F. Ding, F. Lipparini, F. Egidi, J. Goings, B. Peng, A. Petrone, 
 T. Henderson, D. Ranasinghe, V. G. Zakrzewski, J. Gao, N. Rega, 
 G. Zheng, W. Liang, M. Hada, M. Ehara, K. Toyota, R. Fukuda, 
 J. Hasegawa, M. Ishida, T. Nakajima, Y. Honda, O. Kitao, H. Nakai, 
 T. Vreven, K. Throssell, J. A. Montgomery, Jr., J. E. Peralta, 
 F. Ogliaro, M. J. Bearpark, J. J. Heyd, E. N. Brothers, K. N. Kudin, 
 V. N. Staroverov, T. A. Keith, R. Kobayashi, J. Normand, 
 K. Raghavachari, A. P. Rendell, J. C. Burant, S. S. Iyengar, 
 J. Tomasi, M. Cossi, J. M. Millam, M. Klene, C. Adamo, R. Cammi, 
 J. W. Ochterski, R. L. Martin, K. Morokuma, O. Farkas, 
 J. B. Foresman, and D. J. Fox, Gaussian, Inc., Wallingford CT, 2016.
 
 ******************************************
 Gaussian 16:  EM64L-G16RevA.03 25-Dec-2016
                 5-Mar-2020 
 ******************************************
 %mem=50GB
 %nproc=16
 Will use up to   16 processors via shared memory.
 ----------------------------------------------------------------------
 #P uLC-wHPBE/6-31G iop(3/130=0111900000, 3/131=0111900000, 3/119=08881
 00000, 3/120=0888100000) scf=(conver=6,fermi,ndamp=35,noincfock,novara
 cc,vshift=500,xqc)
 ----------------------------------------------------------------------
 1/38=1,172=1/1;
 2/12=2,17=6,18=5,40=1/2;
 3/5=1,6=6,11=2,25=1,30=1,74=-71,116=2,119=888100000,120=888100000,130=111900000,131=111900000/1,2,3;
 4//1;
 5/5=100002,6=6,8=3,10=500,13=1,18=-1,22=13,38=1,93=35/2,8;
 6/7=2,8=2,9=2,10=2,28=1/1;
 99/5=1,9=1/99;
 Leave Link    1 at Thu Mar  5 13:03:10 2020, MaxMem=  6710886400 cpu:              17.4 elap:               1.2
 (Enter /opt/ohpc/pub/libs/gaussian/g16-A.03/sandybridge/g16/l101.exe)
 -----
 H6 C5
 -----
 Symbolic Z-matrix:
 Charge =  0 Multiplicity = 1
 C                     0.        0.8788   -0.93154 
 C                     0.        1.12816   0.42346 
 C                     0.        0.        1.24088 
 C                     0.       -1.12816   0.42346 
 C                     0.       -0.8788   -0.93154 
 H                     0.        0.       -1.73227 
 H                     0.        1.6083   -1.73405 
 H                     0.        2.15663   0.76567 
 H                     0.        0.        2.32078 
 H                     0.       -2.15663   0.76567 
 H                     0.       -1.6083   -1.73405 
 
 ITRead=  0  0  0  0  0  0  0  0  0  0  0
 MicOpt= -1 -1 -1 -1 -1 -1 -1 -1 -1 -1 -1
 NAtoms=     11 NQM=       11 NQMF=       0 NMMI=      0 NMMIF=      0
                NMic=       0 NMicF=      0.
                    Isotopes and Nuclear Properties:
 (Nuclear quadrupole moments (NQMom) in fm**2, nuclear magnetic moments (NMagM)
  in nuclear magnetons)

  Atom         1           2           3           4           5           6           7           8           9          10
 IAtWgt=          12          12          12          12          12           1           1           1           1           1
 AtmWgt=  12.0000000  12.0000000  12.0000000  12.0000000  12.0000000   1.0078250   1.0078250   1.0078250   1.0078250   1.0078250
 NucSpn=           0           0           0           0           0           1           1           1           1           1
 AtZEff=  -0.0000000  -0.0000000  -0.0000000  -0.0000000  -0.0000000  -0.0000000  -0.0000000  -0.0000000  -0.0000000  -0.0000000
 NQMom=    0.0000000   0.0000000   0.0000000   0.0000000   0.0000000   0.0000000   0.0000000   0.0000000   0.0000000   0.0000000
 NMagM=    0.0000000   0.0000000   0.0000000   0.0000000   0.0000000   2.7928460   2.7928460   2.7928460   2.7928460   2.7928460
 AtZNuc=   6.0000000   6.0000000   6.0000000   6.0000000   6.0000000   1.0000000   1.0000000   1.0000000   1.0000000   1.0000000

  Atom        11
 IAtWgt=           1
 AtmWgt=   1.0078250
 NucSpn=           1
 AtZEff=  -0.0000000
 NQMom=    0.0000000
 NMagM=    2.7928460
 AtZNuc=   1.0000000
 Leave Link  101 at Thu Mar  5 13:03:10 2020, MaxMem=  6710886400 cpu:               2.9 elap:               0.2
 (Enter /opt/ohpc/pub/libs/gaussian/g16-A.03/sandybridge/g16/l202.exe)
                          Input orientation:                          
 ---------------------------------------------------------------------
 Center     Atomic      Atomic             Coordinates (Angstroms)
 Number     Number       Type             X           Y           Z
 ---------------------------------------------------------------------
      1          6           0        0.000000    0.878804   -0.931542
      2          6           0        0.000000    1.128157    0.423457
      3          6           0        0.000000    0.000000    1.240879
      4          6           0        0.000000   -1.128157    0.423457
      5          6           0        0.000000   -0.878804   -0.931542
      6          1           0        0.000000    0.000000   -1.732269
      7          1           0        0.000000    1.608300   -1.734053
      8          1           0        0.000000    2.156626    0.765670
      9          1           0        0.000000    0.000000    2.320778
     10          1           0        0.000000   -2.156626    0.765670
     11          1           0        0.000000   -1.608300   -1.734053
 ---------------------------------------------------------------------
                    Distance matrix (angstroms):
                    1          2          3          4          5
     1  C    0.000000
     2  C    1.377752   0.000000
     3  C    2.343440   1.393168   0.000000
     4  C    2.421552   2.256314   1.393168   0.000000
     5  C    1.757608   2.421552   2.343440   1.377752   0.000000
     6  H    1.188890   2.433083   2.973148   2.433083   1.188890
     7  H    1.084522   2.210291   3.381841   3.484687   2.613371
     8  H    2.124466   1.083909   2.208361   3.302561   3.477695
     9  H    3.368959   2.207389   1.079899   2.207389   3.368959
    10  H    3.477695   3.302561   2.208361   1.083909   2.124466
    11  H    2.613371   3.484687   3.381841   2.210291   1.084522
                    6          7          8          9         10
     6  H    0.000000
     7  H    1.608301   0.000000
     8  H    3.300111   2.559155   0.000000
     9  H    4.053047   4.362142   2.658834   0.000000
    10  H    3.300111   4.519213   4.313252   2.658834   0.000000
    11  H    1.608301   3.216600   4.519213   4.362142   2.559155
                   11
    11  H    0.000000
 Stoichiometry    C5H6
 Framework group  C2V[C2(HCH),SGV(C4H4)]
 Deg. of freedom    10
 Full point group                 C2V     NOp   4
 Largest Abelian subgroup         C2V     NOp   4
 Largest concise Abelian subgroup C2      NOp   2
                         Standard orientation:                         
 ---------------------------------------------------------------------
 Center     Atomic      Atomic             Coordinates (Angstroms)
 Number     Number       Type             X           Y           Z
 ---------------------------------------------------------------------
      1          6           0        0.000000    0.878804   -0.931542
      2          6           0        0.000000    1.128157    0.423457
      3          6           0        0.000000   -0.000000    1.240879
      4          6           0       -0.000000   -1.128157    0.423457
      5          6           0       -0.000000   -0.878804   -0.931542
      6          1           0       -0.000000    0.000000   -1.732269
      7          1           0        0.000000    1.608300   -1.734053
      8          1           0        0.000000    2.156626    0.765670
      9          1           0        0.000000   -0.000000    2.320778
     10          1           0       -0.000000   -2.156626    0.765670
     11          1           0       -0.000000   -1.608300   -1.734053
 ---------------------------------------------------------------------
 Rotational constants (GHZ):           8.5259551           7.9375455           4.1106177
 Leave Link  202 at Thu Mar  5 13:03:11 2020, MaxMem=  6710886400 cpu:               0.2 elap:               0.0
 (Enter /opt/ohpc/pub/libs/gaussian/g16-A.03/sandybridge/g16/l301.exe)
 Standard basis: 6-31G (6D, 7F)
 Ernie: Thresh=  0.10000D-02 Tol=  0.10000D-05 Strict=F.
 There are    27 symmetry adapted cartesian basis functions of A1  symmetry.
 There are     4 symmetry adapted cartesian basis functions of A2  symmetry.
 There are     6 symmetry adapted cartesian basis functions of B1  symmetry.
 There are    20 symmetry adapted cartesian basis functions of B2  symmetry.
 There are    27 symmetry adapted basis functions of A1  symmetry.
 There are     4 symmetry adapted basis functions of A2  symmetry.
 There are     6 symmetry adapted basis functions of B1  symmetry.
 There are    20 symmetry adapted basis functions of B2  symmetry.
    57 basis functions,   134 primitive gaussians,    57 cartesian basis functions
    18 alpha electrons       18 beta electrons
       nuclear repulsion energy       156.0127424860 Hartrees.
 IExCor=33909 DFT=T Ex+Corr=LC-wHPBE ExCW=0 ScaHFX=  1.000000
 ScaDFX=  1.000000  1.000000  1.000000  1.000000 ScalE2=  1.000000  1.000000
 IRadAn=      5 IRanWt=     -1 IRanGd=            0 ICorTp=0 IEmpDi=  4
 HFx  wShort=  0.000000 wLong=  0.400000 cFull=  0.000000 cShort=  0.000000 cLong= -0.888100
 DFx  wShort=  0.000000 wLong=  0.400000 cFull=  0.000000 cShort=  1.000000 cLong= -0.888100
 NAtoms=   11 NActive=   11 NUniq=    7 SFac= 2.47D+00 NAtFMM=   60 NAOKFM=F Big=F
 Integral buffers will be    131072 words long.
 Raffenetti 2 integral format.
 Two-electron integral symmetry is turned on.
 Leave Link  301 at Thu Mar  5 13:03:11 2020, MaxMem=  6710886400 cpu:               1.0 elap:               0.1
 (Enter /opt/ohpc/pub/libs/gaussian/g16-A.03/sandybridge/g16/l302.exe)
 NPDir=0 NMtPBC=     1 NCelOv=     1 NCel=       1 NClECP=     1 NCelD=      1
         NCelK=      1 NCelE2=     1 NClLst=     1 CellRange=     0.0.
 One-electron integrals computed using PRISM.
 One-electron integral symmetry used in STVInt
 NBasis=    57 RedAO= T EigKep=  1.84D-03  NBF=    27     4     6    20
 NBsUse=    57 1.00D-06 EigRej= -1.00D+00 NBFU=    27     4     6    20
 Precomputing XC quadrature grid using
 IXCGrd= 4 IRadAn=           5 IRanWt=          -1 IRanGd=           0 AccXCQ= 0.00D+00.
 Generated NRdTot=       0 NPtTot=           0 NUsed=           0 NTot=          32
 NSgBfM=    57    57    57    57    57 MxSgAt=    11 MxSgA2=    11.
 Leave Link  302 at Thu Mar  5 13:03:11 2020, MaxMem=  6710886400 cpu:               1.9 elap:               0.1
 (Enter /opt/ohpc/pub/libs/gaussian/g16-A.03/sandybridge/g16/l303.exe)
 DipDrv:  MaxL=1.
 Leave Link  303 at Thu Mar  5 13:03:11 2020, MaxMem=  6710886400 cpu:               0.4 elap:               0.0
 (Enter /opt/ohpc/pub/libs/gaussian/g16-A.03/sandybridge/g16/l401.exe)
 ExpMin= 1.61D-01 ExpMax= 3.05D+03 ExpMxC= 4.57D+02 IAcc=3 IRadAn=         5 AccDes= 0.00D+00
 Harris functional with IExCor=33909 and IRadAn=       5 diagonalized for initial guess.
 HarFok:  IExCor=33909 AccDes= 0.00D+00 IRadAn=         5 IDoV= 1 UseB2=F ITyADJ=14
 ICtDFT=  3500011 ScaDFX=  1.000000  1.000000  1.000000  1.000000
 FoFCou: FMM=F IPFlag=           0 FMFlag=      100000 FMFlg1=           0
         NFxFlg=           0 DoJE=T BraDBF=F KetDBF=T FulRan=T
         wScrn=  0.000000 ICntrl=       500 IOpCl=  0 I1Cent=   200000004 NGrid=           0
         NMat0=    1 NMatS0=      1 NMatT0=    0 NMatD0=    1 NMtDS0=    0 NMtDT0=    0
 Petite list used in FoFCou.
 Harris En= -180.535731353458    
 JPrj=0 DoOrth=F DoCkMO=F.
 Initial guess orbital symmetries:
 Alpha Orbitals:
       Occupied  (A1) (B2) (A1) (B2) (A1) (A1) (A1) (B2) (A1) (B2)
                 (A1) (B2) (A1) (B2) (A1) (B1) (A2) (B1)
       Virtual   (A2) (B2) (B1) (A1) (A1) (B2) (A1) (B2) (A1) (A1)
                 (B2) (B2) (A1) (B1) (B2) (A2) (B1) (A1) (B2) (A1)
                 (A1) (A2) (B1) (B2) (B2) (A1) (B2) (A1) (A1) (B2)
                 (A1) (A1) (A1) (B2) (A1) (B2) (A1) (A1) (B2)
 Beta  Orbitals:
       Occupied  (A1) (B2) (A1) (B2) (A1) (A1) (A1) (B2) (A1) (B2)
                 (A1) (B2) (A1) (B2) (A1) (B1) (A2) (B1)
       Virtual   (A2) (B2) (B1) (A1) (A1) (B2) (A1) (B2) (A1) (A1)
                 (B2) (B2) (A1) (B1) (B2) (A2) (B1) (A1) (B2) (A1)
                 (A1) (A2) (B1) (B2) (B2) (A1) (B2) (A1) (A1) (B2)
                 (A1) (A1) (A1) (B2) (A1) (B2) (A1) (A1) (B2)
 The electronic state of the initial guess is 1-A1.
 Initial guess <Sx>= 0.0000 <Sy>= 0.0000 <Sz>= 0.0000 <S**2>= 0.0000 S= 0.0000
 Leave Link  401 at Thu Mar  5 13:03:11 2020, MaxMem=  6710886400 cpu:               3.1 elap:               0.2
 (Enter /opt/ohpc/pub/libs/gaussian/g16-A.03/sandybridge/g16/l502.exe)
 Keep R1 and R2 ints in memory in symmetry-blocked form, NReq=16815681.
 FoFCou: FMM=F IPFlag=           0 FMFlag=           0 FMFlg1=           0
         NFxFlg=           0 DoJE=F BraDBF=F KetDBF=F FulRan=T
         wScrn=  0.000000 ICntrl=       600 IOpCl=  0 I1Cent=           0 NGrid=           0
         NMat0=    1 NMatS0=   1653 NMatT0=    0 NMatD0=    1 NMtDS0=    0 NMtDT0=    0
 Petite list used in FoFCou.
 UHF open shell SCF:
 Using DIIS extrapolation, IDIIS=    10.
 NGot=  6710886400 LenX=  6710059561 LenY=  6710055871
 Requested convergence on RMS density matrix=1.00D-06 within  32 cycles.
 Requested convergence on MAX density matrix=1.00D-04.
 Requested convergence on             energy=1.00D-04.
 Virtual orbitals will be shifted by   0.500 hartree.
 No special actions if energy rises.
 Dynamic level shift is on during FON iterations.

 Cycle   1  Pass 1  IDiag  1:
 E= -174.086677473714    
 DIIS: error= 3.81D-02 at cycle   1 NSaved=   1.
 NSaved= 1 IEnMin= 1 EnMin= -174.086677473714     IErMin= 1 ErrMin= 3.81D-02
 ErrMax= 3.81D-02  0.00D+00 EMaxC= 1.00D+00 BMatC= 3.67D-01 BMatP= 3.67D-01
 IDIUse=1 WtCom= 1.00D+00 WtEn= 0.00D+00
 Coeff-Com:  0.100D+01
 Coeff:      0.100D+01
 Gap=    -0.068 Goal=   None    Shift=    0.500
 T= 1639. Gap= 0.389 NK=0 IS=   19 IE=   57 IFin=   18
          NO(<0.9)=   0  NV(>0.1)=   0     18.00e < EF      0.00e >EF  Err=0.0D+00
 Gap=    -0.068 Goal=   None    Shift=    0.500
 T= 1639. Gap= 0.389 NK=0 IS=   19 IE=   57 IFin=   18
          NO(<0.9)=   0  NV(>0.1)=   0     18.00e < EF      0.00e >EF  Err=0.0D+00
 GapD=   -0.068 DampG=0.250 DampE=0.500 DampFc=0.1250 IDamp=-1.
 Damping current iteration by 1.25D-01
 RMSDP=2.53D-01 MaxDP=5.66D+00              OVMax= 1.46D-01

 Cycle   2  Pass 1  IDiag  1:
 E= -174.153008970345     Delta-E=       -0.066331496631 Rises=F Damp=T
 DIIS: error= 2.63D-02 at cycle   2 NSaved=   2.
 NSaved= 2 IEnMin= 2 EnMin= -174.153008970345     IErMin= 2 ErrMin= 2.63D-02
 ErrMax= 2.63D-02  0.00D+00 EMaxC= 1.00D+00 BMatC= 1.48D-01 BMatP= 3.67D-01
 IDIUse=1 WtCom= 1.00D+00 WtEn= 0.00D+00
 Coeff-Com: -0.146D+01 0.246D+01
 Coeff:     -0.146D+01 0.246D+01
 Gap=     0.031 Goal=   None    Shift=    0.500
 T= 1574. Gap= 0.428 NK=0 IS=   19 IE=   57 IFin=   18
          NO(<0.9)=   0  NV(>0.1)=   0     18.00e < EF      0.00e >EF  Err=0.0D+00
 Gap=     0.031 Goal=   None    Shift=    0.500
 T= 1574. Gap= 0.428 NK=0 IS=   19 IE=   57 IFin=   18
          NO(<0.9)=   0  NV(>0.1)=   0     18.00e < EF      0.00e >EF  Err=0.0D+00
 GapD=    0.031 DampG=0.250 DampE=0.500 DampFc=0.1250 IDamp=-1.
 Damping current iteration by 1.25D-01
 RMSDP=4.20D-02 MaxDP=4.86D-01 DE=-6.63D-02 OVMax= 1.38D-01

 Cycle   3  Pass 1  IDiag  1:
 E= -174.139004338453     Delta-E=        0.014004631892 Rises=F Damp=T
 DIIS: error= 1.92D-02 at cycle   3 NSaved=   3.
 NSaved= 3 IEnMin= 2 EnMin= -174.153008970345     IErMin= 3 ErrMin= 1.92D-02
 ErrMax= 1.92D-02  0.00D+00 EMaxC= 1.00D+00 BMatC= 6.98D-02 BMatP= 1.48D-01
 IDIUse=1 WtCom= 1.00D+00 WtEn= 0.00D+00
 Coeff-Com: -0.120D+01 0.180D+01 0.397D+00
 Coeff:     -0.120D+01 0.180D+01 0.397D+00
 Gap=     0.006 Goal=   None    Shift=    0.000
 T= 1451. Gap= 0.030 NK=0 IS=    1 IE=   57 IFin=   21
          NO(<0.9)=   0  NV(>0.1)=   0     17.96e < EF      0.04e >EF  Err=0.0D+00
 Gap=     0.006 Goal=   None    Shift=    0.000
 T= 1451. Gap= 0.030 NK=0 IS=    1 IE=   57 IFin=   21
          NO(<0.9)=   0  NV(>0.1)=   0     17.96e < EF      0.04e >EF  Err=3.6D-15
 GapD=    0.006 DampG=0.250 DampE=0.500 DampFc=0.1250 IDamp=-1.
 Damping current iteration by 1.25D-01
 RMSDP=3.45D-02 MaxDP=6.25D-01 DE= 1.40D-02 OVMax= 5.84D-01

 Cycle   4  Pass 1  IDiag  1:
 E= -174.155290948576     Delta-E=       -0.016286610123 Rises=F Damp=T
 DIIS: error= 1.62D-02 at cycle   4 NSaved=   4.
 NSaved= 4 IEnMin= 4 EnMin= -174.155290948576     IErMin= 4 ErrMin= 1.62D-02
 ErrMax= 1.62D-02  0.00D+00 EMaxC= 1.00D+00 BMatC= 4.88D-02 BMatP= 6.98D-02
 IDIUse=1 WtCom= 1.00D+00 WtEn= 0.00D+00
 Coeff-Com: -0.803D+00 0.982D+00-0.168D+01 0.250D+01
 Coeff:     -0.803D+00 0.982D+00-0.168D+01 0.250D+01
 Gap=     0.001 Goal=   None    Shift=    0.500
 T= 1268. Gap= 0.500 NK=0 IS=   19 IE=   57 IFin=   18
          NO(<0.9)=   0  NV(>0.1)=   0     18.00e < EF      0.00e >EF  Err=0.0D+00
 Gap=     0.001 Goal=   None    Shift=    0.500
 T= 1268. Gap= 0.500 NK=0 IS=   19 IE=   57 IFin=   18
          NO(<0.9)=   0  NV(>0.1)=   0     18.00e < EF      0.00e >EF  Err=0.0D+00
 GapD=    0.001 DampG=0.250 DampE=0.500 DampFc=0.1250 IDamp=-1.
 Damping current iteration by 1.25D-01
 RMSDP=2.90D-02 MaxDP=5.44D-01 DE=-1.63D-02 OVMax= 2.80D-02

 Cycle   5  Pass 1  IDiag  1:
 E= -174.166789047027     Delta-E=       -0.011498098451 Rises=F Damp=T
 DIIS: error= 1.39D-02 at cycle   5 NSaved=   5.
 NSaved= 5 IEnMin= 5 EnMin= -174.166789047027     IErMin= 5 ErrMin= 1.39D-02
 ErrMax= 1.39D-02  0.00D+00 EMaxC= 1.00D+00 BMatC= 3.79D-02 BMatP= 4.88D-02
 IDIUse=1 WtCom= 1.00D+00 WtEn= 0.00D+00
 Coeff-Com: -0.587D+00 0.486D+00 0.178D+01-0.617D+01 0.549D+01
 Coeff:     -0.587D+00 0.486D+00 0.178D+01-0.617D+01 0.549D+01
 Gap=     0.016 Goal=   None    Shift=    0.500
 T= 1134. Gap= 0.514 NK=0 IS=   19 IE=   57 IFin=   18
          NO(<0.9)=   0  NV(>0.1)=   0     18.00e < EF      0.00e >EF  Err=0.0D+00
 Gap=     0.016 Goal=   None    Shift=    0.500
 T= 1134. Gap= 0.514 NK=0 IS=   19 IE=   57 IFin=   18
          NO(<0.9)=   0  NV(>0.1)=   0     18.00e < EF      0.00e >EF  Err=0.0D+00
 GapD=    0.016 DampG=0.250 DampE=0.500 DampFc=0.1250 IDamp=-1.
 Damping current iteration by 1.25D-01
 RMSDP=8.20D-02 MaxDP=9.23D-01 DE=-1.15D-02 OVMax= 1.58D-02

 Cycle   6  Pass 1  IDiag  1:
 E= -174.178553664587     Delta-E=       -0.011764617560 Rises=F Damp=T
 DIIS: error= 1.15D-02 at cycle   6 NSaved=   6.
 NSaved= 6 IEnMin= 6 EnMin= -174.178553664587     IErMin= 6 ErrMin= 1.15D-02
 ErrMax= 1.15D-02  0.00D+00 EMaxC= 1.00D+00 BMatC= 2.61D-02 BMatP= 3.79D-02
 IDIUse=1 WtCom= 1.00D+00 WtEn= 0.00D+00
 Coeff-Com: -0.552D+00 0.496D+00 0.187D+01-0.647D+01 0.536D+01 0.303D+00
 Coeff:     -0.552D+00 0.496D+00 0.187D+01-0.647D+01 0.536D+01 0.303D+00
 Gap=     0.006 Goal=   None    Shift=    0.500
 T= 1033. Gap= 0.506 NK=0 IS=   19 IE=   57 IFin=   18
          NO(<0.9)=   0  NV(>0.1)=   0     18.00e < EF      0.00e >EF  Err=0.0D+00
 Gap=     0.006 Goal=   None    Shift=    0.500
 T= 1033. Gap= 0.506 NK=0 IS=   19 IE=   57 IFin=   18
          NO(<0.9)=   0  NV(>0.1)=   0     18.00e < EF      0.00e >EF  Err=0.0D+00
 GapD=    0.006 DampG=0.250 DampE=0.500 DampFc=0.1250 IDamp=-1.
 Damping current iteration by 1.25D-01
 RMSDP=7.21D-02 MaxDP=8.04D-01 DE=-1.18D-02 OVMax= 1.13D-02

 Cycle   7  Pass 1  IDiag  1:
 E= -174.174162951134     Delta-E=        0.004390713453 Rises=F Damp=T
 DIIS: error= 9.78D-03 at cycle   7 NSaved=   7.
 NSaved= 7 IEnMin= 6 EnMin= -174.178553664587     IErMin= 7 ErrMin= 9.78D-03
 ErrMax= 9.78D-03  0.00D+00 EMaxC= 1.00D+00 BMatC= 2.23D-02 BMatP= 2.61D-02
 IDIUse=1 WtCom= 1.00D+00 WtEn= 0.00D+00
 Coeff-Com: -0.545D+00 0.471D+00 0.186D+01-0.648D+01 0.626D+01-0.153D+01
 Coeff-Com:  0.966D+00
 Coeff:     -0.545D+00 0.471D+00 0.186D+01-0.648D+01 0.626D+01-0.153D+01
 Coeff:      0.966D+00
 Gap=     0.007 Goal=   None    Shift=    0.000
 T=  933. Gap= 0.007 NK=0 IS=   17 IE=   57 IFin=   21
          NO(<0.9)=   2  NV(>0.1)=   1     17.70e < EF      0.30e >EF  Err=3.6D-15
 Gap=     0.007 Goal=   None    Shift=    0.000
 T=  933. Gap= 0.007 NK=0 IS=   17 IE=   57 IFin=   21
          NO(<0.9)=   2  NV(>0.1)=   1     17.70e < EF      0.30e >EF  Err=3.6D-15
 GapD=    0.007 DampG=0.250 DampE=1.000 DampFc=0.2500 IDamp=-1.
 Damping current iteration by 2.50D-01
 RMSDP=5.61D-02 MaxDP=6.20D-01 DE= 4.39D-03 OVMax= 1.46D-01

 Cycle   8  Pass 1  IDiag  1:
 E= -174.150048842044     Delta-E=        0.024114109090 Rises=F Damp=T
 DIIS: error= 9.56D-03 at cycle   8 NSaved=   8.
 NSaved= 8 IEnMin= 6 EnMin= -174.178553664587     IErMin= 8 ErrMin= 9.56D-03
 ErrMax= 9.56D-03  0.00D+00 EMaxC= 1.00D+00 BMatC= 2.42D-02 BMatP= 2.23D-02
 IDIUse=1 WtCom= 1.00D+00 WtEn= 0.00D+00
 Coeff-Com: -0.502D+00 0.434D+00 0.116D+01-0.482D+01 0.421D+01 0.206D+01
 Coeff-Com: -0.260D+01 0.107D+01
 Coeff:     -0.502D+00 0.434D+00 0.116D+01-0.482D+01 0.421D+01 0.206D+01
 Coeff:     -0.260D+01 0.107D+01
 Gap=     0.001 Goal=   None    Shift=    0.000
 T=  854. Gap= 0.001 NK=0 IS=   17 IE=   57 IFin=   22
          NO(<0.9)=   1  NV(>0.1)=   1     17.50e < EF      0.50e >EF  Err=0.0D+00
 Gap=     0.001 Goal=   None    Shift=    0.000
 T=  854. Gap= 0.001 NK=0 IS=   17 IE=   57 IFin=   22
          NO(<0.9)=   1  NV(>0.1)=   1     17.50e < EF      0.50e >EF  Err=3.6D-15
 GapD=    0.001 DampG=0.250 DampE=1.000 DampFc=0.2500 IDamp=-1.
 Damping current iteration by 2.50D-01
 RMSDP=1.63D-02 MaxDP=2.70D-01 DE= 2.41D-02 OVMax= 2.98D-01

 Cycle   9  Pass 1  IDiag  1:
 E= -174.144257833974     Delta-E=        0.005791008069 Rises=F Damp=T
 DIIS: error= 1.58D-02 at cycle   9 NSaved=   9.
 NSaved= 9 IEnMin= 6 EnMin= -174.178553664587     IErMin= 8 ErrMin= 9.56D-03
 ErrMax= 1.58D-02  0.00D+00 EMaxC= 1.00D+00 BMatC= 3.52D-02 BMatP= 2.23D-02
 IDIUse=1 WtCom= 1.00D+00 WtEn= 0.00D+00
 Large coefficients: NSaved=  9 BigCof=   11.29 CofMax=   10.00 Det=-3.05D-06
 Inversion failed.  Reducing to  8 matrices.
 Large coefficients: NSaved=  8 BigCof=   22.28 CofMax=   10.00 Det=-4.47D-06
 Inversion failed.  Reducing to  7 matrices.
 Large coefficients: NSaved=  7 BigCof=   19.53 CofMax=   10.00 Det=-4.54D-06
 Inversion failed.  Reducing to  6 matrices.
 Large coefficients: NSaved=  6 BigCof=   20.12 CofMax=   10.00 Det=-6.33D-06
 Inversion failed.  Reducing to  5 matrices.
 Large coefficients: NSaved=  5 BigCof=   32.01 CofMax=   10.00 Det=-7.04D-06
 Inversion failed.  Reducing to  4 matrices.
 Coeff-Com:  0.361D+01-0.509D+01 0.197D+01 0.513D+00
 Coeff:      0.361D+01-0.509D+01 0.197D+01 0.513D+00
 Gap=     0.021 Goal=   None    Shift=    0.000
 T=  600. Gap= 0.016 NK=0 IS=   17 IE=   57 IFin=   19
          NO(<0.9)=   0  NV(>0.1)=   0     17.98e < EF      0.02e >EF  Err=0.0D+00
 Gap=     0.021 Goal=   None    Shift=    0.000
 T=  600. Gap= 0.016 NK=0 IS=   17 IE=   57 IFin=   19
          NO(<0.9)=   0  NV(>0.1)=   0     17.98e < EF      0.02e >EF  Err=0.0D+00
 GapD=    0.021 DampG=0.250 DampE=0.500 DampFc=0.1250 IDamp=-1.
 Damping current iteration by 1.25D-01
 RMSDP=3.95D-02 MaxDP=4.07D-01 DE= 5.79D-03 OVMax= 4.00D-01

 Cycle  10  Pass 1  IDiag  1:
 E= -174.169947724233     Delta-E=       -0.025689890259 Rises=F Damp=T
 DIIS: error= 1.11D-02 at cycle  10 NSaved=   5.
 NSaved= 5 IEnMin= 1 EnMin= -174.178553664587     IErMin= 3 ErrMin= 9.56D-03
 ErrMax= 1.11D-02  0.00D+00 EMaxC= 1.00D+00 BMatC= 9.22D-03 BMatP= 2.23D-02
 IDIUse=1 WtCom= 1.00D+00 WtEn= 0.00D+00
 Coeff-Com:  0.104D+01-0.161D+01 0.117D+01-0.875D+00 0.128D+01
 Coeff:      0.104D+01-0.161D+01 0.117D+01-0.875D+00 0.128D+01
 Gap=     0.014 Goal=   None    Shift=    0.000
 T=  300. Gap= 0.014 NK=0 IS=   18 IE=   57 IFin=   19
          NO(<0.9)=   0  NV(>0.1)=   0     18.00e < EF      0.00e >EF  Err=0.0D+00
 Gap=     0.014 Goal=   None    Shift=    0.000
 T=  300. Gap= 0.014 NK=0 IS=   18 IE=   57 IFin=   19
          NO(<0.9)=   0  NV(>0.1)=   0     18.00e < EF      0.00e >EF  Err=0.0D+00
 GapD=    0.014 DampG=0.250 DampE=0.500 DampFc=0.1250 IDamp=-1.
 Damping current iteration by 1.25D-01
 RMSDP=3.20D-02 MaxDP=3.39D-01 DE=-2.57D-02 OVMax= 4.56D-01

 Cycle  11  Pass 1  IDiag  1:
 E= -174.187204770388     Delta-E=       -0.017257046155 Rises=F Damp=T
 DIIS: error= 8.63D-03 at cycle  11 NSaved=   6.
 NSaved= 6 IEnMin= 6 EnMin= -174.187204770388     IErMin= 6 ErrMin= 8.63D-03
 ErrMax= 8.63D-03  0.00D+00 EMaxC= 1.00D+00 BMatC= 5.03D-03 BMatP= 9.22D-03
 IDIUse=1 WtCom= 1.00D+00 WtEn= 0.00D+00
 Coeff-Com:  0.505D+00-0.112D+01 0.759D+00-0.443D+00-0.134D+01 0.263D+01
 Coeff:      0.505D+00-0.112D+01 0.759D+00-0.443D+00-0.134D+01 0.263D+01
 Gap=     0.003 Goal=   None    Shift=    0.500
 Gap=     0.003 Goal=   None    Shift=    0.500
 GapD=    0.003 DampG=0.250 DampE=1.000 DampFc=0.2500 IDamp=-1.
 Damping current iteration by 2.50D-01
 RMSDP=2.79D-02 MaxDP=2.99D-01 DE=-1.73D-02 OVMax= 1.23D-02

 Cycle  12  Pass 1  IDiag  1:
 E= -174.209307067790     Delta-E=       -0.022102297401 Rises=F Damp=T
 DIIS: error= 4.42D-03 at cycle  12 NSaved=   7.
 NSaved= 7 IEnMin= 7 EnMin= -174.209307067790     IErMin= 7 ErrMin= 4.42D-03
 ErrMax= 4.42D-03  0.00D+00 EMaxC= 1.00D+00 BMatC= 1.75D-03 BMatP= 5.03D-03
 IDIUse=1 WtCom= 1.00D+00 WtEn= 0.00D+00
 Coeff-Com:  0.488D-01-0.546D+00 0.662D+00-0.418D+00 0.594D+00-0.934D+00
 Coeff-Com:  0.159D+01
 Coeff:      0.488D-01-0.546D+00 0.662D+00-0.418D+00 0.594D+00-0.934D+00
 Coeff:      0.159D+01
 Gap=    -0.002 Goal=   None    Shift=    0.500
 Gap=    -0.002 Goal=   None    Shift=    0.500
 GapD=   -0.002 DampG=0.250 DampE=1.000 DampFc=0.2500 IDamp=-1.
 Damping current iteration by 2.50D-01
 RMSDP=2.09D-02 MaxDP=2.24D-01 DE=-2.21D-02 OVMax= 1.29D-02

 Cycle  13  Pass 1  IDiag  1:
 E= -174.219307720821     Delta-E=       -0.010000653031 Rises=F Damp=T
 DIIS: error= 3.90D-03 at cycle  13 NSaved=   8.
 NSaved= 8 IEnMin= 8 EnMin= -174.219307720821     IErMin= 8 ErrMin= 3.90D-03
 ErrMax= 3.90D-03  0.00D+00 EMaxC= 1.00D+00 BMatC= 1.79D-03 BMatP= 1.75D-03
 IDIUse=1 WtCom= 1.00D+00 WtEn= 0.00D+00
 Coeff-Com: -0.218D+00-0.156D+00 0.575D+00-0.421D+00-0.561D+00 0.200D+01
 Coeff-Com: -0.195D+01 0.173D+01
 Coeff:     -0.218D+00-0.156D+00 0.575D+00-0.421D+00-0.561D+00 0.200D+01
 Coeff:     -0.195D+01 0.173D+01
 Gap=    -0.005 Goal=   None    Shift=    0.500
 Gap=    -0.005 Goal=   None    Shift=    0.500
 GapD=   -0.005 DampG=0.250 DampE=1.000 DampFc=0.2500 IDamp=-1.
 Damping current iteration by 2.50D-01
 RMSDP=1.56D-02 MaxDP=1.67D-01 DE=-1.00D-02 OVMax= 1.10D-02

 Cycle  14  Pass 1  IDiag  1:
 E= -174.223180740443     Delta-E=       -0.003873019622 Rises=F Damp=T
 DIIS: error= 4.68D-03 at cycle  14 NSaved=   9.
 NSaved= 9 IEnMin= 9 EnMin= -174.223180740443     IErMin= 8 ErrMin= 3.90D-03
 ErrMax= 4.68D-03  0.00D+00 EMaxC= 1.00D+00 BMatC= 3.13D-03 BMatP= 1.75D-03
 IDIUse=1 WtCom= 1.00D+00 WtEn= 0.00D+00
 Large coefficients: NSaved=  9 BigCof=   27.15 CofMax=   10.00 Det=-4.06D-08
 Inversion failed.  Reducing to  8 matrices.
 Large coefficients: NSaved=  8 BigCof=   43.61 CofMax=   10.00 Det=-4.58D-08
 Inversion failed.  Reducing to  7 matrices.
 Large coefficients: NSaved=  7 BigCof=   39.47 CofMax=   10.00 Det=-4.61D-08
 Inversion failed.  Reducing to  6 matrices.
 Large coefficients: NSaved=  6 BigCof=   32.31 CofMax=   10.00 Det=-7.67D-08
 Inversion failed.  Reducing to  5 matrices.
 Large coefficients: NSaved=  5 BigCof=   19.26 CofMax=   10.00 Det=-8.65D-08
 Inversion failed.  Reducing to  4 matrices.
 Large coefficients: NSaved=  4 BigCof=   54.58 CofMax=   10.00 Det=-1.18D-07
 Inversion failed.  Reducing to  3 matrices.
 Coeff-Com:  0.239D+01-0.385D+01 0.246D+01
 Coeff:      0.239D+01-0.385D+01 0.246D+01
 Gap=     0.004 Goal=   None    Shift=    0.500
 Gap=     0.004 Goal=   None    Shift=    0.500
 GapD=    0.004 DampG=0.250 DampE=1.000 DampFc=0.2500 IDamp=-1.
 Damping current iteration by 2.50D-01
 RMSDP=1.95D-01 MaxDP=2.01D+00 DE=-3.87D-03 OVMax= 8.54D-03

 Cycle  15  Pass 1  IDiag  1:
 E= -174.197982670383     Delta-E=        0.025198070061 Rises=F Damp=T
 DIIS: error= 1.10D-02 at cycle  15 NSaved=   4.
 NSaved= 4 IEnMin= 3 EnMin= -174.223180740443     IErMin= 2 ErrMin= 3.90D-03
 ErrMax= 1.10D-02  0.00D+00 EMaxC= 1.00D+00 BMatC= 1.36D-02 BMatP= 1.75D-03
 IDIUse=1 WtCom= 1.00D+00 WtEn= 0.00D+00
 Coeff-Com:  0.122D-01 0.143D+01-0.659D+00 0.217D+00
 Coeff:      0.122D-01 0.143D+01-0.659D+00 0.217D+00
 Gap=     0.010 Goal=   None    Shift=    0.000
 Gap=     0.010 Goal=   None    Shift=    0.000
 RMSDP=5.28D-02 MaxDP=5.74D-01 DE= 2.52D-02 OVMax= 4.15D-01

 Cycle  16  Pass 1  IDiag  1:
 E= -173.981538337210     Delta-E=        0.216444333173 Rises=F Damp=F
 DIIS: error= 6.68D-02 at cycle  16 NSaved=   5.
 NSaved= 5 IEnMin= 3 EnMin= -174.223180740443     IErMin= 2 ErrMin= 3.90D-03
 ErrMax= 6.68D-02  0.00D+00 EMaxC= 1.00D+00 BMatC= 3.38D-01 BMatP= 1.75D-03
 IDIUse=1 WtCom= 1.00D+00 WtEn= 0.00D+00
 Coeff-Com: -0.586D+00 0.344D+01-0.213D+01 0.238D+00 0.407D-01
 Coeff:     -0.586D+00 0.344D+01-0.213D+01 0.238D+00 0.407D-01
 Gap=     0.008 Goal=   None    Shift=    0.000
 Gap=     0.008 Goal=   None    Shift=    0.000
 RMSDP=1.08D-02 MaxDP=1.25D-01 DE= 2.16D-01 OVMax= 4.62D-01

 Cycle  17  Pass 1  IDiag  1:
 E= -174.204705390082     Delta-E=       -0.223167052872 Rises=F Damp=F
 DIIS: error= 2.54D-02 at cycle  17 NSaved=   6.
 NSaved= 6 IEnMin= 3 EnMin= -174.223180740443     IErMin= 2 ErrMin= 3.90D-03
 ErrMax= 2.54D-02  0.00D+00 EMaxC= 1.00D+00 BMatC= 4.38D-02 BMatP= 1.75D-03
 IDIUse=1 WtCom= 1.00D+00 WtEn= 0.00D+00
 Coeff-Com: -0.308D+01 0.984D+01-0.627D+01 0.289D+00 0.200D-01 0.196D+00
 Coeff:     -0.308D+01 0.984D+01-0.627D+01 0.289D+00 0.200D-01 0.196D+00
 Gap=     0.014 Goal=   None    Shift=    0.000
 Gap=     0.014 Goal=   None    Shift=    0.000
 RMSDP=2.39D-03 MaxDP=2.96D-02 DE=-2.23D-01 OVMax= 9.42D-02

 Cycle  18  Pass 1  IDiag  1:
 E= -174.190046314945     Delta-E=        0.014659075138 Rises=F Damp=F
 DIIS: error= 3.83D-02 at cycle  18 NSaved=   7.
 NSaved= 7 IEnMin= 3 EnMin= -174.223180740443     IErMin= 2 ErrMin= 3.90D-03
 ErrMax= 3.83D-02  0.00D+00 EMaxC= 1.00D+00 BMatC= 7.33D-02 BMatP= 1.75D-03
 IDIUse=1 WtCom= 1.00D+00 WtEn= 0.00D+00
 Large coefficients: NSaved=  7 BigCof=   10.74 CofMax=   10.00 Det=-1.10D-06
 Inversion failed.  Reducing to  6 matrices.
 Coeff-Com: -0.243D+01 0.842D+01-0.551D+01 0.298D+00 0.107D+00 0.114D+00
 Coeff:     -0.243D+01 0.842D+01-0.551D+01 0.298D+00 0.107D+00 0.114D+00
 Gap=     0.013 Goal=   None    Shift=    0.000
 Gap=     0.013 Goal=   None    Shift=    0.000
 RMSDP=1.26D-03 MaxDP=1.65D-02 DE= 1.47D-02 OVMax= 5.12D-02

 Cycle  19  Pass 1  IDiag  1:
 E= -174.199867348822     Delta-E=       -0.009821033877 Rises=F Damp=F
 DIIS: error= 2.80D-02 at cycle  19 NSaved=   7.
 NSaved= 7 IEnMin= 3 EnMin= -174.223180740443     IErMin= 2 ErrMin= 3.90D-03
 ErrMax= 2.80D-02  0.00D+00 EMaxC= 1.00D+00 BMatC= 5.55D-02 BMatP= 1.75D-03
 IDIUse=1 WtCom= 1.00D+00 WtEn= 0.00D+00
 Coeff-Com: -0.123D+01 0.474D+01-0.279D+01 0.181D+00 0.872D+00 0.775D+00
 Coeff-Com: -0.154D+01
 Coeff:     -0.123D+01 0.474D+01-0.279D+01 0.181D+00 0.872D+00 0.775D+00
 Coeff:     -0.154D+01
 Gap=     0.007 Goal=   None    Shift=    0.000
 Gap=     0.007 Goal=   None    Shift=    0.000
 GapD=    0.007 DampG=0.250 DampE=0.500 DampFc=0.1250 IDamp=-1.
 Damping current iteration by 1.25D-01
 RMSDP=3.76D-03 MaxDP=4.47D-02 DE=-9.82D-03 OVMax= 1.63D-01

 Cycle  20  Pass 1  IDiag  1:
 E= -174.195918519524     Delta-E=        0.003948829297 Rises=F Damp=T
 DIIS: error= 3.18D-02 at cycle  20 NSaved=   8.
 NSaved= 8 IEnMin= 3 EnMin= -174.223180740443     IErMin= 2 ErrMin= 3.90D-03
 ErrMax= 3.18D-02  0.00D+00 EMaxC= 1.00D+00 BMatC= 6.33D-02 BMatP= 1.75D-03
 IDIUse=1 WtCom= 1.00D+00 WtEn= 0.00D+00
 Coeff-Com: -0.261D+01 0.878D+01-0.581D+01 0.332D+00 0.218D+00 0.617D+00
 Coeff-Com:  0.136D+01-0.188D+01
 Coeff:     -0.261D+01 0.878D+01-0.581D+01 0.332D+00 0.218D+00 0.617D+00
 Coeff:      0.136D+01-0.188D+01
 Gap=     0.013 Goal=   None    Shift=    0.000
 Gap=     0.013 Goal=   None    Shift=    0.000
 GapD=    0.013 DampG=0.250 DampE=0.500 DampFc=0.1250 IDamp=-1.
 Damping current iteration by 1.25D-01
 RMSDP=3.63D-03 MaxDP=4.30D-02 DE= 3.95D-03 OVMax= 1.72D-02

 Cycle  21  Pass 1  IDiag  1:
 E= -174.191021490527     Delta-E=        0.004897028997 Rises=F Damp=T
 DIIS: error= 3.55D-02 at cycle  21 NSaved=   9.
 NSaved= 9 IEnMin= 3 EnMin= -174.223180740443     IErMin= 2 ErrMin= 3.90D-03
 ErrMax= 3.55D-02  0.00D+00 EMaxC= 1.00D+00 BMatC= 7.26D-02 BMatP= 1.75D-03
 IDIUse=1 WtCom= 1.00D+00 WtEn= 0.00D+00
 Large coefficients: NSaved=  9 BigCof=   17.62 CofMax=   10.00 Det=-1.75D-07
 Inversion failed.  Reducing to  8 matrices.
 Large coefficients: NSaved=  8 BigCof=   16.69 CofMax=   10.00 Det=-1.76D-07
 Inversion failed.  Reducing to  7 matrices.
 Large coefficients: NSaved=  7 BigCof=   27.43 CofMax=   10.00 Det=-4.68D-07
 Inversion failed.  Reducing to  6 matrices.
 Coeff-Com:  0.330D+01-0.671D+01 0.478D+01 0.818D+00-0.688D+01 0.569D+01
 Coeff:      0.330D+01-0.671D+01 0.478D+01 0.818D+00-0.688D+01 0.569D+01
 Gap=     0.004 Goal=   None    Shift=    0.000
 Gap=     0.004 Goal=   None    Shift=    0.000
 GapD=    0.004 DampG=0.250 DampE=0.500 DampFc=0.1250 IDamp=-1.
 Damping current iteration by 1.25D-01
 RMSDP=8.05D-03 MaxDP=9.02D-02 DE= 4.90D-03 OVMax= 4.74D-01

 Cycle  22  Pass 1  IDiag  1:
 E= -174.202641799290     Delta-E=       -0.011620308763 Rises=F Damp=T
 DIIS: error= 2.55D-02 at cycle  22 NSaved=   7.
 NSaved= 7 IEnMin= 3 EnMin= -174.223180740443     IErMin= 2 ErrMin= 3.90D-03
 ErrMax= 2.55D-02  0.00D+00 EMaxC= 1.00D+00 BMatC= 4.92D-02 BMatP= 1.75D-03
 IDIUse=1 WtCom= 1.00D+00 WtEn= 0.00D+00
 Large coefficients: NSaved=  7 BigCof=   10.22 CofMax=   10.00 Det=-8.49D-07
 Inversion failed.  Reducing to  6 matrices.
 Coeff-Com: -0.162D+01 0.793D+01-0.611D+01-0.197D+01-0.251D+01 0.528D+01
 Coeff:     -0.162D+01 0.793D+01-0.611D+01-0.197D+01-0.251D+01 0.528D+01
 Gap=     0.012 Goal=   None    Shift=    0.000
 Gap=     0.012 Goal=   None    Shift=    0.000
 GapD=    0.012 DampG=0.250 DampE=0.500 DampFc=0.1250 IDamp=-1.
 Damping current iteration by 1.25D-01
 RMSDP=4.78D-03 MaxDP=8.60D-02 DE=-1.16D-02 OVMax= 2.61D-01

 Cycle  23  Pass 1  IDiag  1:
 E= -174.202573740811     Delta-E=        0.000068058479 Rises=F Damp=T
 DIIS: error= 2.47D-02 at cycle  23 NSaved=   7.
 NSaved= 7 IEnMin= 3 EnMin= -174.223180740443     IErMin= 2 ErrMin= 3.90D-03
 ErrMax= 2.47D-02  0.00D+00 EMaxC= 1.00D+00 BMatC= 4.89D-02 BMatP= 1.75D-03
 IDIUse=1 WtCom= 1.00D+00 WtEn= 0.00D+00
 Large coefficients: NSaved=  7 BigCof=   13.90 CofMax=   10.00 Det=-8.00D-07
 Inversion failed.  Reducing to  6 matrices.
 Coeff-Com:  0.167D+01-0.173D+01 0.104D+01-0.591D+00-0.935D+00 0.155D+01
 Coeff:      0.167D+01-0.173D+01 0.104D+01-0.591D+00-0.935D+00 0.155D+01
 Gap=     0.001 Goal=   None    Shift=    0.000
 Gap=     0.001 Goal=   None    Shift=    0.000
 GapD=    0.001 DampG=0.250 DampE=0.500 DampFc=0.1250 IDamp=-1.
 Damping current iteration by 1.25D-01
 RMSDP=1.37D-02 MaxDP=1.54D-01 DE= 6.81D-05 OVMax= 6.06D-01

 Cycle  24  Pass 1  IDiag  1:
 E= -174.191018960729     Delta-E=        0.011554780082 Rises=F Damp=T
 DIIS: error= 3.28D-02 at cycle  24 NSaved=   7.
 NSaved= 7 IEnMin= 3 EnMin= -174.223180740443     IErMin= 2 ErrMin= 3.90D-03
 ErrMax= 3.28D-02  0.00D+00 EMaxC= 1.00D+00 BMatC= 6.92D-02 BMatP= 1.75D-03
 IDIUse=1 WtCom= 1.00D+00 WtEn= 0.00D+00
 Coeff-Com:  0.142D+01-0.197D+01 0.188D+01 0.859D+00-0.153D+01-0.136D+01
 Coeff-Com:  0.170D+01
 Coeff:      0.142D+01-0.197D+01 0.188D+01 0.859D+00-0.153D+01-0.136D+01
 Coeff:      0.170D+01
 Gap=    -0.005 Goal=   None    Shift=    0.000
 Gap=    -0.005 Goal=   None    Shift=    0.000
 GapD=   -0.005 DampG=0.250 DampE=0.500 DampFc=0.1250 IDamp=-1.
 Damping current iteration by 1.25D-01
 RMSDP=7.43D-03 MaxDP=8.59D-02 DE= 1.16D-02 OVMax= 7.85D-01

 Cycle  25  Pass 1  IDiag  1:
 E= -174.202029896423     Delta-E=       -0.011010935693 Rises=F Damp=T
 DIIS: error= 2.40D-02 at cycle  25 NSaved=   8.
 NSaved= 8 IEnMin= 3 EnMin= -174.223180740443     IErMin= 2 ErrMin= 3.90D-03
 ErrMax= 2.40D-02  0.00D+00 EMaxC= 1.00D+00 BMatC= 4.86D-02 BMatP= 1.75D-03
 IDIUse=1 WtCom= 1.00D+00 WtEn= 0.00D+00
 Large coefficients: NSaved=  8 BigCof=   15.63 CofMax=   10.00 Det=-4.93D-07
 Inversion failed.  Reducing to  7 matrices.
 Large coefficients: NSaved=  7 BigCof=   16.23 CofMax=   10.00 Det=-4.96D-07
 Inversion failed.  Reducing to  6 matrices.
 Large coefficients: NSaved=  6 BigCof=   11.50 CofMax=   10.00 Det=-9.05D-07
 Inversion failed.  Reducing to  5 matrices.
 Coeff-Com:  0.102D+01 0.216D+00-0.369D+00 0.594D-01 0.771D-01
 Coeff:      0.102D+01 0.216D+00-0.369D+00 0.594D-01 0.771D-01
 Gap=     0.001 Goal=   None    Shift=    0.000
 Gap=     0.001 Goal=   None    Shift=    0.000
 RMSDP=1.53D-02 MaxDP=1.64D-01 DE=-1.10D-02 OVMax= 2.62D-02

 Cycle  26  Pass 1  IDiag  1:
 E= -173.899665314744     Delta-E=        0.302364581678 Rises=F Damp=F
 DIIS: error= 3.69D-02 at cycle  26 NSaved=   6.
 NSaved= 6 IEnMin= 3 EnMin= -174.223180740443     IErMin= 2 ErrMin= 3.90D-03
 ErrMax= 3.69D-02  0.00D+00 EMaxC= 1.00D+00 BMatC= 2.29D-01 BMatP= 1.75D-03
 IDIUse=1 WtCom= 1.00D+00 WtEn= 0.00D+00
 Coeff-Com:  0.389D+00 0.178D+01-0.134D+01-0.236D+00 0.347D+00 0.573D-01
 Coeff:      0.389D+00 0.178D+01-0.134D+01-0.236D+00 0.347D+00 0.573D-01
 Gap=     0.001 Goal=   None    Shift=    0.000
 Gap=     0.001 Goal=   None    Shift=    0.000
 RMSDP=2.01D-02 MaxDP=2.41D-01 DE= 3.02D-01 OVMax= 1.86D-01

 Cycle  27  Pass 1  IDiag  1:
 E= -174.165147033738     Delta-E=       -0.265481718994 Rises=F Damp=F
 DIIS: error= 5.42D-02 at cycle  27 NSaved=   7.
 NSaved= 7 IEnMin= 3 EnMin= -174.223180740443     IErMin= 2 ErrMin= 3.90D-03
 ErrMax= 5.42D-02  0.00D+00 EMaxC= 1.00D+00 BMatC= 9.75D-02 BMatP= 1.75D-03
 IDIUse=1 WtCom= 1.00D+00 WtEn= 0.00D+00
 Coeff-Com:  0.521D+00 0.119D+01-0.934D+00 0.308D+01-0.319D+01-0.357D-01
 Coeff-Com:  0.376D+00
 Coeff:      0.521D+00 0.119D+01-0.934D+00 0.308D+01-0.319D+01-0.357D-01
 Coeff:      0.376D+00
 Gap=     0.001 Goal=   None    Shift=    0.000
 Gap=     0.001 Goal=   None    Shift=    0.000
 RMSDP=2.36D-02 MaxDP=2.53D-01 DE=-2.65D-01 OVMax= 1.25D-01

 Cycle  28  Pass 1  IDiag  1:
 E= -173.860045489522     Delta-E=        0.305101544215 Rises=F Damp=F
 DIIS: error= 2.85D-02 at cycle  28 NSaved=   8.
 NSaved= 8 IEnMin= 3 EnMin= -174.223180740443     IErMin= 2 ErrMin= 3.90D-03
 ErrMax= 2.85D-02  0.00D+00 EMaxC= 1.00D+00 BMatC= 1.29D-01 BMatP= 1.75D-03
 IDIUse=1 WtCom= 1.00D+00 WtEn= 0.00D+00
 Coeff-Com: -0.164D+00 0.297D+01-0.203D+01-0.144D+00 0.263D+00 0.303D+00
 Coeff-Com:  0.105D+00-0.304D+00
 Coeff:     -0.164D+00 0.297D+01-0.203D+01-0.144D+00 0.263D+00 0.303D+00
 Coeff:      0.105D+00-0.304D+00
 Gap=     0.014 Goal=   None    Shift=    0.000
 Gap=     0.014 Goal=   None    Shift=    0.000
 RMSDP=8.17D-03 MaxDP=1.16D-01 DE= 3.05D-01 OVMax= 3.44D-01

 Cycle  29  Pass 1  IDiag  1:
 E= -173.846669096941     Delta-E=        0.013376392582 Rises=F Damp=F
 DIIS: error= 1.94D-02 at cycle  29 NSaved=   9.
 NSaved= 9 IEnMin= 3 EnMin= -174.223180740443     IErMin= 2 ErrMin= 3.90D-03
 ErrMax= 1.94D-02  0.00D+00 EMaxC= 1.00D+00 BMatC= 2.98D-02 BMatP= 1.75D-03
 IDIUse=1 WtCom= 1.00D+00 WtEn= 0.00D+00
 Large coefficients: NSaved=  9 BigCof=   10.55 CofMax=   10.00 Det=-7.52D-07
 Inversion failed.  Reducing to  8 matrices.
 Coeff-Com: -0.243D+01 0.889D+01-0.590D+01 0.220D+01-0.212D+01 0.285D+00
 Coeff-Com: -0.458D-01 0.135D+00
 Coeff:     -0.243D+01 0.889D+01-0.590D+01 0.220D+01-0.212D+01 0.285D+00
 Coeff:     -0.458D-01 0.135D+00
 Gap=     0.003 Goal=   None    Shift=    0.000
 Gap=     0.003 Goal=   None    Shift=    0.000
 RMSDP=2.58D-02 MaxDP=3.07D-01 DE= 1.34D-02 OVMax= 3.17D-01

 Cycle  30  Pass 1  IDiag  1:
 E= -174.210886826943     Delta-E=       -0.364217730003 Rises=F Damp=F
 DIIS: error= 2.19D-02 at cycle  30 NSaved=   9.
 NSaved= 9 IEnMin= 3 EnMin= -174.223180740443     IErMin= 2 ErrMin= 3.90D-03
 ErrMax= 2.19D-02  0.00D+00 EMaxC= 1.00D+00 BMatC= 2.91D-02 BMatP= 1.75D-03
 IDIUse=1 WtCom= 1.00D+00 WtEn= 0.00D+00
 Large coefficients: NSaved=  9 BigCof=   16.52 CofMax=   10.00 Det=-6.49D-07
 Inversion failed.  Reducing to  8 matrices.
 Large coefficients: NSaved=  8 BigCof=   17.43 CofMax=   10.00 Det=-6.55D-07
 Inversion failed.  Reducing to  7 matrices.
 Large coefficients: NSaved=  7 BigCof=   14.48 CofMax=   10.00 Det=-7.84D-07
 Inversion failed.  Reducing to  6 matrices.
 Large coefficients: NSaved=  6 BigCof=   17.94 CofMax=   10.00 Det=-1.46D-06
 Inversion failed.  Reducing to  5 matrices.
 Large coefficients: NSaved=  5 BigCof=   17.91 CofMax=   10.00 Det=-1.50D-06
 Inversion failed.  Reducing to  4 matrices.
 Coeff-Com:  0.266D+01-0.196D+01 0.117D+00 0.175D+00
 Coeff:      0.266D+01-0.196D+01 0.117D+00 0.175D+00
 Gap=     0.024 Goal=   None    Shift=    0.000
 Gap=     0.024 Goal=   None    Shift=    0.000
 RMSDP=2.46D-03 MaxDP=2.56D-02 DE=-3.64D-01 OVMax= 8.34D-02

 Cycle  31  Pass 1  IDiag  1:
 E= -174.203422064907     Delta-E=        0.007464762037 Rises=F Damp=F
 DIIS: error= 2.97D-02 at cycle  31 NSaved=   5.
 NSaved= 5 IEnMin= 2 EnMin= -174.223180740443     IErMin= 1 ErrMin= 3.90D-03
 ErrMax= 2.97D-02  0.00D+00 EMaxC= 1.00D+00 BMatC= 4.84D-02 BMatP= 1.79D-03
 IDIUse=1 WtCom= 1.00D+00 WtEn= 0.00D+00
 Coeff-Com:  0.299D+01-0.232D+01 0.147D+00 0.182D-01 0.162D+00
 Coeff:      0.299D+01-0.232D+01 0.147D+00 0.182D-01 0.162D+00
 Gap=     0.030 Goal=   None    Shift=    0.000
 Gap=     0.030 Goal=   None    Shift=    0.000
 RMSDP=3.08D-03 MaxDP=3.66D-02 DE= 7.46D-03 OVMax= 1.19D-01

 Cycle  32  Pass 1  IDiag  1:
 E= -174.211771524869     Delta-E=       -0.008349459963 Rises=F Damp=F
 DIIS: error= 2.07D-02 at cycle  32 NSaved=   6.
 NSaved= 6 IEnMin= 2 EnMin= -174.223180740443     IErMin= 1 ErrMin= 3.90D-03
 ErrMax= 2.07D-02  0.00D+00 EMaxC= 1.00D+00 BMatC= 2.34D-02 BMatP= 1.79D-03
 IDIUse=1 WtCom= 1.00D+00 WtEn= 0.00D+00
 Coeff-Com:  0.308D+01-0.247D+01 0.128D+00-0.408D+00 0.332D+00 0.335D+00
 Coeff:      0.308D+01-0.247D+01 0.128D+00-0.408D+00 0.332D+00 0.335D+00
 Gap=     0.029 Goal=   None    Shift=    0.000
 Gap=     0.029 Goal=   None    Shift=    0.000
 RMSDP=8.90D-04 MaxDP=1.22D-02 DE=-8.35D-03 OVMax= 1.30D-02

 >>>>>>>>>> Convergence criterion not met.
 SCF Done:  E(ULC-wHPBE) =  -174.211771525     A.U. after   33 cycles
            NFock= 32  Conv=0.89D-03     -V/T= 1.9116
 <Sx>= 0.0000 <Sy>= 0.0000 <Sz>= 0.0000 <S**2>= 0.0000 S= 0.0000
 <L.S>= 0.000000000000E+00
 KE= 1.911042190954D+02 PE=-7.563424116046D+02 EE= 2.350136784984D+02
 Annihilation of the first spin contaminant:
 S**2 before annihilation     0.0000,   after     0.0000
 Leave Link  502 at Thu Mar  5 13:03:14 2020, MaxMem=  6710886400 cpu:              49.0 elap:               3.1
 (Enter /opt/ohpc/pub/libs/gaussian/g16-A.03/sandybridge/g16/l508.exe)
 Keep R1 and R2 ints in memory in symmetry-blocked form, NReq=16816081.
 FoFCou: FMM=F IPFlag=           0 FMFlag=           0 FMFlg1=           0
         NFxFlg=           0 DoJE=F BraDBF=F KetDBF=F FulRan=T
         wScrn=  0.000000 ICntrl=       600 IOpCl=  0 I1Cent=           0 NGrid=           0
         NMat0=    1 NMatS0=   1653 NMatT0=    0 NMatD0=    1 NMtDS0=    0 NMtDT0=    0
 Petite list used in FoFCou.
 Tight linear equation convergence will be used.
 ULC-wHPBE wavefunction.
 Quadratic Convergence SCF Method.
 Line search only if initial step raises energy.
 Iteration   1 EE= -174.213413649572                                    Grad=1.006D-01 Max rot=    2.0251 deg.
 Gradient too large for Newton-Raphson -- use scaled steepest descent instead.
     ILin= 1 X=0.000D+00 Y=-1.742134136496D+02 DE= 0.00D+00 F= -2.60D-02
     ILin= 2 X=3.000D-01 Y=-1.742190195039D+02 DE=-5.61D-03 F= -1.14D-02
     ILin= 3 X=5.000D-01 Y=-1.742203289431D+02 DE=-6.92D-03 F= -1.70D-03
     ILin= 4 X=8.000D-01 Y=-1.742186642323D+02 DE=-5.25D-03 F=  1.28D-02
     An  expanding polynomial of degree  4 produced  0.5352
     Minimum is close to point  3 DX=  3.52D-02 DF= -2.99D-05 DXR=  6.57D-02 DFR=  4.33D-03 which will be used.
 Iteration   2 EE= -174.220328943123     Delta-E=       -0.006915293551 Grad=3.036D-02 Max rot=    0.4598 deg.
 Gradient too large for Newton-Raphson -- use scaled steepest descent instead.
     ILin= 1 X=0.000D+00 Y=-1.742203289431D+02 DE= 0.00D+00 F= -1.92D-03
     ILin= 2 X=4.000D-01 Y=-1.742209766486D+02 DE=-6.48D-04 F= -1.32D-03
     ILin= 3 X=8.000D-01 Y=-1.742213809693D+02 DE=-1.05D-03 F= -7.06D-04
     ILin= 4 X=1.600D+00 Y=-1.742214588095D+02 DE=-1.13D-03 F=  5.12D-04
     Accept linear search using points  3 and  4.
     An  expanding polynomial of degree  4 produced  1.2450
 Iteration   3 EE= -174.221544578583     Delta-E=       -0.001215635460 Grad=1.579D-02 Max rot=    0.2301 deg.
 Gradient too large for Newton-Raphson -- use scaled steepest descent instead.
     ILin= 1 X=0.000D+00 Y=-1.742215445786D+02 DE= 0.00D+00 F= -5.01D-04
     ILin= 2 X=8.000D-01 Y=-1.742217227004D+02 DE=-1.78D-04 F=  5.53D-05
     Accept linear search using points  1 and  2.
     An  expanding polynomial of degree  2 produced  0.6713
 Iteration   4 EE= -174.221724069559     Delta-E=       -0.000179490976 Grad=8.653D-03 Max rot=    0.2636 deg.
 QCNR:  CnvC1=8.65D-08 CnvC2=8.65D-07
 LinEq1:  Iter=  0 NonCon=     1 RMS=8.91D-03 Max=2.30D-01 NDo=     1
 AX will form     1 AO Fock derivatives at one time.
 LinEq1:  Iter=  1 NonCon=     1 RMS=6.81D-01 Max=1.76D+01 NDo=     1
 LinEq1:  Iter=  2 NonCon=     1 RMS=7.46D+00 Max=1.36D+02 NDo=     1
 LinEq1:  Iter=  3 NonCon=     1 RMS=6.22D+00 Max=8.44D+01 NDo=     1
 LinEq1:  Iter=  4 NonCon=     1 RMS=9.82D+00 Max=1.37D+02 NDo=     1
 LinEq1:  Iter=  5 NonCon=     1 RMS=1.07D+02 Max=2.81D+03 NDo=     1
 LinEq1:  Iter=  6 NonCon=     1 RMS=9.26D+02 Max=1.30D+04 NDo=     1
 LinEq1:  Iter=  7 NonCon=     1 RMS=5.06D+03 Max=1.18D+05 NDo=     1
 LinEq1:  Iter=  8 NonCon=     1 RMS=1.37D+04 Max=1.60D+05 NDo=     1
 LinEq1:  Iter=  9 NonCon=     1 RMS=1.76D+04 Max=2.08D+05 NDo=     1
 LinEq1:  Iter= 10 NonCon=     1 RMS=1.13D+04 Max=1.41D+05 NDo=     1
 LinEq1:  Iter= 11 NonCon=     1 RMS=9.39D+03 Max=1.51D+05 NDo=     1
 LinEq1:  Iter= 12 NonCon=     1 RMS=7.24D+03 Max=8.12D+04 NDo=     1
 LinEq1:  Iter= 13 NonCon=     1 RMS=8.06D+03 Max=9.60D+04 NDo=     1
 LinEq1:  Iter= 14 NonCon=     1 RMS=9.92D+03 Max=2.13D+05 NDo=     1
 LinEq1:  Iter= 15 NonCon=     1 RMS=9.62D+04 Max=1.44D+06 NDo=     1
 LinEq1:  Iter= 16 NonCon=     1 RMS=8.50D+04 Max=8.60D+05 NDo=     1
 LinEq1:  Iter= 17 NonCon=     1 RMS=9.50D+04 Max=1.87D+06 NDo=     1
 LinEq1:  Iter= 18 NonCon=     1 RMS=6.19D+05 Max=1.07D+07 NDo=     1
 LinEq1:  Iter= 19 NonCon=     1 RMS=6.66D+05 Max=1.03D+07 NDo=     1
 LinEq1:  Iter= 20 NonCon=     1 RMS=8.44D+06 Max=2.12D+08 NDo=     1
 LinEq1:  Iter= 21 NonCon=     1 RMS=1.61D+07 Max=3.41D+08 NDo=     1
 LinEq1:  Iter= 22 NonCon=     1 RMS=8.77D+07 Max=1.13D+09 NDo=     1
 LinEq1:  Iter= 23 NonCon=     1 RMS=8.09D+08 Max=2.07D+10 NDo=     1
 LinEq1:  Iter= 24 NonCon=     1 RMS=6.59D+09 Max=1.50D+11 NDo=     1
 LinEq1:  Iter= 25 NonCon=     1 RMS=9.79D+09 Max=9.18D+10 NDo=     1
 LinEq1:  Iter= 26 NonCon=     1 RMS=5.12D+09 Max=6.06D+10 NDo=     1
 LinEq1:  Iter= 27 NonCon=     1 RMS=2.22D+09 Max=2.06D+10 NDo=     1
 LinEq1:  Iter= 28 NonCon=     1 RMS=2.18D+09 Max=3.73D+10 NDo=     1
 LinEq1:  Iter= 29 NonCon=     1 RMS=1.27D+10 Max=3.37D+11 NDo=     1
 LinEq1:  Iter= 30 NonCon=     1 RMS=5.58D+10 Max=8.73D+11 NDo=     1
 LinEq1:  Iter= 31 NonCon=     1 RMS=1.54D+11 Max=2.89D+12 NDo=     1
 LinEq1:  Iter= 32 NonCon=     1 RMS=4.01D+11 Max=9.47D+12 NDo=     1
 LinEq1:  Iter= 33 NonCon=     1 RMS=2.04D+12 Max=4.34D+13 NDo=     1
 LinEq1:  Iter= 34 NonCon=     1 RMS=3.33D+12 Max=4.29D+13 NDo=     1
 LinEq1:  Iter= 35 NonCon=     1 RMS=5.84D+12 Max=1.30D+14 NDo=     1
 LinEq1:  Iter= 36 NonCon=     1 RMS=3.23D+13 Max=6.97D+14 NDo=     1
 LinEq1:  Iter= 37 NonCon=     1 RMS=6.48D+13 Max=8.48D+14 NDo=     1
 LinEq1:  Iter= 38 NonCon=     1 RMS=1.01D+14 Max=2.74D+15 NDo=     1
 LinEq1:  Iter= 39 NonCon=     1 RMS=3.30D+14 Max=7.60D+15 NDo=     1
 LinEq1:  Iter= 40 NonCon=     1 RMS=9.22D+14 Max=1.26D+16 NDo=     1
 LinEq1:  Iter= 41 NonCon=     1 RMS=2.66D+15 Max=6.82D+16 NDo=     1
 LinEq1:  Iter= 42 NonCon=     1 RMS=6.59D+15 Max=1.29D+17 NDo=     1
 LinEq1:  Iter= 43 NonCon=     1 RMS=1.75D+16 Max=2.91D+17 NDo=     1
 LinEq1:  Iter= 44 NonCon=     1 RMS=3.76D+16 Max=4.80D+17 NDo=     1
 LinEq1:  Iter= 45 NonCon=     1 RMS=6.17D+16 Max=1.32D+18 NDo=     1
 LinEq1:  Iter= 46 NonCon=     1 RMS=2.86D+17 Max=6.28D+18 NDo=     1
 LinEq1:  Iter= 47 NonCon=     1 RMS=3.86D+17 Max=3.03D+18 NDo=     1
 LinEq1:  Iter= 48 NonCon=     1 RMS=3.26D+17 Max=7.73D+18 NDo=     1
 LinEq1:  Iter= 49 NonCon=     1 RMS=7.33D+17 Max=8.26D+18 NDo=     1
 LinEq1:  Iter= 50 NonCon=     1 RMS=1.59D+18 Max=3.57D+19 NDo=     1
 LinEq1:  Iter= 51 NonCon=     1 RMS=3.84D+18 Max=5.34D+19 NDo=     1
 LinEq1:  Iter= 52 NonCon=     1 RMS=5.53D+18 Max=4.72D+19 NDo=     1
 LinEq1:  Iter= 53 NonCon=     1 RMS=8.13D+18 Max=1.55D+20 NDo=     1
 LinEq1:  Iter= 54 NonCon=     1 RMS=2.69D+19 Max=5.37D+20 NDo=     1
 LinEq1:  Iter= 55 NonCon=     1 RMS=3.36D+19 Max=3.64D+20 NDo=     1
 LinEq1:  Iter= 56 NonCon=     1 RMS=3.59D+19 Max=7.16D+20 NDo=     1
 LinEq1:  Iter= 57 NonCon=     1 RMS=1.03D+20 Max=1.97D+21 NDo=     1
 LinEq1:  Iter= 58 NonCon=     1 RMS=2.90D+20 Max=4.11D+21 NDo=     1
 LinEq1:  Iter= 59 NonCon=     1 RMS=3.51D+20 Max=5.56D+21 NDo=     1
 LinEq1:  Iter= 60 NonCon=     1 RMS=1.02D+21 Max=2.00D+22 NDo=     1
 LinEq1:  Iter= 61 NonCon=     1 RMS=2.37D+21 Max=4.28D+22 NDo=     1
 LinEq1:  Iter= 62 NonCon=     1 RMS=3.12D+21 Max=6.26D+22 NDo=     1
 LinEq1:  Iter= 63 NonCon=     1 RMS=3.98D+21 Max=3.28D+22 NDo=     1
 LinEq1:  Iter= 64 NonCon=     1 RMS=2.44D+21 Max=4.21D+22 NDo=     1
 LinEq1:  Iter= 65 NonCon=     1 RMS=2.45D+21 Max=3.27D+22 NDo=     1
 LinEq1:  Iter= 66 NonCon=     1 RMS=3.24D+21 Max=4.02D+22 NDo=     1
 LinEq1:  Iter= 67 NonCon=     1 RMS=2.39D+21 Max=3.77D+22 NDo=     1
 LinEq1:  Iter= 68 NonCon=     1 RMS=4.11D+21 Max=3.70D+22 NDo=     1
 LinEq1:  Iter= 69 NonCon=     1 RMS=1.63D+21 Max=1.28D+22 NDo=     1
 LinEq1:  Iter= 70 NonCon=     1 RMS=1.77D+21 Max=4.63D+22 NDo=     1
 LinEq1:  Iter= 71 NonCon=     1 RMS=1.99D+21 Max=2.62D+22 NDo=     1
 LinEq1:  Iter= 72 NonCon=     1 RMS=2.12D+21 Max=4.76D+22 NDo=     1
 LinEq1:  Iter= 73 NonCon=     1 RMS=3.13D+21 Max=6.76D+22 NDo=     1
 LinEq1:  Iter= 74 NonCon=     1 RMS=1.95D+21 Max=1.56D+22 NDo=     1
 LinEq1:  Iter= 75 NonCon=     1 RMS=1.35D+21 Max=2.77D+22 NDo=     1
 LinEq1:  Iter= 76 NonCon=     1 RMS=1.43D+21 Max=1.38D+22 NDo=     1
 LinEq1:  Iter= 77 NonCon=     1 RMS=6.08D+20 Max=7.09D+21 NDo=     1
 LinEq1:  Iter= 78 NonCon=     1 RMS=8.70D+20 Max=1.03D+22 NDo=     1
 LinEq1:  Iter= 79 NonCon=     1 RMS=3.51D+20 Max=3.10D+21 NDo=     1
 LinEq1:  Iter= 80 NonCon=     1 RMS=3.00D+20 Max=6.46D+21 NDo=     1
 LinEq1:  Iter= 81 NonCon=     1 RMS=2.22D+20 Max=2.40D+21 NDo=     1
 LinEq1:  Iter= 82 NonCon=     1 RMS=1.39D+20 Max=1.70D+21 NDo=     1
 LinEq1:  Iter= 83 NonCon=     1 RMS=6.69D+19 Max=8.03D+20 NDo=     1
 LinEq1:  Iter= 84 NonCon=     1 RMS=5.88D+19 Max=7.38D+20 NDo=     1
 LinEq1:  Iter= 85 NonCon=     1 RMS=5.10D+19 Max=6.25D+20 NDo=     1
 LinEq1:  Iter= 86 NonCon=     1 RMS=3.29D+19 Max=2.99D+20 NDo=     1
 LinEq1:  Iter= 87 NonCon=     1 RMS=2.75D+19 Max=4.56D+20 NDo=     1
 LinEq1:  Iter= 88 NonCon=     1 RMS=2.38D+19 Max=2.08D+20 NDo=     1
 LinEq1:  Iter= 89 NonCon=     1 RMS=1.48D+19 Max=2.78D+20 NDo=     1
 LinEq1:  Iter= 90 NonCon=     1 RMS=1.92D+19 Max=2.79D+20 NDo=     1
 LinEq1:  Iter= 91 NonCon=     1 RMS=1.11D+19 Max=1.64D+20 NDo=     1
 LinEq1:  Iter= 92 NonCon=     1 RMS=1.07D+19 Max=8.81D+19 NDo=     1
 LinEq1:  Iter= 93 NonCon=     1 RMS=4.23D+18 Max=4.75D+19 NDo=     1
 LinEq1:  Iter= 94 NonCon=     1 RMS=4.22D+18 Max=8.12D+19 NDo=     1
 LinEq1:  Iter= 95 NonCon=     1 RMS=3.23D+18 Max=4.11D+19 NDo=     1
 LinEq1:  Iter= 96 NonCon=     1 RMS=1.65D+18 Max=2.49D+19 NDo=     1
 LinEq1:  Iter= 97 NonCon=     1 RMS=6.39D+17 Max=9.23D+18 NDo=     1
 LinEq1:  Iter= 98 NonCon=     1 RMS=6.67D+17 Max=1.28D+19 NDo=     1
 LinEq1:  Iter= 99 NonCon=     1 RMS=2.53D+17 Max=1.71D+18 NDo=     1
 LinEq1:  Iter=100 NonCon=     1 RMS=1.60D+17 Max=3.43D+18 NDo=     1
 LinEq1:  Iter=101 NonCon=     1 RMS=1.28D+17 Max=1.15D+18 NDo=     1
 LinEq1:  Iter=102 NonCon=     1 RMS=3.97D+16 Max=4.72D+17 NDo=     1
 LinEq1:  Iter=103 NonCon=     1 RMS=4.01D+16 Max=7.52D+17 NDo=     1
 LinEq1:  Iter=104 NonCon=     1 RMS=1.65D+16 Max=1.79D+17 NDo=     1
 LinEq1:  Iter=105 NonCon=     1 RMS=1.59D+16 Max=2.07D+17 NDo=     1
 LinEq1:  Iter=106 NonCon=     1 RMS=6.56D+15 Max=6.53D+16 NDo=     1
 LinEq1:  Iter=107 NonCon=     1 RMS=5.40D+15 Max=1.07D+17 NDo=     1
 LinEq1:  Iter=108 NonCon=     1 RMS=2.98D+15 Max=2.19D+16 NDo=     1
 LinEq1:  Iter=109 NonCon=     1 RMS=1.85D+15 Max=2.26D+16 NDo=     1
 LinEq1:  Iter=110 NonCon=     1 RMS=1.30D+15 Max=1.42D+16 NDo=     1
 LinEq1:  Iter=111 NonCon=     1 RMS=6.39D+14 Max=4.96D+15 NDo=     1
 LinEq1:  Iter=112 NonCon=     1 RMS=2.74D+14 Max=3.92D+15 NDo=     1
 LinEq1:  Iter=113 NonCon=     1 RMS=2.47D+14 Max=2.21D+15 NDo=     1
 LinEq1:  Iter=114 NonCon=     1 RMS=8.22D+13 Max=7.65D+14 NDo=     1
 LinEq1:  Iter=115 NonCon=     1 RMS=7.62D+13 Max=9.13D+14 NDo=     1
 LinEq1:  Iter=116 NonCon=     1 RMS=3.15D+13 Max=3.13D+14 NDo=     1
 LinEq1:  Iter=117 NonCon=     1 RMS=2.84D+13 Max=2.82D+14 NDo=     1
 LinEq1:  Iter=118 NonCon=     1 RMS=8.15D+12 Max=9.87D+13 NDo=     1
 LinEq1:  Iter=119 NonCon=     1 RMS=3.88D+12 Max=5.36D+13 NDo=     1
 LinEq1:  Iter=120 NonCon=     1 RMS=1.08D+12 Max=8.61D+12 NDo=     1
 LinEq1:  Iter=121 NonCon=     1 RMS=6.20D+11 Max=1.35D+13 NDo=     1
 LinEq1:  Iter=122 NonCon=     1 RMS=3.90D+11 Max=3.34D+12 NDo=     1
 LinEq1:  Iter=123 NonCon=     1 RMS=8.07D+10 Max=7.30D+11 NDo=     1
 LinEq1:  Iter=124 NonCon=     1 RMS=6.19D+10 Max=9.37D+11 NDo=     1
 LinEq1:  Iter=125 NonCon=     1 RMS=2.48D+10 Max=1.78D+11 NDo=     1
 LinEq1:  Iter=126 NonCon=     1 RMS=1.12D+10 Max=1.88D+11 NDo=     1
 LinEq1:  Iter=127 NonCon=     1 RMS=7.82D+09 Max=9.74D+10 NDo=     1
 LinEq1:  Iter=128 NonCon=     1 RMS=3.08D+09 Max=3.86D+10 NDo=     1
 LinEq1:  Iter=129 NonCon=     1 RMS=1.67D+09 Max=1.71D+10 NDo=     1
 LinEq1:  Iter=130 NonCon=     1 RMS=6.72D+08 Max=9.55D+09 NDo=     1
 LinEq1:  Iter=131 NonCon=     1 RMS=3.05D+08 Max=3.64D+09 NDo=     1
 LinEq1:  Iter=132 NonCon=     1 RMS=2.48D+08 Max=3.26D+09 NDo=     1
 LinEq1:  Iter=133 NonCon=     1 RMS=8.13D+07 Max=5.33D+08 NDo=     1
 LinEq1:  Iter=134 NonCon=     1 RMS=2.94D+07 Max=2.49D+08 NDo=     1
 LinEq1:  Iter=135 NonCon=     1 RMS=1.86D+07 Max=1.24D+08 NDo=     1
 LinEq1:  Iter=136 NonCon=     1 RMS=6.75D+06 Max=7.63D+07 NDo=     1
 LinEq1:  Iter=137 NonCon=     1 RMS=2.19D+06 Max=2.27D+07 NDo=     1
 LinEq1:  Iter=138 NonCon=     1 RMS=1.29D+06 Max=1.44D+07 NDo=     1
 LinEq1:  Iter=139 NonCon=     1 RMS=6.11D+05 Max=6.01D+06 NDo=     1
 LinEq1:  Iter=140 NonCon=     1 RMS=2.71D+05 Max=5.12D+06 NDo=     1
 LinEq1:  Iter=141 NonCon=     1 RMS=1.89D+05 Max=2.01D+06 NDo=     1
 LinEq1:  Iter=142 NonCon=     1 RMS=5.18D+04 Max=4.58D+05 NDo=     1
 LinEq1:  Iter=143 NonCon=     1 RMS=3.18D+04 Max=5.56D+05 NDo=     1
 LinEq1:  Iter=144 NonCon=     1 RMS=1.63D+04 Max=1.37D+05 NDo=     1
 LinEq1:  Iter=145 NonCon=     1 RMS=8.79D+03 Max=1.43D+05 NDo=     1
 LinEq1:  Iter=146 NonCon=     1 RMS=4.40D+03 Max=4.80D+04 NDo=     1
 LinEq1:  Iter=147 NonCon=     1 RMS=1.74D+03 Max=1.61D+04 NDo=     1
 LinEq1:  Iter=148 NonCon=     1 RMS=6.07D+02 Max=7.85D+03 NDo=     1
 LinEq1:  Iter=149 NonCon=     1 RMS=3.12D+02 Max=2.08D+03 NDo=     1
 LinEq1:  Iter=150 NonCon=     1 RMS=8.16D+01 Max=1.07D+03 NDo=     1
 LinEq1:  Iter=151 NonCon=     1 RMS=5.28D+01 Max=7.90D+02 NDo=     1
 LinEq1:  Iter=152 NonCon=     1 RMS=2.06D+01 Max=1.82D+02 NDo=     1
 LinEq1:  Iter=153 NonCon=     1 RMS=8.15D+00 Max=6.81D+01 NDo=     1
 LinEq1:  Iter=154 NonCon=     1 RMS=3.53D+00 Max=4.34D+01 NDo=     1
 LinEq1:  Iter=155 NonCon=     1 RMS=1.66D+00 Max=1.17D+01 NDo=     1
 LinEq1:  Iter=156 NonCon=     1 RMS=4.00D-01 Max=2.13D+00 NDo=     1
 LinEq1:  Iter=157 NonCon=     1 RMS=2.11D-01 Max=1.88D+00 NDo=     1
 LinEq1:  Iter=158 NonCon=     1 RMS=6.60D-02 Max=4.80D-01 NDo=     1
 LinEq1:  Iter=159 NonCon=     1 RMS=3.12D-02 Max=3.93D-01 NDo=     1
 LinEq1:  Iter=160 NonCon=     1 RMS=1.45D-02 Max=1.30D-01 NDo=     1
 LinEq1:  Iter=161 NonCon=     1 RMS=4.97D-03 Max=3.76D-02 NDo=     1
 LinEq1:  Iter=162 NonCon=     1 RMS=1.73D-03 Max=2.20D-02 NDo=     1
 LinEq1:  Iter=163 NonCon=     1 RMS=8.00D-04 Max=4.61D-03 NDo=     1
 LinEq1:  Iter=164 NonCon=     1 RMS=1.69D-04 Max=9.74D-04 NDo=     1
 LinEq1:  Iter=165 NonCon=     1 RMS=8.46D-05 Max=8.86D-04 NDo=     1
 LinEq1:  Iter=166 NonCon=     1 RMS=3.31D-05 Max=3.07D-04 NDo=     1
 LinEq1:  Iter=167 NonCon=     1 RMS=1.25D-05 Max=1.28D-04 NDo=     1
 LinEq1:  Iter=168 NonCon=     1 RMS=4.35D-06 Max=4.57D-05 NDo=     1
 LinEq1:  Iter=169 NonCon=     1 RMS=1.96D-06 Max=1.74D-05 NDo=     1
 LinEq1:  Iter=170 NonCon=     1 RMS=3.90D-07 Max=3.51D-06 NDo=     1
 LinEq1:  Iter=171 NonCon=     1 RMS=1.51D-07 Max=2.62D-06 NDo=     1
 LinEq1:  Iter=172 NonCon=     0 RMS=4.34D-08 Max=2.57D-07 NDo=     1
 Linear equations converged to 8.653D-08 8.653D-07 after   172 iterations.
 Angle between quadratic step and gradient=  35.58 degrees.
     ILin= 1 X=0.000D+00 Y=-1.742217240696D+02 DE= 0.00D+00 F= -3.58D-04
     ILin= 2 X=1.000D+00 Y=-1.742219026116D+02 DE=-1.79D-04 F=  1.36D-06
     Accept linear search using points  1 and  2.
     An  expanding polynomial of degree  2 produced  0.9962
     Minimum is close to point  2 DX= -3.76D-03 DF= -2.55D-09 DXR=  3.78D-03 DFR=  1.43D-05 which will be used.
 Iteration   5 EE= -174.221902611648     Delta-E=       -0.000178542089 Grad=1.630D-03 Max rot=    0.0186 deg.
 QCNR:  CnvC1=1.63D-08 CnvC2=1.63D-07
 LinEq1:  Iter=  0 NonCon=     1 RMS=1.61D-04 Max=4.25D-03 NDo=     1
 LinEq1:  Iter=  1 NonCon=     1 RMS=1.94D-03 Max=3.42D-02 NDo=     1
 LinEq1:  Iter=  2 NonCon=     1 RMS=8.91D-03 Max=2.25D-01 NDo=     1
 LinEq1:  Iter=  3 NonCon=     1 RMS=7.72D-02 Max=1.10D+00 NDo=     1
 LinEq1:  Iter=  4 NonCon=     1 RMS=2.94D-01 Max=5.86D+00 NDo=     1
 LinEq1:  Iter=  5 NonCon=     1 RMS=6.78D+00 Max=1.13D+02 NDo=     1
 LinEq1:  Iter=  6 NonCon=     1 RMS=8.18D+01 Max=1.59D+03 NDo=     1
 LinEq1:  Iter=  7 NonCon=     1 RMS=6.25D+02 Max=1.70D+04 NDo=     1
 LinEq1:  Iter=  8 NonCon=     1 RMS=7.95D+03 Max=1.36D+05 NDo=     1
 LinEq1:  Iter=  9 NonCon=     1 RMS=4.80D+04 Max=6.83D+05 NDo=     1
 LinEq1:  Iter= 10 NonCon=     1 RMS=6.01D+05 Max=1.81D+07 NDo=     1
 LinEq1:  Iter= 11 NonCon=     1 RMS=7.16D+06 Max=1.04D+08 NDo=     1
 LinEq1:  Iter= 12 NonCon=     1 RMS=4.42D+07 Max=9.24D+08 NDo=     1
 LinEq1:  Iter= 13 NonCon=     1 RMS=2.25D+08 Max=3.62D+09 NDo=     1
 LinEq1:  Iter= 14 NonCon=     1 RMS=5.35D+08 Max=5.99D+09 NDo=     1
 LinEq1:  Iter= 15 NonCon=     1 RMS=1.46D+09 Max=2.71D+10 NDo=     1
 LinEq1:  Iter= 16 NonCon=     1 RMS=7.60D+09 Max=1.27D+11 NDo=     1
 LinEq1:  Iter= 17 NonCon=     1 RMS=2.58D+10 Max=3.71D+11 NDo=     1
 LinEq1:  Iter= 18 NonCon=     1 RMS=1.23D+11 Max=2.28D+12 NDo=     1
 LinEq1:  Iter= 19 NonCon=     1 RMS=4.52D+11 Max=6.91D+12 NDo=     1
 LinEq1:  Iter= 20 NonCon=     1 RMS=2.70D+12 Max=5.75D+13 NDo=     1
 LinEq1:  Iter= 21 NonCon=     1 RMS=8.93D+12 Max=1.38D+14 NDo=     1
 LinEq1:  Iter= 22 NonCon=     1 RMS=4.02D+13 Max=6.20D+14 NDo=     1
 LinEq1:  Iter= 23 NonCon=     1 RMS=1.64D+14 Max=2.78D+15 NDo=     1
 LinEq1:  Iter= 24 NonCon=     1 RMS=5.19D+14 Max=8.48D+15 NDo=     1
 LinEq1:  Iter= 25 NonCon=     1 RMS=2.40D+15 Max=3.85D+16 NDo=     1
 LinEq1:  Iter= 26 NonCon=     1 RMS=9.30D+15 Max=1.44D+17 NDo=     1
 LinEq1:  Iter= 27 NonCon=     1 RMS=3.07D+16 Max=4.66D+17 NDo=     1
 LinEq1:  Iter= 28 NonCon=     1 RMS=1.07D+17 Max=2.02D+18 NDo=     1
 LinEq1:  Iter= 29 NonCon=     1 RMS=3.50D+17 Max=5.43D+18 NDo=     1
 LinEq1:  Iter= 30 NonCon=     1 RMS=1.12D+18 Max=1.48D+19 NDo=     1
 LinEq1:  Iter= 31 NonCon=     1 RMS=3.66D+18 Max=5.49D+19 NDo=     1
 LinEq1:  Iter= 32 NonCon=     1 RMS=7.08D+18 Max=7.72D+19 NDo=     1
 LinEq1:  Iter= 33 NonCon=     1 RMS=2.30D+19 Max=3.36D+20 NDo=     1
 LinEq1:  Iter= 34 NonCon=     1 RMS=7.21D+19 Max=8.59D+20 NDo=     1
 LinEq1:  Iter= 35 NonCon=     1 RMS=1.88D+20 Max=4.82D+21 NDo=     1
 LinEq1:  Iter= 36 NonCon=     1 RMS=4.71D+20 Max=5.99D+21 NDo=     1
 LinEq1:  Iter= 37 NonCon=     1 RMS=1.05D+21 Max=9.72D+21 NDo=     1
 LinEq1:  Iter= 38 NonCon=     1 RMS=1.82D+21 Max=4.15D+22 NDo=     1
 LinEq1:  Iter= 39 NonCon=     1 RMS=5.41D+21 Max=7.32D+22 NDo=     1
 LinEq1:  Iter= 40 NonCon=     1 RMS=7.75D+21 Max=8.89D+22 NDo=     1
 LinEq1:  Iter= 41 NonCon=     1 RMS=1.46D+22 Max=1.96D+23 NDo=     1
 LinEq1:  Iter= 42 NonCon=     1 RMS=3.69D+22 Max=5.02D+23 NDo=     1
 LinEq1:  Iter= 43 NonCon=     1 RMS=7.66D+22 Max=1.77D+24 NDo=     1
 LinEq1:  Iter= 44 NonCon=     1 RMS=1.54D+23 Max=2.26D+24 NDo=     1
 LinEq1:  Iter= 45 NonCon=     1 RMS=3.70D+23 Max=5.03D+24 NDo=     1
 LinEq1:  Iter= 46 NonCon=     1 RMS=7.94D+23 Max=1.28D+25 NDo=     1
 LinEq1:  Iter= 47 NonCon=     1 RMS=9.03D+23 Max=1.13D+25 NDo=     1
 LinEq1:  Iter= 48 NonCon=     1 RMS=1.09D+24 Max=2.24D+25 NDo=     1
 LinEq1:  Iter= 49 NonCon=     1 RMS=1.81D+24 Max=2.94D+25 NDo=     1
 LinEq1:  Iter= 50 NonCon=     1 RMS=1.89D+24 Max=2.38D+25 NDo=     1
 LinEq1:  Iter= 51 NonCon=     1 RMS=2.40D+24 Max=2.60D+25 NDo=     1
 LinEq1:  Iter= 52 NonCon=     1 RMS=2.16D+24 Max=2.36D+25 NDo=     1
 LinEq1:  Iter= 53 NonCon=     1 RMS=3.09D+24 Max=3.23D+25 NDo=     1
 LinEq1:  Iter= 54 NonCon=     1 RMS=2.84D+24 Max=3.38D+25 NDo=     1
 LinEq1:  Iter= 55 NonCon=     1 RMS=3.69D+24 Max=2.91D+25 NDo=     1
 LinEq1:  Iter= 56 NonCon=     1 RMS=1.98D+24 Max=1.74D+25 NDo=     1
 LinEq1:  Iter= 57 NonCon=     1 RMS=2.46D+24 Max=4.14D+25 NDo=     1
 LinEq1:  Iter= 58 NonCon=     1 RMS=2.20D+24 Max=2.08D+25 NDo=     1
 LinEq1:  Iter= 59 NonCon=     1 RMS=2.15D+24 Max=2.87D+25 NDo=     1
 LinEq1:  Iter= 60 NonCon=     1 RMS=1.89D+24 Max=1.52D+25 NDo=     1
 LinEq1:  Iter= 61 NonCon=     1 RMS=1.97D+24 Max=2.20D+25 NDo=     1
 LinEq1:  Iter= 62 NonCon=     1 RMS=2.28D+24 Max=3.13D+25 NDo=     1
 LinEq1:  Iter= 63 NonCon=     1 RMS=2.76D+24 Max=4.25D+25 NDo=     1
 LinEq1:  Iter= 64 NonCon=     1 RMS=3.66D+24 Max=4.67D+25 NDo=     1
 LinEq1:  Iter= 65 NonCon=     1 RMS=3.43D+24 Max=3.00D+25 NDo=     1
 LinEq1:  Iter= 66 NonCon=     1 RMS=3.13D+24 Max=3.72D+25 NDo=     1
 LinEq1:  Iter= 67 NonCon=     1 RMS=3.17D+24 Max=3.43D+25 NDo=     1
 LinEq1:  Iter= 68 NonCon=     1 RMS=2.68D+24 Max=4.41D+25 NDo=     1
 LinEq1:  Iter= 69 NonCon=     1 RMS=2.86D+24 Max=4.99D+25 NDo=     1
 LinEq1:  Iter= 70 NonCon=     1 RMS=1.81D+24 Max=2.60D+25 NDo=     1
 LinEq1:  Iter= 71 NonCon=     1 RMS=1.80D+24 Max=2.44D+25 NDo=     1
 LinEq1:  Iter= 72 NonCon=     1 RMS=1.36D+24 Max=1.86D+25 NDo=     1
 LinEq1:  Iter= 73 NonCon=     1 RMS=1.13D+24 Max=1.28D+25 NDo=     1
 LinEq1:  Iter= 74 NonCon=     1 RMS=8.91D+23 Max=9.67D+24 NDo=     1
 LinEq1:  Iter= 75 NonCon=     1 RMS=7.29D+23 Max=7.26D+24 NDo=     1
 LinEq1:  Iter= 76 NonCon=     1 RMS=4.42D+23 Max=5.53D+24 NDo=     1
 LinEq1:  Iter= 77 NonCon=     1 RMS=3.98D+23 Max=3.11D+24 NDo=     1
 LinEq1:  Iter= 78 NonCon=     1 RMS=2.76D+23 Max=3.00D+24 NDo=     1
 LinEq1:  Iter= 79 NonCon=     1 RMS=2.30D+23 Max=2.59D+24 NDo=     1
 LinEq1:  Iter= 80 NonCon=     1 RMS=1.45D+23 Max=1.11D+24 NDo=     1
 LinEq1:  Iter= 81 NonCon=     1 RMS=9.92D+22 Max=8.89D+23 NDo=     1
 LinEq1:  Iter= 82 NonCon=     1 RMS=8.11D+22 Max=1.25D+24 NDo=     1
 LinEq1:  Iter= 83 NonCon=     1 RMS=8.81D+22 Max=1.40D+24 NDo=     1
 LinEq1:  Iter= 84 NonCon=     1 RMS=7.35D+22 Max=5.91D+23 NDo=     1
 LinEq1:  Iter= 85 NonCon=     1 RMS=5.57D+22 Max=7.92D+23 NDo=     1
 LinEq1:  Iter= 86 NonCon=     1 RMS=4.39D+22 Max=4.35D+23 NDo=     1
 LinEq1:  Iter= 87 NonCon=     1 RMS=2.77D+22 Max=2.41D+23 NDo=     1
 LinEq1:  Iter= 88 NonCon=     1 RMS=2.44D+22 Max=2.74D+23 NDo=     1
 LinEq1:  Iter= 89 NonCon=     1 RMS=1.77D+22 Max=1.81D+23 NDo=     1
 LinEq1:  Iter= 90 NonCon=     1 RMS=1.30D+22 Max=1.35D+23 NDo=     1
 LinEq1:  Iter= 91 NonCon=     1 RMS=1.01D+22 Max=8.79D+22 NDo=     1
 LinEq1:  Iter= 92 NonCon=     1 RMS=6.87D+21 Max=6.13D+22 NDo=     1
 LinEq1:  Iter= 93 NonCon=     1 RMS=5.13D+21 Max=4.06D+22 NDo=     1
 LinEq1:  Iter= 94 NonCon=     1 RMS=2.70D+21 Max=2.20D+22 NDo=     1
 LinEq1:  Iter= 95 NonCon=     1 RMS=2.02D+21 Max=2.21D+22 NDo=     1
 LinEq1:  Iter= 96 NonCon=     1 RMS=1.36D+21 Max=1.78D+22 NDo=     1
 LinEq1:  Iter= 97 NonCon=     1 RMS=1.12D+21 Max=1.26D+22 NDo=     1
 LinEq1:  Iter= 98 NonCon=     1 RMS=6.41D+20 Max=5.41D+21 NDo=     1
 LinEq1:  Iter= 99 NonCon=     1 RMS=4.07D+20 Max=3.27D+21 NDo=     1
 LinEq1:  Iter=100 NonCon=     1 RMS=2.59D+20 Max=2.10D+21 NDo=     1
 LinEq1:  Iter=101 NonCon=     1 RMS=1.68D+20 Max=2.05D+21 NDo=     1
 LinEq1:  Iter=102 NonCon=     1 RMS=1.21D+20 Max=1.41D+21 NDo=     1
 LinEq1:  Iter=103 NonCon=     1 RMS=7.93D+19 Max=5.38D+20 NDo=     1
 LinEq1:  Iter=104 NonCon=     1 RMS=3.86D+19 Max=3.14D+20 NDo=     1
 LinEq1:  Iter=105 NonCon=     1 RMS=2.49D+19 Max=2.49D+20 NDo=     1
 LinEq1:  Iter=106 NonCon=     1 RMS=1.58D+19 Max=1.92D+20 NDo=     1
 LinEq1:  Iter=107 NonCon=     1 RMS=8.91D+18 Max=7.53D+19 NDo=     1
 LinEq1:  Iter=108 NonCon=     1 RMS=4.34D+18 Max=4.10D+19 NDo=     1
 LinEq1:  Iter=109 NonCon=     1 RMS=2.54D+18 Max=2.15D+19 NDo=     1
 LinEq1:  Iter=110 NonCon=     1 RMS=1.46D+18 Max=1.15D+19 NDo=     1
 LinEq1:  Iter=111 NonCon=     1 RMS=8.80D+17 Max=7.51D+18 NDo=     1
 LinEq1:  Iter=112 NonCon=     1 RMS=5.18D+17 Max=4.97D+18 NDo=     1
 LinEq1:  Iter=113 NonCon=     1 RMS=2.82D+17 Max=2.41D+18 NDo=     1
 LinEq1:  Iter=114 NonCon=     1 RMS=1.60D+17 Max=1.52D+18 NDo=     1
 LinEq1:  Iter=115 NonCon=     1 RMS=9.77D+16 Max=7.30D+17 NDo=     1
 LinEq1:  Iter=116 NonCon=     1 RMS=4.30D+16 Max=4.22D+17 NDo=     1
 LinEq1:  Iter=117 NonCon=     1 RMS=2.78D+16 Max=3.26D+17 NDo=     1
 LinEq1:  Iter=118 NonCon=     1 RMS=1.58D+16 Max=1.64D+17 NDo=     1
 LinEq1:  Iter=119 NonCon=     1 RMS=9.60D+15 Max=8.96D+16 NDo=     1
 LinEq1:  Iter=120 NonCon=     1 RMS=4.71D+15 Max=3.17D+16 NDo=     1
 LinEq1:  Iter=121 NonCon=     1 RMS=2.19D+15 Max=2.38D+16 NDo=     1
 LinEq1:  Iter=122 NonCon=     1 RMS=9.75D+14 Max=1.11D+16 NDo=     1
 LinEq1:  Iter=123 NonCon=     1 RMS=4.78D+14 Max=4.36D+15 NDo=     1
 LinEq1:  Iter=124 NonCon=     1 RMS=2.50D+14 Max=4.47D+15 NDo=     1
 LinEq1:  Iter=125 NonCon=     1 RMS=1.59D+14 Max=2.02D+15 NDo=     1
 LinEq1:  Iter=126 NonCon=     1 RMS=7.36D+13 Max=8.66D+14 NDo=     1
 LinEq1:  Iter=127 NonCon=     1 RMS=3.35D+13 Max=4.22D+14 NDo=     1
 LinEq1:  Iter=128 NonCon=     1 RMS=1.78D+13 Max=1.76D+14 NDo=     1
 LinEq1:  Iter=129 NonCon=     1 RMS=6.58D+12 Max=5.43D+13 NDo=     1
 LinEq1:  Iter=130 NonCon=     1 RMS=3.41D+12 Max=5.07D+13 NDo=     1
 LinEq1:  Iter=131 NonCon=     1 RMS=1.72D+12 Max=2.10D+13 NDo=     1
 LinEq1:  Iter=132 NonCon=     1 RMS=8.51D+11 Max=9.37D+12 NDo=     1
 LinEq1:  Iter=133 NonCon=     1 RMS=4.25D+11 Max=3.27D+12 NDo=     1
 LinEq1:  Iter=134 NonCon=     1 RMS=1.65D+11 Max=1.13D+12 NDo=     1
 LinEq1:  Iter=135 NonCon=     1 RMS=7.97D+10 Max=9.19D+11 NDo=     1
 LinEq1:  Iter=136 NonCon=     1 RMS=4.10D+10 Max=6.26D+11 NDo=     1
 LinEq1:  Iter=137 NonCon=     1 RMS=2.50D+10 Max=3.77D+11 NDo=     1
 LinEq1:  Iter=138 NonCon=     1 RMS=1.13D+10 Max=9.76D+10 NDo=     1
 LinEq1:  Iter=139 NonCon=     1 RMS=5.98D+09 Max=5.38D+10 NDo=     1
 LinEq1:  Iter=140 NonCon=     1 RMS=2.50D+09 Max=1.77D+10 NDo=     1
 LinEq1:  Iter=141 NonCon=     1 RMS=1.04D+09 Max=1.79D+10 NDo=     1
 LinEq1:  Iter=142 NonCon=     1 RMS=5.53D+08 Max=7.73D+09 NDo=     1
 LinEq1:  Iter=143 NonCon=     1 RMS=1.39D+08 Max=8.96D+08 NDo=     1
 LinEq1:  Iter=144 NonCon=     1 RMS=5.77D+07 Max=4.82D+08 NDo=     1
 LinEq1:  Iter=145 NonCon=     1 RMS=2.27D+07 Max=2.93D+08 NDo=     1
 LinEq1:  Iter=146 NonCon=     1 RMS=1.18D+07 Max=1.82D+08 NDo=     1
 LinEq1:  Iter=147 NonCon=     1 RMS=5.55D+06 Max=6.15D+07 NDo=     1
 LinEq1:  Iter=148 NonCon=     1 RMS=2.45D+06 Max=2.43D+07 NDo=     1
 LinEq1:  Iter=149 NonCon=     1 RMS=1.18D+06 Max=8.82D+06 NDo=     1
 LinEq1:  Iter=150 NonCon=     1 RMS=3.62D+05 Max=2.73D+06 NDo=     1
 LinEq1:  Iter=151 NonCon=     1 RMS=1.30D+05 Max=9.03D+05 NDo=     1
 LinEq1:  Iter=152 NonCon=     1 RMS=5.22D+04 Max=4.41D+05 NDo=     1
 LinEq1:  Iter=153 NonCon=     1 RMS=2.25D+04 Max=1.96D+05 NDo=     1
 LinEq1:  Iter=154 NonCon=     1 RMS=8.00D+03 Max=6.76D+04 NDo=     1
 LinEq1:  Iter=155 NonCon=     1 RMS=3.51D+03 Max=3.43D+04 NDo=     1
 LinEq1:  Iter=156 NonCon=     1 RMS=1.32D+03 Max=7.68D+03 NDo=     1
 LinEq1:  Iter=157 NonCon=     1 RMS=5.98D+02 Max=4.46D+03 NDo=     1
 LinEq1:  Iter=158 NonCon=     1 RMS=1.99D+02 Max=1.32D+03 NDo=     1
 LinEq1:  Iter=159 NonCon=     1 RMS=6.14D+01 Max=4.02D+02 NDo=     1
 LinEq1:  Iter=160 NonCon=     1 RMS=2.37D+01 Max=2.38D+02 NDo=     1
 LinEq1:  Iter=161 NonCon=     1 RMS=9.57D+00 Max=7.50D+01 NDo=     1
 LinEq1:  Iter=162 NonCon=     1 RMS=3.06D+00 Max=3.64D+01 NDo=     1
 LinEq1:  Iter=163 NonCon=     1 RMS=1.46D+00 Max=1.52D+01 NDo=     1
 LinEq1:  Iter=164 NonCon=     1 RMS=4.75D-01 Max=4.65D+00 NDo=     1
 LinEq1:  Iter=165 NonCon=     1 RMS=1.81D-01 Max=1.16D+00 NDo=     1
 LinEq1:  Iter=166 NonCon=     1 RMS=6.30D-02 Max=5.07D-01 NDo=     1
 LinEq1:  Iter=167 NonCon=     1 RMS=2.32D-02 Max=2.15D-01 NDo=     1
 LinEq1:  Iter=168 NonCon=     1 RMS=9.41D-03 Max=1.25D-01 NDo=     1
 LinEq1:  Iter=169 NonCon=     1 RMS=4.17D-03 Max=5.10D-02 NDo=     1
 LinEq1:  Iter=170 NonCon=     1 RMS=1.46D-03 Max=1.15D-02 NDo=     1
 LinEq1:  Iter=171 NonCon=     1 RMS=5.17D-04 Max=4.48D-03 NDo=     1
 LinEq1:  Iter=172 NonCon=     1 RMS=2.04D-04 Max=1.45D-03 NDo=     1
 LinEq1:  Iter=173 NonCon=     1 RMS=5.37D-05 Max=3.79D-04 NDo=     1
 LinEq1:  Iter=174 NonCon=     1 RMS=1.90D-05 Max=1.89D-04 NDo=     1
 LinEq1:  Iter=175 NonCon=     1 RMS=6.21D-06 Max=5.07D-05 NDo=     1
 LinEq1:  Iter=176 NonCon=     1 RMS=1.79D-06 Max=1.44D-05 NDo=     1
 LinEq1:  Iter=177 NonCon=     1 RMS=6.56D-07 Max=6.21D-06 NDo=     1
 LinEq1:  Iter=178 NonCon=     1 RMS=1.90D-07 Max=1.95D-06 NDo=     1
 LinEq1:  Iter=179 NonCon=     1 RMS=6.48D-08 Max=3.76D-07 NDo=     1
 LinEq1:  Iter=180 NonCon=     1 RMS=2.21D-08 Max=1.79D-07 NDo=     1
 LinEq1:  Iter=181 NonCon=     0 RMS=8.88D-09 Max=7.40D-08 NDo=     1
 Linear equations converged to 1.630D-08 1.630D-07 after   181 iterations.
 Angle between quadratic step and gradient=  48.65 degrees.
     ILin= 1 X=0.000D+00 Y=-1.742219026116D+02 DE= 0.00D+00 F= -5.43D-07
     ILin= 2 X=1.000D+00 Y=-1.742219028831D+02 DE=-2.71D-07
 Iteration   6 EE= -174.221902883130     Delta-E=       -0.000000271481 Grad=1.441D-05 Max rot=    0.0002 deg.
 Rotation gradient small -- convergence achieved.
 Orbital symmetries in SymMO:
    1=4    2=1    3=1    4=4    5=1    6=1    7=1    8=4    9=1   10=4
   11=1   12=4   13=1   14=1   15=4   16=3   17=2   18=3   19=4   20=1
   21=1   22=2   23=3   24=4   25=1   26=4   27=1   28=1   29=4   30=1
   31=4   32=4   33=3   34=2   35=3   36=1   37=1   38=4   39=2   40=1
   41=3   42=4   43=4   44=1   45=4   46=1   47=1   48=4   49=1   50=1
   51=1   52=4   53=1   54=4   55=1   56=1   57=4
 Orbital symmetries in SymMO:
    1=4    2=1    3=1    4=4    5=1    6=1    7=1    8=4    9=1   10=4
   11=1   12=4   13=1   14=1   15=4   16=3   17=2   18=3   19=4   20=1
   21=1   22=2   23=3   24=4   25=1   26=4   27=1   28=1   29=4   30=1
   31=4   32=4   33=3   34=2   35=3   36=1   37=1   38=4   39=2   40=1
   41=3   42=4   43=4   44=1   45=4   46=1   47=1   48=4   49=1   50=1
   51=1   52=4   53=1   54=4   55=1   56=1   57=4
 SCF Done:  E(ULC-wHPBE) =  -174.221902883     a.u. after    6 cycles
            Convg  =    0.1441D-04                   365 Fock formations.
              S**2 =  0.0000                  -V/T =  1.9118
 <Sx>= 0.0000 <Sy>= 0.0000 <Sz>= 0.0000 <S**2>= 0.0000 S= 0.0000
 <L.S>= 0.000000000000E+00
 Annihilation of the first spin contaminant:
 S**2 before annihilation     0.0000,   after     0.0000
 Leave Link  508 at Thu Mar  5 13:05:18 2020, MaxMem=  6710886400 cpu:            1927.1 elap:             123.5
 (Enter /opt/ohpc/pub/libs/gaussian/g16-A.03/sandybridge/g16/l601.exe)
 Copying SCF densities to generalized density rwf, IOpCl= 1 IROHF=0.

 **********************************************************************

            Population analysis using the SCF density.

 **********************************************************************

 Orbital symmetries:
 Alpha Orbitals:
       Occupied  (B2) (A1) (A1) (B2) (A1) (A1) (A1) (B2) (A1) (B2)
                 (A1) (B2) (A1) (A1) (B2) (B1) (A2) (B1)
       Virtual   (B2) (A1) (A1) (A2) (B1) (B2) (A1) (B2) (A1) (A1)
                 (B2) (A1) (B2) (B2) (B1) (A2) (B1) (A1) (A1) (B2)
                 (A2) (A1) (B1) (B2) (B2) (A1) (B2) (A1) (A1) (B2)
                 (A1) (A1) (A1) (B2) (A1) (B2) (A1) (A1) (B2)
 Beta  Orbitals:
       Occupied  (B2) (A1) (A1) (B2) (A1) (A1) (A1) (B2) (A1) (B2)
                 (A1) (B2) (A1) (A1) (B2) (B1) (A2) (B1)
       Virtual   (B2) (A1) (A1) (A2) (B1) (B2) (A1) (B2) (A1) (A1)
                 (B2) (A1) (B2) (B2) (B1) (A2) (B1) (A1) (A1) (B2)
                 (A2) (A1) (B1) (B2) (B2) (A1) (B2) (A1) (A1) (B2)
                 (A1) (A1) (A1) (B2) (A1) (B2) (A1) (A1) (B2)
 The electronic state is 1-A1.
 Alpha  occ. eigenvalues --   -9.24603  -9.24591  -9.20027  -9.20025  -9.18345
 Alpha  occ. eigenvalues --   -0.13361  -0.02295   0.01056   0.11435   0.13066
 Alpha  occ. eigenvalues --    0.15202   0.23427   0.23440   0.26850   0.27919
 Alpha  occ. eigenvalues --    0.29265   0.38256   0.39980
 Alpha virt. eigenvalues --    0.32627   0.35046   0.35757   0.36251   0.40351
 Alpha virt. eigenvalues --    0.40540   0.41974   0.43317   0.44136   0.57267
 Alpha virt. eigenvalues --    0.58720   0.68494   0.69319   0.76832   0.77249
 Alpha virt. eigenvalues --    0.84043   0.84665   0.86753   0.88806   0.89926
 Alpha virt. eigenvalues --    0.90120   0.91069   0.92314   1.02333   1.05858
 Alpha virt. eigenvalues --    1.08435   1.10812   1.11028   1.12974   1.19632
 Alpha virt. eigenvalues --    1.20387   1.24667   1.28463   1.34521   1.42602
 Alpha virt. eigenvalues --    1.44596   1.51085   1.71819   1.73084
  Beta  occ. eigenvalues --   -9.24603  -9.24591  -9.20027  -9.20025  -9.18345
  Beta  occ. eigenvalues --   -0.13361  -0.02295   0.01056   0.11435   0.13066
  Beta  occ. eigenvalues --    0.15202   0.23427   0.23440   0.26850   0.27919
  Beta  occ. eigenvalues --    0.29265   0.38256   0.39980
  Beta virt. eigenvalues --    0.32627   0.35046   0.35757   0.36251   0.40351
  Beta virt. eigenvalues --    0.40540   0.41974   0.43317   0.44136   0.57267
  Beta virt. eigenvalues --    0.58720   0.68494   0.69319   0.76832   0.77249
  Beta virt. eigenvalues --    0.84043   0.84665   0.86753   0.88806   0.89926
  Beta virt. eigenvalues --    0.90120   0.91069   0.92314   1.02333   1.05858
  Beta virt. eigenvalues --    1.08435   1.10812   1.11028   1.12974   1.19632
  Beta virt. eigenvalues --    1.20387   1.24667   1.28463   1.34521   1.42602
  Beta virt. eigenvalues --    1.44596   1.51085   1.71819   1.73084
          Condensed to atoms (all electrons):
               1          2          3          4          5          6
     1  C    5.555169   0.403896  -0.002833  -0.132380   0.216264   0.060989
     2  C    0.403896   5.015868   0.499973   0.058828  -0.132380  -0.001180
     3  C   -0.002833   0.499973   4.722672   0.499973  -0.002833  -0.011839
     4  C   -0.132380   0.058828   0.499973   5.015868   0.403896  -0.001180
     5  C    0.216264  -0.132380  -0.002833   0.403896   5.555169   0.060989
     6  H    0.060989  -0.001180  -0.011839  -0.001180   0.060989   0.647562
     7  H    0.222589  -0.033554   0.011153   0.007646  -0.068609   0.032104
     8  H   -0.070779   0.257568  -0.045658   0.014336   0.009386   0.003920
     9  H    0.018996  -0.088940   0.296355  -0.088940   0.018996  -0.001524
    10  H    0.009386   0.014336  -0.045658   0.257568  -0.070779   0.003920
    11  H   -0.068609   0.007646   0.011153  -0.033554   0.222589   0.032104
               7          8          9         10         11
     1  C    0.222589  -0.070779   0.018996   0.009386  -0.068609
     2  C   -0.033554   0.257568  -0.088940   0.014336   0.007646
     3  C    0.011153  -0.045658   0.296355  -0.045658   0.011153
     4  C    0.007646   0.014336  -0.088940   0.257568  -0.033554
     5  C   -0.068609   0.009386   0.018996  -0.070779   0.222589
     6  H    0.032104   0.003920  -0.001524   0.003920   0.032104
     7  H    0.753655  -0.005369  -0.000427  -0.000271   0.002285
     8  H   -0.005369   0.823874  -0.012037  -0.000830  -0.000271
     9  H   -0.000427  -0.012037   0.891473  -0.012037  -0.000427
    10  H   -0.000271  -0.000830  -0.012037   0.823874  -0.005369
    11  H    0.002285  -0.000271  -0.000427  -0.005369   0.753655
          Atomic-Atomic Spin Densities.
               1          2          3          4          5          6
     1  C   -0.000000   0.000000  -0.000000   0.000000   0.000000   0.000000
     2  C    0.000000   0.000000  -0.000000  -0.000000   0.000000  -0.000000
     3  C   -0.000000  -0.000000   0.000000  -0.000000  -0.000000   0.000000
     4  C    0.000000  -0.000000  -0.000000   0.000000   0.000000  -0.000000
     5  C    0.000000   0.000000  -0.000000   0.000000  -0.000000   0.000000
     6  H    0.000000  -0.000000   0.000000  -0.000000   0.000000   0.000000
     7  H    0.000000   0.000000  -0.000000  -0.000000  -0.000000   0.000000
     8  H    0.000000   0.000000  -0.000000  -0.000000   0.000000  -0.000000
     9  H   -0.000000   0.000000   0.000000   0.000000  -0.000000   0.000000
    10  H    0.000000  -0.000000  -0.000000   0.000000   0.000000  -0.000000
    11  H   -0.000000  -0.000000  -0.000000   0.000000   0.000000   0.000000
               7          8          9         10         11
     1  C    0.000000   0.000000  -0.000000   0.000000  -0.000000
     2  C    0.000000   0.000000   0.000000  -0.000000  -0.000000
     3  C   -0.000000  -0.000000   0.000000  -0.000000  -0.000000
     4  C   -0.000000  -0.000000   0.000000   0.000000   0.000000
     5  C   -0.000000   0.000000  -0.000000   0.000000   0.000000
     6  H    0.000000  -0.000000   0.000000  -0.000000   0.000000
     7  H   -0.000000  -0.000000  -0.000000   0.000000  -0.000000
     8  H   -0.000000  -0.000000   0.000000   0.000000   0.000000
     9  H   -0.000000   0.000000  -0.000000   0.000000  -0.000000
    10  H    0.000000   0.000000   0.000000  -0.000000  -0.000000
    11  H   -0.000000   0.000000  -0.000000  -0.000000  -0.000000
 Mulliken charges and spin densities:
               1          2
     1  C   -0.212689  -0.000000
     2  C   -0.002062   0.000000
     3  C    0.067541   0.000000
     4  C   -0.002062   0.000000
     5  C   -0.212689  -0.000000
     6  H    0.174135   0.000000
     7  H    0.078798   0.000000
     8  H    0.025858  -0.000000
     9  H   -0.021487  -0.000000
    10  H    0.025858  -0.000000
    11  H    0.078798   0.000000
 Sum of Mulliken charges =  -0.00000   0.00000
 Mulliken charges and spin densities with hydrogens summed into heavy atoms:
               1          2
     1  C    0.040244   0.000000
     2  C    0.023797   0.000000
     3  C    0.046054  -0.000000
     4  C    0.023797   0.000000
     5  C   -0.133891  -0.000000
 Electronic spatial extent (au):  <R**2>=            347.4416
 Charge=             -0.0000 electrons
 Dipole moment (field-independent basis, Debye):
    X=             -0.0000    Y=             -0.0000    Z=             -1.7661  Tot=              1.7661
 Quadrupole moment (field-independent basis, Debye-Ang):
   XX=            -38.8218   YY=            -31.8180   ZZ=            -29.7517
   XY=              0.0000   XZ=              0.0000   YZ=              0.0000
 Traceless Quadrupole moment (field-independent basis, Debye-Ang):
   XX=             -5.3580   YY=              1.6458   ZZ=              3.7122
   XY=              0.0000   XZ=              0.0000   YZ=              0.0000
 Octapole moment (field-independent basis, Debye-Ang**2):
  XXX=              0.0000  YYY=              0.0000  ZZZ=             -7.1927  XYY=              0.0000
  XXY=             -0.0000  XXZ=              0.8954  XZZ=              0.0000  YZZ=             -0.0000
  YYZ=             -1.4565  XYZ=             -0.0000
 Hexadecapole moment (field-independent basis, Debye-Ang**3):
 XXXX=            -45.1152 YYYY=           -245.1954 ZZZZ=           -231.4096 XXXY=             -0.0000
 XXXZ=             -0.0000 YYYX=             -0.0000 YYYZ=              0.0000 ZZZX=             -0.0000
 ZZZY=              0.0000 XXYY=            -54.9749 XXZZ=            -53.3261 YYZZ=            -77.8603
 XXYZ=             -0.0000 YYXZ=             -0.0000 ZZXY=             -0.0000
 N-N= 1.560127424860D+02 E-N=-7.560595105837D+02  KE= 1.910647618413D+02
 Symmetry A1   KE= 1.103312097179D+02
 Symmetry A2   KE= 2.187507822475D+00
 Symmetry B1   KE= 3.738358098008D+00
 Symmetry B2   KE= 7.480768620295D+01
 Symmetry A1   SP= 1.020678959948D-15
 Symmetry A2   SP=-1.910143483850D-16
 Symmetry B1   SP=-3.236067450111D-16
 Symmetry B2   SP= 6.119035173604D-17
                          Isotropic Fermi Contact Couplings
        Atom                 a.u.       MegaHertz       Gauss      10(-4) cm-1
     1  C(13)             -0.00000      -0.00004      -0.00001      -0.00001
     2  C(13)              0.00000       0.00001       0.00000       0.00000
     3  C(13)              0.00000       0.00003       0.00001       0.00001
     4  C(13)              0.00000       0.00001       0.00000       0.00000
     5  C(13)             -0.00000      -0.00004      -0.00001      -0.00001
     6  H(1)              -0.00000      -0.00000      -0.00000      -0.00000
     7  H(1)               0.00000       0.00000       0.00000       0.00000
     8  H(1)               0.00000       0.00000       0.00000       0.00000
     9  H(1)              -0.00000      -0.00000      -0.00000      -0.00000
    10  H(1)               0.00000       0.00000       0.00000       0.00000
    11  H(1)               0.00000       0.00000       0.00000       0.00000
 --------------------------------------------------------
       Center         ----  Spin Dipole Couplings  ----
                      3XX-RR        3YY-RR        3ZZ-RR
 --------------------------------------------------------
     1   Atom       -0.000000      0.000000     -0.000000
     2   Atom       -0.000000      0.000000      0.000000
     3   Atom       -0.000000     -0.000000      0.000000
     4   Atom       -0.000000      0.000000      0.000000
     5   Atom       -0.000000      0.000000     -0.000000
     6   Atom        0.000000     -0.000000      0.000000
     7   Atom       -0.000000     -0.000000      0.000000
     8   Atom       -0.000000      0.000000     -0.000000
     9   Atom       -0.000000     -0.000000      0.000000
    10   Atom       -0.000000      0.000000     -0.000000
    11   Atom       -0.000000     -0.000000      0.000000
 --------------------------------------------------------
                        XY            XZ            YZ
 --------------------------------------------------------
     1   Atom        0.000000      0.000000     -0.000000
     2   Atom       -0.000000      0.000000      0.000000
     3   Atom        0.000000      0.000000      0.000000
     4   Atom       -0.000000     -0.000000     -0.000000
     5   Atom       -0.000000      0.000000      0.000000
     6   Atom       -0.000000      0.000000      0.000000
     7   Atom        0.000000     -0.000000      0.000000
     8   Atom       -0.000000      0.000000      0.000000
     9   Atom        0.000000      0.000000     -0.000000
    10   Atom        0.000000     -0.000000     -0.000000
    11   Atom        0.000000      0.000000     -0.000000
 --------------------------------------------------------


 ---------------------------------------------------------------------------------
              Anisotropic Spin Dipole Couplings in Principal Axis System
 ---------------------------------------------------------------------------------

       Atom             a.u.   MegaHertz   Gauss  10(-4) cm-1        Axes

              Baa    -0.0000    -0.000    -0.000    -0.000  1.0000  0.0000  0.0000
     1 C(13)  Bbb    -0.0000    -0.000    -0.000    -0.000 -0.0000  0.3173  0.9483
              Bcc     0.0000     0.000     0.000     0.000 -0.0000  0.9483 -0.3173
 
              Baa    -0.0000    -0.000    -0.000    -0.000  1.0000 -0.0000  0.0000
     2 C(13)  Bbb    -0.0000    -0.000    -0.000    -0.000  0.0000  0.7701 -0.6379
              Bcc     0.0000     0.000     0.000     0.000  0.0000  0.6379  0.7701
 
              Baa    -0.0000    -0.000    -0.000    -0.000 -0.0000  1.0000 -0.0000
     3 C(13)  Bbb    -0.0000    -0.000    -0.000    -0.000  1.0000  0.0000 -0.0000
              Bcc     0.0000     0.000     0.000     0.000  0.0000  0.0000  1.0000
 
              Baa    -0.0000    -0.000    -0.000    -0.000  1.0000  0.0000  0.0000
     4 C(13)  Bbb    -0.0000    -0.000    -0.000    -0.000 -0.0000  0.7701  0.6379
              Bcc     0.0000     0.000     0.000     0.000  0.0000 -0.6379  0.7701
 
              Baa    -0.0000    -0.000    -0.000    -0.000  1.0000  0.0000 -0.0000
     5 C(13)  Bbb    -0.0000    -0.000    -0.000    -0.000  0.0000 -0.3173  0.9483
              Bcc     0.0000     0.000     0.000     0.000 -0.0000  0.9483  0.3173
 
              Baa    -0.0000    -0.000    -0.000    -0.000  0.0000  1.0000 -0.0000
     6 H(1)   Bbb     0.0000     0.000     0.000     0.000  1.0000 -0.0000 -0.0000
              Bcc     0.0000     0.000     0.000     0.000  0.0000  0.0000  1.0000
 
              Baa    -0.0000    -0.000    -0.000    -0.000 -0.0000  0.9944 -0.1062
     7 H(1)   Bbb    -0.0000    -0.000    -0.000    -0.000  1.0000  0.0000  0.0000
              Bcc     0.0000     0.000     0.000     0.000 -0.0000  0.1062  0.9944
 
              Baa    -0.0000    -0.000    -0.000    -0.000 -0.0000 -0.0837  0.9965
     8 H(1)   Bbb    -0.0000    -0.000    -0.000    -0.000  1.0000 -0.0000  0.0000
              Bcc     0.0000     0.000     0.000     0.000  0.0000  0.9965  0.0837
 
              Baa    -0.0000    -0.000    -0.000    -0.000 -0.0000  1.0000  0.0000
     9 H(1)   Bbb    -0.0000    -0.000    -0.000    -0.000  1.0000  0.0000 -0.0000
              Bcc     0.0000     0.000     0.000     0.000  0.0000 -0.0000  1.0000
 
              Baa    -0.0000    -0.000    -0.000    -0.000 -0.0000  0.0837  0.9965
    10 H(1)   Bbb    -0.0000    -0.000    -0.000    -0.000  1.0000 -0.0000  0.0000
              Bcc     0.0000     0.000     0.000     0.000  0.0000  0.9965 -0.0837
 
              Baa    -0.0000    -0.000    -0.000    -0.000 -0.0000  0.9944  0.1062
    11 H(1)   Bbb    -0.0000    -0.000    -0.000    -0.000  1.0000  0.0000 -0.0000
              Bcc     0.0000     0.000     0.000     0.000  0.0000 -0.1062  0.9944
 

 ---------------------------------------------------------------------------------

 No NMR shielding tensors so no spin-rotation constants.
 Leave Link  601 at Thu Mar  5 13:05:18 2020, MaxMem=  6710886400 cpu:               3.2 elap:               0.2
 (Enter /opt/ohpc/pub/libs/gaussian/g16-A.03/sandybridge/g16/l9999.exe)

 Test job not archived.
 1\1\GINC-CNODE212\SP\ULC-wHPBE\6-31G\C5H6\SMGO234\05-Mar-2020\0\\#P uL
 C-wHPBE/6-31G iop(3/130=0111900000, 3/131=0111900000, 3/119=0888100000
 , 3/120=0888100000) scf=(conver=6,fermi,ndamp=35,noincfock,novaracc,vs
 hift=500,xqc)\\H6 C5\\0,1\C,0,0.,0.878804,-0.931542\C,0,0.,1.128157,0.
 423457\C,0,0.,0.,1.240879\C,0,0.,-1.128157,0.423457\C,0,0.,-0.878804,-
 0.931542\H,0,0.,0.,-1.732269\H,0,0.,1.6083,-1.734053\H,0,0.,2.156626,0
 .76567\H,0,0.,0.,2.320778\H,0,0.,-2.156626,0.76567\H,0,0.,-1.6083,-1.7
 34053\\Version=EM64L-G16RevA.03\State=1-A1\HF=-174.2219029\S2=0.\S2-1=
 0.\S2A=0.\RMSD=3.844e-07\Dipole=0.,0.,-0.694848\Quadrupole=-3.9835174,
 1.2236136,2.7599038,0.,0.,0.\PG=C02V [C2(H1C1H1),SGV(C4H4)]\\@


 STEINBACH'S GUIDELINES FOR SYSTEMS PROGRAMMING:
 NEVER TEST FOR AN ERROR CONDITION YOU DON'T KNOW HOW
 TO HANDLE.
 Job cpu time:       0 days  0 hours 33 minutes 27.0 seconds.
 Elapsed time:       0 days  0 hours  2 minutes  8.8 seconds.
 File lengths (MBytes):  RWF=    272 Int=      0 D2E=      0 Chk=     32 Scr=     32
 Normal termination of Gaussian 16 at Thu Mar  5 13:05:18 2020.
