 Entering Gaussian System, Link 0=g16
 Input=a1b_tune_c8.gjf
 Output=a1b_tune_c8.log
 Initial command:
 /opt/ohpc/pub/libs/gaussian/g16-A.03/sandybridge/g16/l1.exe "/scratch/smgo234/Ocelot/test/a1b/tuning_a1b_acycle3/Gau-91563.inp" -scrdir="/scratch/smgo234/Ocelot/test/a1b/tuning_a1b_acycle3/"
 Entering Link 1 = /opt/ohpc/pub/libs/gaussian/g16-A.03/sandybridge/g16/l1.exe PID=     91564.
  
 Copyright (c) 1988,1990,1992,1993,1995,1998,2003,2009,2016,
            Gaussian, Inc.  All Rights Reserved.
  
 This is part of the Gaussian(R) 16 program.  It is based on
 the Gaussian(R) 09 system (copyright 2009, Gaussian, Inc.),
 the Gaussian(R) 03 system (copyright 2003, Gaussian, Inc.),
 the Gaussian(R) 98 system (copyright 1998, Gaussian, Inc.),
 the Gaussian(R) 94 system (copyright 1995, Gaussian, Inc.),
 the Gaussian 92(TM) system (copyright 1992, Gaussian, Inc.),
 the Gaussian 90(TM) system (copyright 1990, Gaussian, Inc.),
 the Gaussian 88(TM) system (copyright 1988, Gaussian, Inc.),
 the Gaussian 86(TM) system (copyright 1986, Carnegie Mellon
 University), and the Gaussian 82(TM) system (copyright 1983,
 Carnegie Mellon University). Gaussian is a federally registered
 trademark of Gaussian, Inc.
  
 This software contains proprietary and confidential information,
 including trade secrets, belonging to Gaussian, Inc.
  
 This software is provided under written license and may be
 used, copied, transmitted, or stored only in accord with that
 written license.
  
 The following legend is applicable only to US Government
 contracts under FAR:
  
                    RESTRICTED RIGHTS LEGEND
  
 Use, reproduction and disclosure by the US Government is
 subject to restrictions as set forth in subparagraphs (a)
 and (c) of the Commercial Computer Software - Restricted
 Rights clause in FAR 52.227-19.
  
 Gaussian, Inc.
 340 Quinnipiac St., Bldg. 40, Wallingford CT 06492
  
  
 ---------------------------------------------------------------
 Warning -- This program may not be used in any manner that
 competes with the business of Gaussian, Inc. or will provide
 assistance to any competitor of Gaussian, Inc.  The licensee
 of this program is prohibited from giving any competitor of
 Gaussian, Inc. access to this program.  By using this program,
 the user acknowledges that Gaussian, Inc. is engaged in the
 business of creating and licensing software in the field of
 computational chemistry and represents and warrants to the
 licensee that it is not a competitor of Gaussian, Inc. and that
 it will not use this program in any manner prohibited above.
 ---------------------------------------------------------------
  

 Cite this work as:
 Gaussian 16, Revision A.03,
 M. J. Frisch, G. W. Trucks, H. B. Schlegel, G. E. Scuseria, 
 M. A. Robb, J. R. Cheeseman, G. Scalmani, V. Barone, 
 G. A. Petersson, H. Nakatsuji, X. Li, M. Caricato, A. V. Marenich, 
 J. Bloino, B. G. Janesko, R. Gomperts, B. Mennucci, H. P. Hratchian, 
 J. V. Ortiz, A. F. Izmaylov, J. L. Sonnenberg, D. Williams-Young, 
 F. Ding, F. Lipparini, F. Egidi, J. Goings, B. Peng, A. Petrone, 
 T. Henderson, D. Ranasinghe, V. G. Zakrzewski, J. Gao, N. Rega, 
 G. Zheng, W. Liang, M. Hada, M. Ehara, K. Toyota, R. Fukuda, 
 J. Hasegawa, M. Ishida, T. Nakajima, Y. Honda, O. Kitao, H. Nakai, 
 T. Vreven, K. Throssell, J. A. Montgomery, Jr., J. E. Peralta, 
 F. Ogliaro, M. J. Bearpark, J. J. Heyd, E. N. Brothers, K. N. Kudin, 
 V. N. Staroverov, T. A. Keith, R. Kobayashi, J. Normand, 
 K. Raghavachari, A. P. Rendell, J. C. Burant, S. S. Iyengar, 
 J. Tomasi, M. Cossi, J. M. Millam, M. Klene, C. Adamo, R. Cammi, 
 J. W. Ochterski, R. L. Martin, K. Morokuma, O. Farkas, 
 J. B. Foresman, and D. J. Fox, Gaussian, Inc., Wallingford CT, 2016.
 
 ******************************************
 Gaussian 16:  EM64L-G16RevA.03 25-Dec-2016
                 5-Mar-2020 
 ******************************************
 %mem=50GB
 %nproc=16
 Will use up to   16 processors via shared memory.
 ----------------------------------------------------------------------
 #P uLC-wHPBE/6-31G iop(3/130=0114200000, 3/131=0114200000, 3/119=08858
 00000, 3/120=0885800000) scf=(conver=6,fermi,ndamp=35,noincfock,novara
 cc,vshift=500,xqc)
 ----------------------------------------------------------------------
 1/38=1,172=1/1;
 2/12=2,17=6,18=5,40=1/2;
 3/5=1,6=6,11=2,25=1,30=1,74=-71,116=2,119=885800000,120=885800000,130=114200000,131=114200000/1,2,3;
 4//1;
 5/5=100002,6=6,8=3,10=500,13=1,18=-1,22=13,38=1,93=35/2,8;
 6/7=2,8=2,9=2,10=2,28=1/1;
 99/5=1,9=1/99;
 Leave Link    1 at Thu Mar  5 13:07:17 2020, MaxMem=  6710886400 cpu:              14.6 elap:               1.0
 (Enter /opt/ohpc/pub/libs/gaussian/g16-A.03/sandybridge/g16/l101.exe)
 -----
 H6 C5
 -----
 Symbolic Z-matrix:
 Charge =  1 Multiplicity = 2
 C                     0.        0.8788   -0.93154 
 C                     0.        1.12816   0.42346 
 C                     0.        0.        1.24088 
 C                     0.       -1.12816   0.42346 
 C                     0.       -0.8788   -0.93154 
 H                     0.        0.       -1.73227 
 H                     0.        1.6083   -1.73405 
 H                     0.        2.15663   0.76567 
 H                     0.        0.        2.32078 
 H                     0.       -2.15663   0.76567 
 H                     0.       -1.6083   -1.73405 
 
 ITRead=  0  0  0  0  0  0  0  0  0  0  0
 MicOpt= -1 -1 -1 -1 -1 -1 -1 -1 -1 -1 -1
 NAtoms=     11 NQM=       11 NQMF=       0 NMMI=      0 NMMIF=      0
                NMic=       0 NMicF=      0.
                    Isotopes and Nuclear Properties:
 (Nuclear quadrupole moments (NQMom) in fm**2, nuclear magnetic moments (NMagM)
  in nuclear magnetons)

  Atom         1           2           3           4           5           6           7           8           9          10
 IAtWgt=          12          12          12          12          12           1           1           1           1           1
 AtmWgt=  12.0000000  12.0000000  12.0000000  12.0000000  12.0000000   1.0078250   1.0078250   1.0078250   1.0078250   1.0078250
 NucSpn=           0           0           0           0           0           1           1           1           1           1
 AtZEff=  -0.0000000  -0.0000000  -0.0000000  -0.0000000  -0.0000000  -0.0000000  -0.0000000  -0.0000000  -0.0000000  -0.0000000
 NQMom=    0.0000000   0.0000000   0.0000000   0.0000000   0.0000000   0.0000000   0.0000000   0.0000000   0.0000000   0.0000000
 NMagM=    0.0000000   0.0000000   0.0000000   0.0000000   0.0000000   2.7928460   2.7928460   2.7928460   2.7928460   2.7928460
 AtZNuc=   6.0000000   6.0000000   6.0000000   6.0000000   6.0000000   1.0000000   1.0000000   1.0000000   1.0000000   1.0000000

  Atom        11
 IAtWgt=           1
 AtmWgt=   1.0078250
 NucSpn=           1
 AtZEff=  -0.0000000
 NQMom=    0.0000000
 NMagM=    2.7928460
 AtZNuc=   1.0000000
 Leave Link  101 at Thu Mar  5 13:07:17 2020, MaxMem=  6710886400 cpu:               2.5 elap:               0.2
 (Enter /opt/ohpc/pub/libs/gaussian/g16-A.03/sandybridge/g16/l202.exe)
                          Input orientation:                          
 ---------------------------------------------------------------------
 Center     Atomic      Atomic             Coordinates (Angstroms)
 Number     Number       Type             X           Y           Z
 ---------------------------------------------------------------------
      1          6           0        0.000000    0.878804   -0.931542
      2          6           0        0.000000    1.128157    0.423457
      3          6           0        0.000000    0.000000    1.240879
      4          6           0        0.000000   -1.128157    0.423457
      5          6           0        0.000000   -0.878804   -0.931542
      6          1           0        0.000000    0.000000   -1.732269
      7          1           0        0.000000    1.608300   -1.734053
      8          1           0        0.000000    2.156626    0.765670
      9          1           0        0.000000    0.000000    2.320778
     10          1           0        0.000000   -2.156626    0.765670
     11          1           0        0.000000   -1.608300   -1.734053
 ---------------------------------------------------------------------
                    Distance matrix (angstroms):
                    1          2          3          4          5
     1  C    0.000000
     2  C    1.377752   0.000000
     3  C    2.343440   1.393168   0.000000
     4  C    2.421552   2.256314   1.393168   0.000000
     5  C    1.757608   2.421552   2.343440   1.377752   0.000000
     6  H    1.188890   2.433083   2.973148   2.433083   1.188890
     7  H    1.084522   2.210291   3.381841   3.484687   2.613371
     8  H    2.124466   1.083909   2.208361   3.302561   3.477695
     9  H    3.368959   2.207389   1.079899   2.207389   3.368959
    10  H    3.477695   3.302561   2.208361   1.083909   2.124466
    11  H    2.613371   3.484687   3.381841   2.210291   1.084522
                    6          7          8          9         10
     6  H    0.000000
     7  H    1.608301   0.000000
     8  H    3.300111   2.559155   0.000000
     9  H    4.053047   4.362142   2.658834   0.000000
    10  H    3.300111   4.519213   4.313252   2.658834   0.000000
    11  H    1.608301   3.216600   4.519213   4.362142   2.559155
                   11
    11  H    0.000000
 Stoichiometry    C5H6(1+,2)
 Framework group  C2V[C2(HCH),SGV(C4H4)]
 Deg. of freedom    10
 Full point group                 C2V     NOp   4
 Largest Abelian subgroup         C2V     NOp   4
 Largest concise Abelian subgroup C2      NOp   2
                         Standard orientation:                         
 ---------------------------------------------------------------------
 Center     Atomic      Atomic             Coordinates (Angstroms)
 Number     Number       Type             X           Y           Z
 ---------------------------------------------------------------------
      1          6           0        0.000000    0.878804   -0.931542
      2          6           0        0.000000    1.128157    0.423457
      3          6           0        0.000000   -0.000000    1.240879
      4          6           0       -0.000000   -1.128157    0.423457
      5          6           0       -0.000000   -0.878804   -0.931542
      6          1           0       -0.000000    0.000000   -1.732269
      7          1           0        0.000000    1.608300   -1.734053
      8          1           0        0.000000    2.156626    0.765670
      9          1           0        0.000000   -0.000000    2.320778
     10          1           0       -0.000000   -2.156626    0.765670
     11          1           0       -0.000000   -1.608300   -1.734053
 ---------------------------------------------------------------------
 Rotational constants (GHZ):           8.5259551           7.9375455           4.1106177
 Leave Link  202 at Thu Mar  5 13:07:17 2020, MaxMem=  6710886400 cpu:               0.8 elap:               0.1
 (Enter /opt/ohpc/pub/libs/gaussian/g16-A.03/sandybridge/g16/l301.exe)
 Standard basis: 6-31G (6D, 7F)
 Ernie: Thresh=  0.10000D-02 Tol=  0.10000D-05 Strict=F.
 There are    27 symmetry adapted cartesian basis functions of A1  symmetry.
 There are     4 symmetry adapted cartesian basis functions of A2  symmetry.
 There are     6 symmetry adapted cartesian basis functions of B1  symmetry.
 There are    20 symmetry adapted cartesian basis functions of B2  symmetry.
 There are    27 symmetry adapted basis functions of A1  symmetry.
 There are     4 symmetry adapted basis functions of A2  symmetry.
 There are     6 symmetry adapted basis functions of B1  symmetry.
 There are    20 symmetry adapted basis functions of B2  symmetry.
    57 basis functions,   134 primitive gaussians,    57 cartesian basis functions
    18 alpha electrons       17 beta electrons
       nuclear repulsion energy       156.0127424860 Hartrees.
 IExCor=33909 DFT=T Ex+Corr=LC-wHPBE ExCW=0 ScaHFX=  1.000000
 ScaDFX=  1.000000  1.000000  1.000000  1.000000 ScalE2=  1.000000  1.000000
 IRadAn=      5 IRanWt=     -1 IRanGd=            0 ICorTp=0 IEmpDi=  4
 HFx  wShort=  0.000000 wLong=  0.400000 cFull=  0.000000 cShort=  0.000000 cLong=  0.885800
 DFx  wShort=  0.000000 wLong=  0.400000 cFull=  0.000000 cShort=  0.000000 cLong=  0.885800
 NAtoms=   11 NActive=   11 NUniq=    7 SFac= 2.47D+00 NAtFMM=   60 NAOKFM=F Big=F
 Integral buffers will be    131072 words long.
 Raffenetti 2 integral format.
 Two-electron integral symmetry is turned on.
 Leave Link  301 at Thu Mar  5 13:07:17 2020, MaxMem=  6710886400 cpu:               1.0 elap:               0.1
 (Enter /opt/ohpc/pub/libs/gaussian/g16-A.03/sandybridge/g16/l302.exe)
 NPDir=0 NMtPBC=     1 NCelOv=     1 NCel=       1 NClECP=     1 NCelD=      1
         NCelK=      1 NCelE2=     1 NClLst=     1 CellRange=     0.0.
 One-electron integrals computed using PRISM.
 One-electron integral symmetry used in STVInt
 NBasis=    57 RedAO= T EigKep=  1.84D-03  NBF=    27     4     6    20
 NBsUse=    57 1.00D-06 EigRej= -1.00D+00 NBFU=    27     4     6    20
 Precomputing XC quadrature grid using
 IXCGrd= 4 IRadAn=           5 IRanWt=          -1 IRanGd=           0 AccXCQ= 0.00D+00.
 Generated NRdTot=       0 NPtTot=           0 NUsed=           0 NTot=          32
 NSgBfM=    57    57    57    57    57 MxSgAt=    11 MxSgA2=    11.
 Leave Link  302 at Thu Mar  5 13:07:17 2020, MaxMem=  6710886400 cpu:               2.1 elap:               0.2
 (Enter /opt/ohpc/pub/libs/gaussian/g16-A.03/sandybridge/g16/l303.exe)
 DipDrv:  MaxL=1.
 Leave Link  303 at Thu Mar  5 13:07:17 2020, MaxMem=  6710886400 cpu:               0.5 elap:               0.1
 (Enter /opt/ohpc/pub/libs/gaussian/g16-A.03/sandybridge/g16/l401.exe)
 ExpMin= 1.61D-01 ExpMax= 3.05D+03 ExpMxC= 4.57D+02 IAcc=3 IRadAn=         5 AccDes= 0.00D+00
 Harris functional with IExCor=33909 and IRadAn=       5 diagonalized for initial guess.
 HarFok:  IExCor=33909 AccDes= 0.00D+00 IRadAn=         5 IDoV= 1 UseB2=F ITyADJ=14
 ICtDFT=  3500011 ScaDFX=  1.000000  1.000000  1.000000  1.000000
 FoFCou: FMM=F IPFlag=           0 FMFlag=      100000 FMFlg1=           0
         NFxFlg=           0 DoJE=T BraDBF=F KetDBF=T FulRan=T
         wScrn=  0.000000 ICntrl=       500 IOpCl=  0 I1Cent=   200000004 NGrid=           0
         NMat0=    1 NMatS0=      1 NMatT0=    0 NMatD0=    1 NMtDS0=    0 NMtDT0=    0
 Petite list used in FoFCou.
 Harris En= -172.521587773346    
 JPrj=0 DoOrth=F DoCkMO=F.
 Initial guess orbital symmetries:
 Alpha Orbitals:
       Occupied  (A1) (B2) (A1) (B2) (A1) (A1) (A1) (B2) (A1) (A1)
                 (B2) (B1) (B2) (A1) (A1) (B2) (A2) (B1)
       Virtual   (A2) (A1) (B2) (B1) (A1) (B2) (A1) (A1) (B2) (A1)
                 (B2) (B2) (A1) (B1) (B2) (A2) (A1) (B1) (A1) (B2)
                 (A2) (A1) (B1) (B2) (A1) (B2) (B2) (A1) (A1) (B2)
                 (A1) (A1) (A1) (B2) (B2) (A1) (A1) (A1) (B2)
 Beta  Orbitals:
       Occupied  (A1) (B2) (A1) (B2) (A1) (A1) (A1) (B2) (A1) (A1)
                 (B2) (B1) (B2) (A1) (A1) (B2) (A2)
       Virtual   (B1) (A2) (A1) (B2) (B1) (A1) (B2) (A1) (A1) (B2)
                 (A1) (B2) (B2) (A1) (B1) (B2) (A2) (A1) (B1) (A1)
                 (B2) (A2) (A1) (B1) (B2) (A1) (B2) (B2) (A1) (A1)
                 (B2) (A1) (A1) (A1) (B2) (B2) (A1) (A1) (A1) (B2)
 The electronic state of the initial guess is 2-B1.
 Initial guess <Sx>= 0.0000 <Sy>= 0.0000 <Sz>= 0.5000 <S**2>= 0.7500 S= 0.5000
 Leave Link  401 at Thu Mar  5 13:07:17 2020, MaxMem=  6710886400 cpu:               3.0 elap:               0.2
 (Enter /opt/ohpc/pub/libs/gaussian/g16-A.03/sandybridge/g16/l502.exe)
 Keep R1 and R2 ints in memory in symmetry-blocked form, NReq=16815681.
 FoFCou: FMM=F IPFlag=           0 FMFlag=           0 FMFlg1=           0
         NFxFlg=           0 DoJE=F BraDBF=F KetDBF=F FulRan=T
         wScrn=  0.000000 ICntrl=       600 IOpCl=  0 I1Cent=           0 NGrid=           0
         NMat0=    1 NMatS0=   1653 NMatT0=    0 NMatD0=    1 NMtDS0=    0 NMtDT0=    0
 Petite list used in FoFCou.
 UHF open shell SCF:
 Using DIIS extrapolation, IDIIS=    10.
 NGot=  6710886400 LenX=  6710059561 LenY=  6710055871
 Requested convergence on RMS density matrix=1.00D-06 within  32 cycles.
 Requested convergence on MAX density matrix=1.00D-04.
 Requested convergence on             energy=1.00D-04.
 Virtual orbitals will be shifted by   0.500 hartree.
 No special actions if energy rises.
 Dynamic level shift is on during FON iterations.

 Cycle   1  Pass 1  IDiag  1:
 E= -178.082052559322    
 DIIS: error= 6.65D-02 at cycle   1 NSaved=   1.
 NSaved= 1 IEnMin= 1 EnMin= -178.082052559322     IErMin= 1 ErrMin= 6.65D-02
 ErrMax= 6.65D-02  0.00D+00 EMaxC= 1.00D+00 BMatC= 7.92D-01 BMatP= 7.92D-01
 IDIUse=1 WtCom= 1.00D+00 WtEn= 0.00D+00
 Coeff-Com:  0.100D+01
 Coeff:      0.100D+01
 Gap=     0.414 Goal=   None    Shift=    0.500
 T= 1974. Gap= 0.871 NK=0 IS=   19 IE=   57 IFin=   18
          NO(<0.9)=   0  NV(>0.1)=   0     18.00e < EF      0.00e >EF  Err=0.0D+00
 Gap=     0.220 Goal=   None    Shift=    0.500
 T= 1974. Gap= 0.717 NK=0 IS=   18 IE=   57 IFin=   17
          NO(<0.9)=   0  NV(>0.1)=   0     17.00e < EF      0.00e >EF  Err=0.0D+00
 GapD=    0.220 DampG=1.000 DampE=0.500 DampFc=0.5000 IDamp=-1.
 Damping current iteration by 5.00D-01
 RMSDP=1.24D-02 MaxDP=1.02D-01              OVMax= 1.12D-01

 Cycle   2  Pass 1  IDiag  1:
 E= -178.223331400426     Delta-E=       -0.141278841104 Rises=F Damp=T
 DIIS: error= 2.88D-02 at cycle   2 NSaved=   2.
 NSaved= 2 IEnMin= 2 EnMin= -178.223331400426     IErMin= 2 ErrMin= 2.88D-02
 ErrMax= 2.88D-02  0.00D+00 EMaxC= 1.00D+00 BMatC= 1.41D-01 BMatP= 7.92D-01
 IDIUse=1 WtCom= 1.00D+00 WtEn= 0.00D+00
 Coeff-Com: -0.647D+00 0.165D+01
 Coeff:     -0.647D+00 0.165D+01
 Gap=     0.431 Goal=   None    Shift=    0.500
 T= 1848. Gap= 0.914 NK=0 IS=   19 IE=   57 IFin=   18
          NO(<0.9)=   0  NV(>0.1)=   0     18.00e < EF      0.00e >EF  Err=0.0D+00
 Gap=     0.241 Goal=   None    Shift=    0.500
 T= 1848. Gap= 0.733 NK=0 IS=   18 IE=   57 IFin=   17
          NO(<0.9)=   0  NV(>0.1)=   0     17.00e < EF      0.00e >EF  Err=0.0D+00
 GapD=    0.241 DampG=1.000 DampE=0.500 DampFc=0.5000 IDamp=-1.
 Damping current iteration by 5.00D-01
 RMSDP=8.50D-03 MaxDP=7.63D-02 DE=-1.41D-01 OVMax= 1.26D-02

 Cycle   3  Pass 1  IDiag  1:
 E= -178.273685400230     Delta-E=       -0.050353999804 Rises=F Damp=T
 DIIS: error= 1.28D-02 at cycle   3 NSaved=   3.
 NSaved= 3 IEnMin= 3 EnMin= -178.273685400230     IErMin= 3 ErrMin= 1.28D-02
 ErrMax= 1.28D-02  0.00D+00 EMaxC= 1.00D+00 BMatC= 2.97D-02 BMatP= 1.41D-01
 IDIUse=1 WtCom= 1.00D+00 WtEn= 0.00D+00
 Coeff-Com:  0.253D+00-0.165D+01 0.239D+01
 Coeff:      0.253D+00-0.165D+01 0.239D+01
 Gap=     0.413 Goal=   None    Shift=    0.500
 T= 1606. Gap= 0.913 NK=0 IS=   19 IE=   57 IFin=   18
          NO(<0.9)=   0  NV(>0.1)=   0     18.00e < EF      0.00e >EF  Err=0.0D+00
 Gap=     0.237 Goal=   None    Shift=    0.500
 T= 1606. Gap= 0.737 NK=0 IS=   18 IE=   57 IFin=   17
          NO(<0.9)=   0  NV(>0.1)=   0     17.00e < EF      0.00e >EF  Err=0.0D+00
 GapD=    0.237 DampG=1.000 DampE=0.500 DampFc=0.5000 IDamp=-1.
 Damping current iteration by 5.00D-01
 RMSDP=5.28D-03 MaxDP=4.91D-02 DE=-5.04D-02 OVMax= 1.12D-02

 Cycle   4  Pass 1  IDiag  1:
 E= -178.295608874686     Delta-E=       -0.021923474456 Rises=F Damp=T
 DIIS: error= 6.04D-03 at cycle   4 NSaved=   4.
 NSaved= 4 IEnMin= 4 EnMin= -178.295608874686     IErMin= 4 ErrMin= 6.04D-03
 ErrMax= 6.04D-03  0.00D+00 EMaxC= 1.00D+00 BMatC= 7.35D-03 BMatP= 2.97D-02
 IDIUse=1 WtCom= 1.00D+00 WtEn= 0.00D+00
 Coeff-Com:  0.155D+00-0.491D+00-0.629D+00 0.197D+01
 Coeff:      0.155D+00-0.491D+00-0.629D+00 0.197D+01
 Gap=     0.415 Goal=   None    Shift=    0.500
 T= 1115. Gap= 0.915 NK=0 IS=   19 IE=   57 IFin=   18
          NO(<0.9)=   0  NV(>0.1)=   0     18.00e < EF      0.00e >EF  Err=0.0D+00
 Gap=     0.238 Goal=   None    Shift=    0.500
 T= 1115. Gap= 0.738 NK=0 IS=   18 IE=   57 IFin=   17
          NO(<0.9)=   0  NV(>0.1)=   0     17.00e < EF      0.00e >EF  Err=0.0D+00
 GapD=    0.238 DampG=1.000 DampE=1.000 DampFc=1.0000 IDamp=-1.
 RMSDP=3.08D-03 MaxDP=2.92D-02 DE=-2.19D-02 OVMax= 5.63D-03

 Cycle   5  Pass 1  IDiag  1:
 E= -178.316390745498     Delta-E=       -0.020781870812 Rises=F Damp=F
 DIIS: error= 1.51D-03 at cycle   5 NSaved=   5.
 NSaved= 5 IEnMin= 5 EnMin= -178.316390745498     IErMin= 5 ErrMin= 1.51D-03
 ErrMax= 1.51D-03  0.00D+00 EMaxC= 1.00D+00 BMatC= 1.57D-04 BMatP= 7.35D-03
 IDIUse=1 WtCom= 1.00D+00 WtEn= 0.00D+00
 Coeff-Com: -0.391D-01 0.221D+00 0.159D+00-0.928D+00 0.159D+01
 Coeff:     -0.391D-01 0.221D+00 0.159D+00-0.928D+00 0.159D+01
 Gap=     0.415 Goal=   None    Shift=    0.500
 T=  604. Gap= 0.915 NK=0 IS=   19 IE=   57 IFin=   18
          NO(<0.9)=   0  NV(>0.1)=   0     18.00e < EF      0.00e >EF  Err=0.0D+00
 Gap=     0.239 Goal=   None    Shift=    0.500
 T=  604. Gap= 0.739 NK=0 IS=   18 IE=   57 IFin=   17
          NO(<0.9)=   0  NV(>0.1)=   0     17.00e < EF      0.00e >EF  Err=0.0D+00
 GapD=    0.239 DampG=1.000 DampE=1.000 DampFc=1.0000 IDamp=-1.
 RMSDP=3.15D-04 MaxDP=2.82D-03 DE=-2.08D-02 OVMax= 5.45D-03

 Cycle   6  Pass 1  IDiag  1:
 E= -178.316516230208     Delta-E=       -0.000125484710 Rises=F Damp=F
 DIIS: error= 1.15D-03 at cycle   6 NSaved=   6.
 NSaved= 6 IEnMin= 6 EnMin= -178.316516230208     IErMin= 6 ErrMin= 1.15D-03
 ErrMax= 1.15D-03  0.00D+00 EMaxC= 1.00D+00 BMatC= 4.89D-05 BMatP= 1.57D-04
 IDIUse=1 WtCom= 1.00D+00 WtEn= 0.00D+00
 Coeff-Com: -0.115D-01-0.296D-01 0.859D-01 0.454D-01-0.155D+01 0.246D+01
 Coeff:     -0.115D-01-0.296D-01 0.859D-01 0.454D-01-0.155D+01 0.246D+01
 Gap=     0.415 Goal=   None    Shift=    0.500
 T=   94. Gap= 0.915 NK=0 IS=   19 IE=   57 IFin=   18
          NO(<0.9)=   0  NV(>0.1)=   0     18.00e < EF      0.00e >EF  Err=0.0D+00
 Gap=     0.239 Goal=   None    Shift=    0.500
 T=   94. Gap= 0.739 NK=0 IS=   18 IE=   57 IFin=   17
          NO(<0.9)=   0  NV(>0.1)=   0     17.00e < EF      0.00e >EF  Err=0.0D+00
 GapD=    0.239 DampG=1.000 DampE=1.000 DampFc=1.0000 IDamp=-1.
 RMSDP=1.73D-04 MaxDP=2.32D-03 DE=-1.25D-04 OVMax= 4.55D-03

 Cycle   7  Pass 1  IDiag  1:
 E= -178.316573351530     Delta-E=       -0.000057121321 Rises=F Damp=F
 DIIS: error= 8.46D-04 at cycle   7 NSaved=   7.
 NSaved= 7 IEnMin= 7 EnMin= -178.316573351530     IErMin= 7 ErrMin= 8.46D-04
 ErrMax= 8.46D-04  0.00D+00 EMaxC= 1.00D+00 BMatC= 1.71D-05 BMatP= 4.89D-05
 IDIUse=1 WtCom= 1.00D+00 WtEn= 0.00D+00
 Coeff-Com:  0.929D-02-0.217D-01-0.174D+00 0.361D+00-0.222D+00-0.134D+01
 Coeff-Com:  0.238D+01
 Coeff:      0.929D-02-0.217D-01-0.174D+00 0.361D+00-0.222D+00-0.134D+01
 Coeff:      0.238D+01
 Gap=     0.416 Goal=   None    Shift=    0.500
 Gap=     0.240 Goal=   None    Shift=    0.500
 RMSDP=9.68D-05 MaxDP=1.67D-03 DE=-5.71D-05 OVMax= 3.27D-03

 Cycle   8  Pass 1  IDiag  1:
 E= -178.316597047292     Delta-E=       -0.000023695763 Rises=F Damp=F
 DIIS: error= 5.92D-04 at cycle   8 NSaved=   8.
 NSaved= 8 IEnMin= 8 EnMin= -178.316597047292     IErMin= 8 ErrMin= 5.92D-04
 ErrMax= 5.92D-04  0.00D+00 EMaxC= 1.00D+00 BMatC= 6.25D-06 BMatP= 1.71D-05
 IDIUse=1 WtCom= 1.00D+00 WtEn= 0.00D+00
 Coeff-Com:  0.395D-02 0.884D-02-0.122D+00 0.175D+00 0.203D+00-0.958D+00
 Coeff-Com: -0.936D-02 0.170D+01
 Coeff:      0.395D-02 0.884D-02-0.122D+00 0.175D+00 0.203D+00-0.958D+00
 Coeff:     -0.936D-02 0.170D+01
 Gap=     0.416 Goal=   None    Shift=    0.500
 Gap=     0.240 Goal=   None    Shift=    0.500
 RMSDP=5.40D-05 MaxDP=1.06D-03 DE=-2.37D-05 OVMax= 2.22D-03

 Cycle   9  Pass 1  IDiag  1:
 E= -178.316605935439     Delta-E=       -0.000008888147 Rises=F Damp=F
 DIIS: error= 3.80D-04 at cycle   9 NSaved=   9.
 NSaved= 9 IEnMin= 9 EnMin= -178.316605935439     IErMin= 9 ErrMin= 3.80D-04
 ErrMax= 3.80D-04  0.00D+00 EMaxC= 1.00D+00 BMatC= 2.40D-06 BMatP= 6.25D-06
 IDIUse=1 WtCom= 1.00D+00 WtEn= 0.00D+00
 Coeff-Com: -0.388D-02 0.185D-01 0.848D-02-0.622D-01 0.128D+00 0.363D+00
 Coeff-Com: -0.136D+01-0.674D-01 0.197D+01
 Coeff:     -0.388D-02 0.185D-01 0.848D-02-0.622D-01 0.128D+00 0.363D+00
 Coeff:     -0.136D+01-0.674D-01 0.197D+01
 Gap=     0.416 Goal=   None    Shift=    0.500
 Gap=     0.240 Goal=   None    Shift=    0.500
 RMSDP=3.33D-05 MaxDP=6.45D-04 DE=-8.89D-06 OVMax= 1.48D-03

 Cycle  10  Pass 1  IDiag  1:
 E= -178.316609353899     Delta-E=       -0.000003418460 Rises=F Damp=F
 DIIS: error= 2.48D-04 at cycle  10 NSaved=  10.
 NSaved=10 IEnMin=10 EnMin= -178.316609353899     IErMin=10 ErrMin= 2.48D-04
 ErrMax= 2.48D-04  0.00D+00 EMaxC= 1.00D+00 BMatC= 8.98D-07 BMatP= 2.40D-06
 IDIUse=1 WtCom= 1.00D+00 WtEn= 0.00D+00
 Coeff-Com:  0.503D-03-0.203D-02-0.218D-01 0.485D-01-0.113D+00 0.127D+00
 Coeff-Com:  0.263D+00-0.262D+00-0.198D+01 0.294D+01
 Coeff:      0.503D-03-0.203D-02-0.218D-01 0.485D-01-0.113D+00 0.127D+00
 Coeff:      0.263D+00-0.262D+00-0.198D+01 0.294D+01
 Gap=     0.416 Goal=   None    Shift=    0.500
 Gap=     0.240 Goal=   None    Shift=    0.500
 RMSDP=1.88D-05 MaxDP=3.50D-04 DE=-3.42D-06 OVMax= 9.69D-04

 Cycle  11  Pass 1  IDiag  1:
 E= -178.316610554498     Delta-E=       -0.000001200599 Rises=F Damp=F
 DIIS: error= 1.54D-04 at cycle  11 NSaved=  11.
 NSaved=11 IEnMin=11 EnMin= -178.316610554498     IErMin=11 ErrMin= 1.54D-04
 ErrMax= 1.54D-04  0.00D+00 EMaxC= 1.00D+00 BMatC= 3.11D-07 BMatP= 8.98D-07
 IDIUse=1 WtCom= 1.00D+00 WtEn= 0.00D+00
 Coeff-Com:  0.255D-03 0.108D-02-0.561D-02 0.468D-02 0.263D-01-0.105D+00
 Coeff-Com:  0.114D+00 0.168D-01 0.678D+00-0.318D+01 0.345D+01
 Coeff:      0.255D-03 0.108D-02-0.561D-02 0.468D-02 0.263D-01-0.105D+00
 Coeff:      0.114D+00 0.168D-01 0.678D+00-0.318D+01 0.345D+01
 Gap=     0.416 Goal=   None    Shift=    0.500
 Gap=     0.240 Goal=   None    Shift=    0.500
 RMSDP=1.04D-05 MaxDP=1.75D-04 DE=-1.20D-06 OVMax= 6.17D-04

 Cycle  12  Pass 1  IDiag  1:
 E= -178.316610955846     Delta-E=       -0.000000401348 Rises=F Damp=F
 DIIS: error= 9.41D-05 at cycle  12 NSaved=  12.
 NSaved=12 IEnMin=12 EnMin= -178.316610955846     IErMin=12 ErrMin= 9.41D-05
 ErrMax= 9.41D-05  0.00D+00 EMaxC= 1.00D+00 BMatC= 1.07D-07 BMatP= 3.11D-07
 IDIUse=1 WtCom= 1.00D+00 WtEn= 0.00D+00
 Coeff-Com: -0.799D-04-0.589D-03 0.940D-03 0.933D-03-0.127D-01 0.631D-01
 Coeff-Com: -0.760D-01-0.906D-01 0.248D-01 0.116D+01-0.361D+01 0.354D+01
 Coeff:     -0.799D-04-0.589D-03 0.940D-03 0.933D-03-0.127D-01 0.631D-01
 Coeff:     -0.760D-01-0.906D-01 0.248D-01 0.116D+01-0.361D+01 0.354D+01
 Gap=     0.416 Goal=   None    Shift=    0.500
 Gap=     0.240 Goal=   None    Shift=    0.500
 RMSDP=5.64D-06 MaxDP=8.79D-05 DE=-4.01D-07 OVMax= 3.79D-04

 Cycle  13  Pass 1  IDiag  1:
 E= -178.316611087528     Delta-E=       -0.000000131682 Rises=F Damp=F
 DIIS: error= 5.74D-05 at cycle  13 NSaved=  13.
 NSaved=13 IEnMin=13 EnMin= -178.316611087528     IErMin=13 ErrMin= 5.74D-05
 ErrMax= 5.74D-05  0.00D+00 EMaxC= 1.00D+00 BMatC= 3.99D-08 BMatP= 1.07D-07
 IDIUse=1 WtCom= 1.00D+00 WtEn= 0.00D+00
 Coeff-Com: -0.432D-04 0.288D-03-0.310D-02 0.532D-02-0.126D-01 0.372D-01
 Coeff-Com: -0.235D-01-0.578D-01-0.818D-01 0.707D+00-0.859D+00-0.144D+01
 Coeff-Com:  0.273D+01
 Coeff:     -0.432D-04 0.288D-03-0.310D-02 0.532D-02-0.126D-01 0.372D-01
 Coeff:     -0.235D-01-0.578D-01-0.818D-01 0.707D+00-0.859D+00-0.144D+01
 Coeff:      0.273D+01
 Gap=     0.416 Goal=   None    Shift=    0.500
 Gap=     0.240 Goal=   None    Shift=    0.500
 RMSDP=3.06D-06 MaxDP=4.54D-05 DE=-1.32D-07 OVMax= 2.32D-04

 Cycle  14  Pass 1  IDiag  1:
 E= -178.316611132038     Delta-E=       -0.000000044510 Rises=F Damp=F
 DIIS: error= 3.43D-05 at cycle  14 NSaved=  14.
 NSaved=14 IEnMin=14 EnMin= -178.316611132038     IErMin=14 ErrMin= 3.43D-05
 ErrMax= 3.43D-05  0.00D+00 EMaxC= 1.00D+00 BMatC= 1.50D-08 BMatP= 3.99D-08
 IDIUse=1 WtCom= 1.00D+00 WtEn= 0.00D+00
 Coeff-Com:  0.667D-05 0.275D-03-0.186D-02 0.257D-02-0.535D-03-0.119D-01
 Coeff-Com:  0.237D-01-0.508D-03 0.414D-01-0.323D+00 0.698D+00 0.854D-01
 Coeff-Com: -0.317D+01 0.366D+01
 Coeff:      0.667D-05 0.275D-03-0.186D-02 0.257D-02-0.535D-03-0.119D-01
 Coeff:      0.237D-01-0.508D-03 0.414D-01-0.323D+00 0.698D+00 0.854D-01
 Coeff:     -0.317D+01 0.366D+01
 Gap=     0.416 Goal=   None    Shift=    0.500
 Gap=     0.240 Goal=   None    Shift=    0.500
 RMSDP=1.69D-06 MaxDP=2.48D-05 DE=-4.45D-08 OVMax= 1.40D-04

 Cycle  15  Pass 1  IDiag  1:
 E= -178.316611147068     Delta-E=       -0.000000015030 Rises=F Damp=F
 DIIS: error= 2.01D-05 at cycle  15 NSaved=  15.
 NSaved=15 IEnMin=15 EnMin= -178.316611147068     IErMin=15 ErrMin= 2.01D-05
 ErrMax= 2.01D-05  0.00D+00 EMaxC= 1.00D+00 BMatC= 5.60D-09 BMatP= 1.50D-08
 IDIUse=1 WtCom= 1.00D+00 WtEn= 0.00D+00
 Coeff-Com:  0.298D-05-0.829D-04-0.314D-03 0.912D-03-0.217D-02 0.749D-02
 Coeff-Com: -0.490D-02-0.211D-01-0.489D-02 0.189D+00-0.436D+00 0.459D+00
 Coeff-Com:  0.320D+00-0.270D+01 0.320D+01
 Coeff:      0.298D-05-0.829D-04-0.314D-03 0.912D-03-0.217D-02 0.749D-02
 Coeff:     -0.490D-02-0.211D-01-0.489D-02 0.189D+00-0.436D+00 0.459D+00
 Coeff:      0.320D+00-0.270D+01 0.320D+01
 Gap=     0.416 Goal=   None    Shift=    0.500
 Gap=     0.240 Goal=   None    Shift=    0.500
 RMSDP=9.06D-07 MaxDP=1.36D-05 DE=-1.50D-08 OVMax= 8.17D-05

 SCF Done:  E(ULC-wHPBE) =  -178.316611147     A.U. after   15 cycles
            NFock= 15  Conv=0.91D-06     -V/T= 1.9596
 <Sx>= 0.0000 <Sy>= 0.0000 <Sz>= 0.5000 <S**2>= 0.7557 S= 0.5028
 <L.S>= 0.000000000000E+00
 KE= 1.858193535757D+02 PE=-7.386037989521D+02 EE= 2.184550917433D+02
 Annihilation of the first spin contaminant:
 S**2 before annihilation     0.7557,   after     0.7500
 Leave Link  502 at Thu Mar  5 13:07:19 2020, MaxMem=  6710886400 cpu:              26.0 elap:               1.8
 (Enter /opt/ohpc/pub/libs/gaussian/g16-A.03/sandybridge/g16/l508.exe)
 QCSCF skips out because SCF is already converged.
 Leave Link  508 at Thu Mar  5 13:07:19 2020, MaxMem=  6710886400 cpu:               0.2 elap:               0.0
 (Enter /opt/ohpc/pub/libs/gaussian/g16-A.03/sandybridge/g16/l601.exe)
 Copying SCF densities to generalized density rwf, IOpCl= 1 IROHF=0.

 **********************************************************************

            Population analysis using the SCF density.

 **********************************************************************

 Orbital symmetries:
 Alpha Orbitals:
       Occupied  (B2) (A1) (A1) (A1) (B2) (A1) (A1) (B2) (A1) (B2)
                 (A1) (B1) (B2) (A1) (A1) (B2) (A2) (B1)
       Virtual   (A2) (B2) (A1) (B1) (A1) (B2) (A1) (B2) (A1) (A1)
                 (B2) (B2) (A1) (B1) (B2) (A1) (A2) (B1) (A1) (A2)
                 (B2) (A1) (B1) (B2) (A1) (B2) (A1) (B2) (A1) (B2)
                 (A1) (A1) (A1) (B2) (B2) (A1) (A1) (A1) (B2)
 Beta  Orbitals:
       Occupied  (B2) (A1) (A1) (A1) (B2) (A1) (A1) (B2) (A1) (B2)
                 (A1) (B2) (B1) (A1) (A1) (B2) (A2)
       Virtual   (B1) (A2) (B2) (A1) (B1) (A1) (B2) (A1) (B2) (A1)
                 (A1) (B2) (B2) (A1) (B1) (B2) (A1) (A2) (B1) (A1)
                 (B2) (A2) (A1) (B1) (B2) (A1) (B2) (A1) (B2) (A1)
                 (B2) (A1) (A1) (A1) (B2) (B2) (A1) (A1) (A1) (B2)
 The electronic state is 2-B1.
 Alpha  occ. eigenvalues --   -8.91104  -8.91072  -8.85966  -8.84994  -8.84979
 Alpha  occ. eigenvalues --   -1.21743  -1.07759  -1.01721  -0.89475  -0.86402
 Alpha  occ. eigenvalues --   -0.85293  -0.74445  -0.73293  -0.71139  -0.69094
 Alpha  occ. eigenvalues --   -0.67365  -0.57665  -0.56115
 Alpha virt. eigenvalues --   -0.14546  -0.10923  -0.08684  -0.08220  -0.04872
 Alpha virt. eigenvalues --    0.00718   0.02078   0.05379   0.06114   0.15473
 Alpha virt. eigenvalues --    0.17466   0.28839   0.29870   0.38713   0.39118
 Alpha virt. eigenvalues --    0.45671   0.45993   0.46316   0.50359   0.53657
 Alpha virt. eigenvalues --    0.53896   0.55054   0.55695   0.66179   0.73359
 Alpha virt. eigenvalues --    0.74830   0.79573   0.81163   0.81346   0.86181
 Alpha virt. eigenvalues --    0.86995   0.90930   0.95481   0.98373   1.06700
 Alpha virt. eigenvalues --    1.07049   1.14642   1.35181   1.36271
  Beta  occ. eigenvalues --   -8.91119  -8.91082  -8.85975  -8.84993  -8.84979
  Beta  occ. eigenvalues --   -1.21552  -1.07147  -1.01768  -0.89314  -0.86368
  Beta  occ. eigenvalues --   -0.85347  -0.73394  -0.71391  -0.71218  -0.69167
  Beta  occ. eigenvalues --   -0.67441  -0.57292
  Beta virt. eigenvalues --   -0.33323  -0.12660  -0.10991  -0.08677  -0.06396
  Beta virt. eigenvalues --   -0.04864   0.00678   0.02033   0.05367   0.06117
  Beta virt. eigenvalues --    0.15505   0.17443   0.28743   0.29980   0.38928
  Beta virt. eigenvalues --    0.39131   0.45696   0.46015   0.46981   0.50751
  Beta virt. eigenvalues --    0.53714   0.53757   0.55360   0.55839   0.66262
  Beta virt. eigenvalues --    0.73550   0.74724   0.79457   0.81147   0.81279
  Beta virt. eigenvalues --    0.86040   0.87059   0.91073   0.95474   0.98360
  Beta virt. eigenvalues --    1.06672   1.07054   1.14747   1.35233   1.36307
          Condensed to atoms (all electrons):
               1          2          3          4          5          6
     1  C    5.264171   0.537404  -0.060732  -0.191291   0.270109   0.176632
     2  C    0.537404   4.837042   0.530232  -0.056865  -0.191291  -0.024680
     3  C   -0.060732   0.530232   4.688377   0.530232  -0.060732   0.010823
     4  C   -0.191291  -0.056865   0.530232   4.837042   0.537404  -0.024680
     5  C    0.270109  -0.191291  -0.060732   0.537404   5.264171   0.176632
     6  H    0.176632  -0.024680   0.010823  -0.024680   0.176632   0.337003
     7  H    0.352875   0.016710   0.000045   0.004950  -0.024880  -0.004346
     8  H   -0.017095   0.371369  -0.004866   0.006092   0.001887   0.000959
     9  H    0.008008  -0.027345   0.387094  -0.027345   0.008008  -0.000168
    10  H    0.001887   0.006092  -0.004866   0.371369  -0.017095   0.000959
    11  H   -0.024880   0.004950   0.000045   0.016710   0.352875  -0.004346
               7          8          9         10         11
     1  C    0.352875  -0.017095   0.008008   0.001887  -0.024880
     2  C    0.016710   0.371369  -0.027345   0.006092   0.004950
     3  C    0.000045  -0.004866   0.387094  -0.004866   0.000045
     4  C    0.004950   0.006092  -0.027345   0.371369   0.016710
     5  C   -0.024880   0.001887   0.008008  -0.017095   0.352875
     6  H   -0.004346   0.000959  -0.000168   0.000959  -0.004346
     7  H    0.359387  -0.001938  -0.000067  -0.000039   0.000730
     8  H   -0.001938   0.409747  -0.003261  -0.000147  -0.000039
     9  H   -0.000067  -0.003261   0.424293  -0.003261  -0.000067
    10  H   -0.000039  -0.000147  -0.003261   0.409747  -0.001938
    11  H    0.000730  -0.000039  -0.000067  -0.001938   0.359387
          Atomic-Atomic Spin Densities.
               1          2          3          4          5          6
     1  C    0.319237  -0.045202  -0.031686  -0.011973   0.062240  -0.000591
     2  C   -0.045202  -0.039242   0.048856   0.000640  -0.011973  -0.000194
     3  C   -0.031686   0.048856   0.484490   0.048856  -0.031686   0.000071
     4  C   -0.011973   0.000640   0.048856  -0.039242  -0.045202  -0.000194
     5  C    0.062240  -0.011973  -0.031686  -0.045202   0.319237  -0.000591
     6  H   -0.000591  -0.000194   0.000071  -0.000194  -0.000591  -0.003067
     7  H    0.000667  -0.000637   0.000036   0.000002  -0.000246  -0.000295
     8  H   -0.000448  -0.000072  -0.000061  -0.000063   0.000022   0.000004
     9  H    0.000081  -0.001010   0.001974  -0.001010   0.000081  -0.000005
    10  H    0.000022  -0.000063  -0.000061  -0.000072  -0.000448   0.000004
    11  H   -0.000246   0.000002   0.000036  -0.000637   0.000667  -0.000295
               7          8          9         10         11
     1  C    0.000667  -0.000448   0.000081   0.000022  -0.000246
     2  C   -0.000637  -0.000072  -0.001010  -0.000063   0.000002
     3  C    0.000036  -0.000061   0.001974  -0.000061   0.000036
     4  C    0.000002  -0.000063  -0.001010  -0.000072  -0.000637
     5  C   -0.000246   0.000022   0.000081  -0.000448   0.000667
     6  H   -0.000295   0.000004  -0.000005   0.000004  -0.000295
     7  H   -0.000603   0.000005  -0.000001   0.000000  -0.000017
     8  H    0.000005   0.000888  -0.000047  -0.000001   0.000000
     9  H   -0.000001  -0.000047  -0.000380  -0.000047  -0.000001
    10  H    0.000000  -0.000001  -0.000047   0.000888   0.000005
    11  H   -0.000017   0.000000  -0.000001   0.000005  -0.000603
 Mulliken charges and spin densities:
               1          2
     1  C   -0.317087   0.292100
     2  C   -0.003616  -0.048895
     3  C   -0.015654   0.520825
     4  C   -0.003616  -0.048895
     5  C   -0.317087   0.292100
     6  H    0.355215  -0.005153
     7  H    0.296574  -0.001089
     8  H    0.237293   0.000228
     9  H    0.234111  -0.000363
    10  H    0.237293   0.000228
    11  H    0.296574  -0.001089
 Sum of Mulliken charges =   1.00000   1.00000
 Mulliken charges and spin densities with hydrogens summed into heavy atoms:
               1          2
     1  C    0.334702   0.285859
     2  C    0.233677  -0.048666
     3  C    0.218458   0.520462
     4  C    0.233677  -0.048666
     5  C   -0.020513   0.291012
 Electronic spatial extent (au):  <R**2>=            335.3021
 Charge=              1.0000 electrons
 Dipole moment (field-independent basis, Debye):
    X=             -0.0000    Y=             -0.0000    Z=             -2.1166  Tot=              2.1166
 Quadrupole moment (field-independent basis, Debye-Ang):
   XX=            -36.9767   YY=            -25.9951   ZZ=            -21.0917
   XY=              0.0000   XZ=              0.0000   YZ=              0.0000
 Traceless Quadrupole moment (field-independent basis, Debye-Ang):
   XX=             -8.9555   YY=              2.0261   ZZ=              6.9294
   XY=              0.0000   XZ=              0.0000   YZ=              0.0000
 Octapole moment (field-independent basis, Debye-Ang**2):
  XXX=              0.0000  YYY=              0.0000  ZZZ=             -8.4683  XYY=              0.0000
  XXY=             -0.0000  XXZ=              0.7703  XZZ=              0.0000  YZZ=             -0.0000
  YYZ=             -3.0798  XYZ=             -0.0000
 Hexadecapole moment (field-independent basis, Debye-Ang**3):
 XXXX=            -42.5329 YYYY=           -211.4108 ZZZZ=           -186.9867 XXXY=             -0.0000
 XXXZ=             -0.0000 YYYX=             -0.0000 YYYZ=              0.0000 ZZZX=             -0.0000
 ZZZY=              0.0000 XXYY=            -53.1800 XXZZ=            -48.7180 YYZZ=            -64.5912
 XXYZ=              0.0000 YYXZ=             -0.0000 ZZXY=             -0.0000
 N-N= 1.560127424860D+02 E-N=-7.386037874886D+02  KE= 1.858193535757D+02
 Symmetry A1   KE= 1.078872164327D+02
 Symmetry A2   KE= 2.118188741717D+00
 Symmetry B1   KE= 2.644637531816D+00
 Symmetry B2   KE= 7.316931086953D+01
 Symmetry A1   SP= 1.206453537790D-14
 Symmetry A2   SP=-2.103406424731D-15
 Symmetry B1   SP= 1.000000000000D+00
 Symmetry B2   SP=-8.480706049663D-15
                          Isotropic Fermi Contact Couplings
        Atom                 a.u.       MegaHertz       Gauss      10(-4) cm-1
     1  C(13)              0.00650       7.30975       2.60830       2.43827
     2  C(13)             -0.00104      -1.17032      -0.41760      -0.39038
     3  C(13)              0.01074      12.06987       4.30683       4.02607
     4  C(13)             -0.00104      -1.17032      -0.41760      -0.39038
     5  C(13)              0.00650       7.30975       2.60830       2.43827
     6  H(1)              -0.00162      -7.25572      -2.58902      -2.42025
     7  H(1)              -0.00062      -2.78073      -0.99223      -0.92755
     8  H(1)               0.00019       0.86578       0.30893       0.28879
     9  H(1)              -0.00116      -5.17188      -1.84546      -1.72515
    10  H(1)               0.00019       0.86578       0.30893       0.28879
    11  H(1)              -0.00062      -2.78073      -0.99223      -0.92755
 --------------------------------------------------------
       Center         ----  Spin Dipole Couplings  ----
                      3XX-RR        3YY-RR        3ZZ-RR
 --------------------------------------------------------
     1   Atom        0.246118     -0.117116     -0.129001
     2   Atom       -0.025790      0.012026      0.013764
     3   Atom        0.477916     -0.241158     -0.236758
     4   Atom       -0.025790      0.012026      0.013764
     5   Atom        0.246118     -0.117116     -0.129001
     6   Atom        0.006068     -0.003960     -0.002108
     7   Atom       -0.000063      0.001851     -0.001788
     8   Atom       -0.007185      0.009516     -0.002331
     9   Atom        0.001155     -0.031776      0.030621
    10   Atom       -0.007185      0.009516     -0.002331
    11   Atom       -0.000063      0.001851     -0.001788
 --------------------------------------------------------
                        XY            XZ            YZ
 --------------------------------------------------------
     1   Atom       -0.000000     -0.000000     -0.002956
     2   Atom        0.000000      0.000000     -0.012633
     3   Atom       -0.000000     -0.000000      0.000000
     4   Atom       -0.000000     -0.000000      0.012633
     5   Atom       -0.000000      0.000000      0.002956
     6   Atom       -0.000000      0.000000      0.000000
     7   Atom       -0.000000      0.000000     -0.018803
     8   Atom        0.000000      0.000000     -0.000100
     9   Atom       -0.000000     -0.000000      0.000000
    10   Atom        0.000000     -0.000000      0.000100
    11   Atom       -0.000000     -0.000000      0.018803
 --------------------------------------------------------


 ---------------------------------------------------------------------------------
              Anisotropic Spin Dipole Couplings in Principal Axis System
 ---------------------------------------------------------------------------------

       Atom             a.u.   MegaHertz   Gauss  10(-4) cm-1        Axes

              Baa    -0.1297   -17.404    -6.210    -5.805  0.0000  0.2288  0.9735
     1 C(13)  Bbb    -0.1164   -15.623    -5.575    -5.211  0.0000  0.9735 -0.2288
              Bcc     0.2461    33.027    11.785    11.017  1.0000 -0.0000  0.0000
 
              Baa    -0.0258    -3.461    -1.235    -1.154  1.0000  0.0000  0.0000
     2 C(13)  Bbb     0.0002     0.031     0.011     0.010 -0.0000  0.7310  0.6824
              Bcc     0.0256     3.430     1.224     1.144  0.0000 -0.6824  0.7310
 
              Baa    -0.2412   -32.361   -11.547   -10.794  0.0000  1.0000  0.0000
     3 C(13)  Bbb    -0.2368   -31.771   -11.337   -10.598  0.0000  0.0000  1.0000
              Bcc     0.4779    64.132    22.884    21.392  1.0000 -0.0000  0.0000
 
              Baa    -0.0258    -3.461    -1.235    -1.154  1.0000  0.0000  0.0000
     4 C(13)  Bbb     0.0002     0.031     0.011     0.010  0.0000  0.7310 -0.6824
              Bcc     0.0256     3.430     1.224     1.144 -0.0000  0.6824  0.7310
 
              Baa    -0.1297   -17.404    -6.210    -5.805 -0.0000 -0.2288  0.9735
     5 C(13)  Bbb    -0.1164   -15.623    -5.575    -5.211  0.0000  0.9735  0.2288
              Bcc     0.2461    33.027    11.785    11.017  1.0000 -0.0000  0.0000
 
              Baa    -0.0040    -2.113    -0.754    -0.705  0.0000  1.0000 -0.0000
     6 H(1)   Bbb    -0.0021    -1.125    -0.401    -0.375 -0.0000  0.0000  1.0000
              Bcc     0.0061     3.238     1.155     1.080  1.0000 -0.0000  0.0000
 
              Baa    -0.0189   -10.063    -3.591    -3.357 -0.0000  0.6722  0.7404
     7 H(1)   Bbb    -0.0001    -0.033    -0.012    -0.011  1.0000  0.0000 -0.0000
              Bcc     0.0189    10.096     3.602     3.368 -0.0000  0.7404 -0.6722
 
              Baa    -0.0072    -3.833    -1.368    -1.279  1.0000 -0.0000 -0.0000
     8 H(1)   Bbb    -0.0023    -1.244    -0.444    -0.415  0.0000  0.0084  1.0000
              Bcc     0.0095     5.078     1.812     1.694  0.0000  1.0000 -0.0084
 
              Baa    -0.0318   -16.954    -6.050    -5.655 -0.0000  1.0000 -0.0000
     9 H(1)   Bbb     0.0012     0.616     0.220     0.206  1.0000  0.0000  0.0000
              Bcc     0.0306    16.338     5.830     5.450  0.0000  0.0000  1.0000
 
              Baa    -0.0072    -3.833    -1.368    -1.279  1.0000 -0.0000  0.0000
    10 H(1)   Bbb    -0.0023    -1.244    -0.444    -0.415 -0.0000 -0.0084  1.0000
              Bcc     0.0095     5.078     1.812     1.694  0.0000  1.0000  0.0084
 
              Baa    -0.0189   -10.063    -3.591    -3.357  0.0000 -0.6722  0.7404
    11 H(1)   Bbb    -0.0001    -0.033    -0.012    -0.011  1.0000  0.0000  0.0000
              Bcc     0.0189    10.096     3.602     3.368 -0.0000  0.7404  0.6722
 

 ---------------------------------------------------------------------------------

 No NMR shielding tensors so no spin-rotation constants.
 Leave Link  601 at Thu Mar  5 13:07:19 2020, MaxMem=  6710886400 cpu:               2.9 elap:               0.2
 (Enter /opt/ohpc/pub/libs/gaussian/g16-A.03/sandybridge/g16/l9999.exe)

 Test job not archived.
 1\1\GINC-CNODE212\SP\ULC-wHPBE\6-31G\C5H6(1+,2)\SMGO234\05-Mar-2020\0\
 \#P uLC-wHPBE/6-31G iop(3/130=0114200000, 3/131=0114200000, 3/119=0885
 800000, 3/120=0885800000) scf=(conver=6,fermi,ndamp=35,noincfock,novar
 acc,vshift=500,xqc)\\H6 C5\\1,2\C,0,0.,0.878804,-0.931542\C,0,0.,1.128
 157,0.423457\C,0,0.,0.,1.240879\C,0,0.,-1.128157,0.423457\C,0,0.,-0.87
 8804,-0.931542\H,0,0.,0.,-1.732269\H,0,0.,1.6083,-1.734053\H,0,0.,2.15
 6626,0.76567\H,0,0.,0.,2.320778\H,0,0.,-2.156626,0.76567\H,0,0.,-1.608
 3,-1.734053\\Version=EM64L-G16RevA.03\State=2-B1\HF=-178.3166111\S2=0.
 755669\S2-1=0.\S2A=0.750018\RMSD=9.060e-07\Dipole=0.,0.,-0.8327202\Qua
 drupole=-6.65821,1.5063365,5.1518735,0.,0.,0.\PG=C02V [C2(H1C1H1),SGV(
 C4H4)]\\@


 THERE'S SMALL CHOICE IN A BOWL OF ROTTEN APPLES.
                     SHAKESPEARE
 Job cpu time:       0 days  0 hours  0 minutes 54.1 seconds.
 Elapsed time:       0 days  0 hours  0 minutes  3.8 seconds.
 File lengths (MBytes):  RWF=    272 Int=      0 D2E=      0 Chk=     32 Scr=     32
 Normal termination of Gaussian 16 at Thu Mar  5 13:07:19 2020.
