 Entering Gaussian System, Link 0=g16
 Input=a1b_tune_n9.gjf
 Output=a1b_tune_n9.log
 Initial command:
 /opt/ohpc/pub/libs/gaussian/g16-A.03/sandybridge/g16/l1.exe "/scratch/smgo234/Ocelot/test/a1b/tuning_a1b_acycle3/Gau-91733.inp" -scrdir="/scratch/smgo234/Ocelot/test/a1b/tuning_a1b_acycle3/"
 Entering Link 1 = /opt/ohpc/pub/libs/gaussian/g16-A.03/sandybridge/g16/l1.exe PID=     91734.
  
 Copyright (c) 1988,1990,1992,1993,1995,1998,2003,2009,2016,
            Gaussian, Inc.  All Rights Reserved.
  
 This is part of the Gaussian(R) 16 program.  It is based on
 the Gaussian(R) 09 system (copyright 2009, Gaussian, Inc.),
 the Gaussian(R) 03 system (copyright 2003, Gaussian, Inc.),
 the Gaussian(R) 98 system (copyright 1998, Gaussian, Inc.),
 the Gaussian(R) 94 system (copyright 1995, Gaussian, Inc.),
 the Gaussian 92(TM) system (copyright 1992, Gaussian, Inc.),
 the Gaussian 90(TM) system (copyright 1990, Gaussian, Inc.),
 the Gaussian 88(TM) system (copyright 1988, Gaussian, Inc.),
 the Gaussian 86(TM) system (copyright 1986, Carnegie Mellon
 University), and the Gaussian 82(TM) system (copyright 1983,
 Carnegie Mellon University). Gaussian is a federally registered
 trademark of Gaussian, Inc.
  
 This software contains proprietary and confidential information,
 including trade secrets, belonging to Gaussian, Inc.
  
 This software is provided under written license and may be
 used, copied, transmitted, or stored only in accord with that
 written license.
  
 The following legend is applicable only to US Government
 contracts under FAR:
  
                    RESTRICTED RIGHTS LEGEND
  
 Use, reproduction and disclosure by the US Government is
 subject to restrictions as set forth in subparagraphs (a)
 and (c) of the Commercial Computer Software - Restricted
 Rights clause in FAR 52.227-19.
  
 Gaussian, Inc.
 340 Quinnipiac St., Bldg. 40, Wallingford CT 06492
  
  
 ---------------------------------------------------------------
 Warning -- This program may not be used in any manner that
 competes with the business of Gaussian, Inc. or will provide
 assistance to any competitor of Gaussian, Inc.  The licensee
 of this program is prohibited from giving any competitor of
 Gaussian, Inc. access to this program.  By using this program,
 the user acknowledges that Gaussian, Inc. is engaged in the
 business of creating and licensing software in the field of
 computational chemistry and represents and warrants to the
 licensee that it is not a competitor of Gaussian, Inc. and that
 it will not use this program in any manner prohibited above.
 ---------------------------------------------------------------
  

 Cite this work as:
 Gaussian 16, Revision A.03,
 M. J. Frisch, G. W. Trucks, H. B. Schlegel, G. E. Scuseria, 
 M. A. Robb, J. R. Cheeseman, G. Scalmani, V. Barone, 
 G. A. Petersson, H. Nakatsuji, X. Li, M. Caricato, A. V. Marenich, 
 J. Bloino, B. G. Janesko, R. Gomperts, B. Mennucci, H. P. Hratchian, 
 J. V. Ortiz, A. F. Izmaylov, J. L. Sonnenberg, D. Williams-Young, 
 F. Ding, F. Lipparini, F. Egidi, J. Goings, B. Peng, A. Petrone, 
 T. Henderson, D. Ranasinghe, V. G. Zakrzewski, J. Gao, N. Rega, 
 G. Zheng, W. Liang, M. Hada, M. Ehara, K. Toyota, R. Fukuda, 
 J. Hasegawa, M. Ishida, T. Nakajima, Y. Honda, O. Kitao, H. Nakai, 
 T. Vreven, K. Throssell, J. A. Montgomery, Jr., J. E. Peralta, 
 F. Ogliaro, M. J. Bearpark, J. J. Heyd, E. N. Brothers, K. N. Kudin, 
 V. N. Staroverov, T. A. Keith, R. Kobayashi, J. Normand, 
 K. Raghavachari, A. P. Rendell, J. C. Burant, S. S. Iyengar, 
 J. Tomasi, M. Cossi, J. M. Millam, M. Klene, C. Adamo, R. Cammi, 
 J. W. Ochterski, R. L. Martin, K. Morokuma, O. Farkas, 
 J. B. Foresman, and D. J. Fox, Gaussian, Inc., Wallingford CT, 2016.
 
 ******************************************
 Gaussian 16:  EM64L-G16RevA.03 25-Dec-2016
                 5-Mar-2020 
 ******************************************
 %mem=50GB
 %nproc=16
 Will use up to   16 processors via shared memory.
 ----------------------------------------------------------------------
 #P uLC-wHPBE/6-31G iop(3/130=0113100000, 3/131=0113100000, 3/119=08869
 00000, 3/120=0886900000) scf=(conver=6,fermi,ndamp=35,noincfock,novara
 cc,vshift=500,xqc)
 ----------------------------------------------------------------------
 1/38=1,172=1/1;
 2/12=2,17=6,18=5,40=1/2;
 3/5=1,6=6,11=2,25=1,30=1,74=-71,116=2,119=886900000,120=886900000,130=113100000,131=113100000/1,2,3;
 4//1;
 5/5=100002,6=6,8=3,10=500,13=1,18=-1,22=13,38=1,93=35/2,8;
 6/7=2,8=2,9=2,10=2,28=1/1;
 99/5=1,9=1/99;
 Leave Link    1 at Thu Mar  5 13:07:20 2020, MaxMem=  6710886400 cpu:              12.3 elap:               0.8
 (Enter /opt/ohpc/pub/libs/gaussian/g16-A.03/sandybridge/g16/l101.exe)
 -----
 H6 C5
 -----
 Symbolic Z-matrix:
 Charge =  0 Multiplicity = 1
 C                     0.        0.8788   -0.93154 
 C                     0.        1.12816   0.42346 
 C                     0.        0.        1.24088 
 C                     0.       -1.12816   0.42346 
 C                     0.       -0.8788   -0.93154 
 H                     0.        0.       -1.73227 
 H                     0.        1.6083   -1.73405 
 H                     0.        2.15663   0.76567 
 H                     0.        0.        2.32078 
 H                     0.       -2.15663   0.76567 
 H                     0.       -1.6083   -1.73405 
 
 ITRead=  0  0  0  0  0  0  0  0  0  0  0
 MicOpt= -1 -1 -1 -1 -1 -1 -1 -1 -1 -1 -1
 NAtoms=     11 NQM=       11 NQMF=       0 NMMI=      0 NMMIF=      0
                NMic=       0 NMicF=      0.
                    Isotopes and Nuclear Properties:
 (Nuclear quadrupole moments (NQMom) in fm**2, nuclear magnetic moments (NMagM)
  in nuclear magnetons)

  Atom         1           2           3           4           5           6           7           8           9          10
 IAtWgt=          12          12          12          12          12           1           1           1           1           1
 AtmWgt=  12.0000000  12.0000000  12.0000000  12.0000000  12.0000000   1.0078250   1.0078250   1.0078250   1.0078250   1.0078250
 NucSpn=           0           0           0           0           0           1           1           1           1           1
 AtZEff=  -0.0000000  -0.0000000  -0.0000000  -0.0000000  -0.0000000  -0.0000000  -0.0000000  -0.0000000  -0.0000000  -0.0000000
 NQMom=    0.0000000   0.0000000   0.0000000   0.0000000   0.0000000   0.0000000   0.0000000   0.0000000   0.0000000   0.0000000
 NMagM=    0.0000000   0.0000000   0.0000000   0.0000000   0.0000000   2.7928460   2.7928460   2.7928460   2.7928460   2.7928460
 AtZNuc=   6.0000000   6.0000000   6.0000000   6.0000000   6.0000000   1.0000000   1.0000000   1.0000000   1.0000000   1.0000000

  Atom        11
 IAtWgt=           1
 AtmWgt=   1.0078250
 NucSpn=           1
 AtZEff=  -0.0000000
 NQMom=    0.0000000
 NMagM=    2.7928460
 AtZNuc=   1.0000000
 Leave Link  101 at Thu Mar  5 13:07:20 2020, MaxMem=  6710886400 cpu:               2.2 elap:               0.2
 (Enter /opt/ohpc/pub/libs/gaussian/g16-A.03/sandybridge/g16/l202.exe)
                          Input orientation:                          
 ---------------------------------------------------------------------
 Center     Atomic      Atomic             Coordinates (Angstroms)
 Number     Number       Type             X           Y           Z
 ---------------------------------------------------------------------
      1          6           0        0.000000    0.878804   -0.931542
      2          6           0        0.000000    1.128157    0.423457
      3          6           0        0.000000    0.000000    1.240879
      4          6           0        0.000000   -1.128157    0.423457
      5          6           0        0.000000   -0.878804   -0.931542
      6          1           0        0.000000    0.000000   -1.732269
      7          1           0        0.000000    1.608300   -1.734053
      8          1           0        0.000000    2.156626    0.765670
      9          1           0        0.000000    0.000000    2.320778
     10          1           0        0.000000   -2.156626    0.765670
     11          1           0        0.000000   -1.608300   -1.734053
 ---------------------------------------------------------------------
                    Distance matrix (angstroms):
                    1          2          3          4          5
     1  C    0.000000
     2  C    1.377752   0.000000
     3  C    2.343440   1.393168   0.000000
     4  C    2.421552   2.256314   1.393168   0.000000
     5  C    1.757608   2.421552   2.343440   1.377752   0.000000
     6  H    1.188890   2.433083   2.973148   2.433083   1.188890
     7  H    1.084522   2.210291   3.381841   3.484687   2.613371
     8  H    2.124466   1.083909   2.208361   3.302561   3.477695
     9  H    3.368959   2.207389   1.079899   2.207389   3.368959
    10  H    3.477695   3.302561   2.208361   1.083909   2.124466
    11  H    2.613371   3.484687   3.381841   2.210291   1.084522
                    6          7          8          9         10
     6  H    0.000000
     7  H    1.608301   0.000000
     8  H    3.300111   2.559155   0.000000
     9  H    4.053047   4.362142   2.658834   0.000000
    10  H    3.300111   4.519213   4.313252   2.658834   0.000000
    11  H    1.608301   3.216600   4.519213   4.362142   2.559155
                   11
    11  H    0.000000
 Stoichiometry    C5H6
 Framework group  C2V[C2(HCH),SGV(C4H4)]
 Deg. of freedom    10
 Full point group                 C2V     NOp   4
 Largest Abelian subgroup         C2V     NOp   4
 Largest concise Abelian subgroup C2      NOp   2
                         Standard orientation:                         
 ---------------------------------------------------------------------
 Center     Atomic      Atomic             Coordinates (Angstroms)
 Number     Number       Type             X           Y           Z
 ---------------------------------------------------------------------
      1          6           0        0.000000    0.878804   -0.931542
      2          6           0        0.000000    1.128157    0.423457
      3          6           0        0.000000   -0.000000    1.240879
      4          6           0       -0.000000   -1.128157    0.423457
      5          6           0       -0.000000   -0.878804   -0.931542
      6          1           0       -0.000000    0.000000   -1.732269
      7          1           0        0.000000    1.608300   -1.734053
      8          1           0        0.000000    2.156626    0.765670
      9          1           0        0.000000   -0.000000    2.320778
     10          1           0       -0.000000   -2.156626    0.765670
     11          1           0       -0.000000   -1.608300   -1.734053
 ---------------------------------------------------------------------
 Rotational constants (GHZ):           8.5259551           7.9375455           4.1106177
 Leave Link  202 at Thu Mar  5 13:07:20 2020, MaxMem=  6710886400 cpu:               0.2 elap:               0.0
 (Enter /opt/ohpc/pub/libs/gaussian/g16-A.03/sandybridge/g16/l301.exe)
 Standard basis: 6-31G (6D, 7F)
 Ernie: Thresh=  0.10000D-02 Tol=  0.10000D-05 Strict=F.
 There are    27 symmetry adapted cartesian basis functions of A1  symmetry.
 There are     4 symmetry adapted cartesian basis functions of A2  symmetry.
 There are     6 symmetry adapted cartesian basis functions of B1  symmetry.
 There are    20 symmetry adapted cartesian basis functions of B2  symmetry.
 There are    27 symmetry adapted basis functions of A1  symmetry.
 There are     4 symmetry adapted basis functions of A2  symmetry.
 There are     6 symmetry adapted basis functions of B1  symmetry.
 There are    20 symmetry adapted basis functions of B2  symmetry.
    57 basis functions,   134 primitive gaussians,    57 cartesian basis functions
    18 alpha electrons       18 beta electrons
       nuclear repulsion energy       156.0127424860 Hartrees.
 IExCor=33909 DFT=T Ex+Corr=LC-wHPBE ExCW=0 ScaHFX=  1.000000
 ScaDFX=  1.000000  1.000000  1.000000  1.000000 ScalE2=  1.000000  1.000000
 IRadAn=      5 IRanWt=     -1 IRanGd=            0 ICorTp=0 IEmpDi=  4
 HFx  wShort=  0.000000 wLong=  0.400000 cFull=  0.000000 cShort=  0.000000 cLong=  0.886900
 DFx  wShort=  0.000000 wLong=  0.400000 cFull=  0.000000 cShort=  1.000000 cLong=  0.886900
 NAtoms=   11 NActive=   11 NUniq=    7 SFac= 2.47D+00 NAtFMM=   60 NAOKFM=F Big=F
 Integral buffers will be    131072 words long.
 Raffenetti 2 integral format.
 Two-electron integral symmetry is turned on.
 Leave Link  301 at Thu Mar  5 13:07:20 2020, MaxMem=  6710886400 cpu:               0.8 elap:               0.1
 (Enter /opt/ohpc/pub/libs/gaussian/g16-A.03/sandybridge/g16/l302.exe)
 NPDir=0 NMtPBC=     1 NCelOv=     1 NCel=       1 NClECP=     1 NCelD=      1
         NCelK=      1 NCelE2=     1 NClLst=     1 CellRange=     0.0.
 One-electron integrals computed using PRISM.
 One-electron integral symmetry used in STVInt
 NBasis=    57 RedAO= T EigKep=  1.84D-03  NBF=    27     4     6    20
 NBsUse=    57 1.00D-06 EigRej= -1.00D+00 NBFU=    27     4     6    20
 Precomputing XC quadrature grid using
 IXCGrd= 4 IRadAn=           5 IRanWt=          -1 IRanGd=           0 AccXCQ= 0.00D+00.
 Generated NRdTot=       0 NPtTot=           0 NUsed=           0 NTot=          32
 NSgBfM=    57    57    57    57    57 MxSgAt=    11 MxSgA2=    11.
 Leave Link  302 at Thu Mar  5 13:07:21 2020, MaxMem=  6710886400 cpu:               1.9 elap:               0.1
 (Enter /opt/ohpc/pub/libs/gaussian/g16-A.03/sandybridge/g16/l303.exe)
 DipDrv:  MaxL=1.
 Leave Link  303 at Thu Mar  5 13:07:21 2020, MaxMem=  6710886400 cpu:               0.4 elap:               0.0
 (Enter /opt/ohpc/pub/libs/gaussian/g16-A.03/sandybridge/g16/l401.exe)
 ExpMin= 1.61D-01 ExpMax= 3.05D+03 ExpMxC= 4.57D+02 IAcc=3 IRadAn=         5 AccDes= 0.00D+00
 Harris functional with IExCor=33909 and IRadAn=       5 diagonalized for initial guess.
 HarFok:  IExCor=33909 AccDes= 0.00D+00 IRadAn=         5 IDoV= 1 UseB2=F ITyADJ=14
 ICtDFT=  3500011 ScaDFX=  1.000000  1.000000  1.000000  1.000000
 FoFCou: FMM=F IPFlag=           0 FMFlag=      100000 FMFlg1=           0
         NFxFlg=           0 DoJE=T BraDBF=F KetDBF=T FulRan=T
         wScrn=  0.000000 ICntrl=       500 IOpCl=  0 I1Cent=   200000004 NGrid=           0
         NMat0=    1 NMatS0=      1 NMatT0=    0 NMatD0=    1 NMtDS0=    0 NMtDT0=    0
 Petite list used in FoFCou.
 Harris En= -192.986685992891    
 JPrj=0 DoOrth=F DoCkMO=F.
 Initial guess orbital symmetries:
 Alpha Orbitals:
       Occupied  (A1) (B2) (A1) (B2) (A1) (A1) (A1) (B2) (A1) (B2)
                 (A1) (B2) (A1) (B2) (A1) (B1) (A2) (B1)
       Virtual   (A2) (B2) (B1) (A1) (A1) (B2) (A1) (B2) (A1) (B2)
                 (A1) (B2) (A1) (B2) (B1) (A1) (A2) (B1) (B2) (A1)
                 (A1) (A2) (B1) (B2) (B2) (A1) (B2) (A1) (A1) (B2)
                 (A1) (A1) (A1) (B2) (A1) (B2) (A1) (A1) (B2)
 Beta  Orbitals:
       Occupied  (A1) (B2) (A1) (B2) (A1) (A1) (A1) (B2) (A1) (B2)
                 (A1) (B2) (A1) (B2) (A1) (B1) (A2) (B1)
       Virtual   (A2) (B2) (B1) (A1) (A1) (B2) (A1) (B2) (A1) (B2)
                 (A1) (B2) (A1) (B2) (B1) (A1) (A2) (B1) (B2) (A1)
                 (A1) (A2) (B1) (B2) (B2) (A1) (B2) (A1) (A1) (B2)
                 (A1) (A1) (A1) (B2) (A1) (B2) (A1) (A1) (B2)
 The electronic state of the initial guess is 1-A1.
 Initial guess <Sx>= 0.0000 <Sy>= 0.0000 <Sz>= 0.0000 <S**2>= 0.0000 S= 0.0000
 Leave Link  401 at Thu Mar  5 13:07:21 2020, MaxMem=  6710886400 cpu:               3.1 elap:               0.2
 (Enter /opt/ohpc/pub/libs/gaussian/g16-A.03/sandybridge/g16/l502.exe)
 Keep R1 and R2 ints in memory in symmetry-blocked form, NReq=16815681.
 FoFCou: FMM=F IPFlag=           0 FMFlag=           0 FMFlg1=           0
         NFxFlg=           0 DoJE=F BraDBF=F KetDBF=F FulRan=T
         wScrn=  0.000000 ICntrl=       600 IOpCl=  0 I1Cent=           0 NGrid=           0
         NMat0=    1 NMatS0=   1653 NMatT0=    0 NMatD0=    1 NMtDS0=    0 NMtDT0=    0
 Petite list used in FoFCou.
 UHF open shell SCF:
 Using DIIS extrapolation, IDIIS=    10.
 NGot=  6710886400 LenX=  6710059561 LenY=  6710055871
 Requested convergence on RMS density matrix=1.00D-06 within  32 cycles.
 Requested convergence on MAX density matrix=1.00D-04.
 Requested convergence on             energy=1.00D-04.
 Virtual orbitals will be shifted by   0.500 hartree.
 No special actions if energy rises.
 Dynamic level shift is on during FON iterations.

 Cycle   1  Pass 1  IDiag  1:
 E= -199.074365988177    
 DIIS: error= 4.38D-02 at cycle   1 NSaved=   1.
 NSaved= 1 IEnMin= 1 EnMin= -199.074365988177     IErMin= 1 ErrMin= 4.38D-02
 ErrMax= 4.38D-02  0.00D+00 EMaxC= 1.00D+00 BMatC= 3.46D-01 BMatP= 3.46D-01
 IDIUse=1 WtCom= 1.00D+00 WtEn= 0.00D+00
 Coeff-Com:  0.100D+01
 Coeff:      0.100D+01
 Gap=     0.349 Goal=   None    Shift=    0.500
 T= 1723. Gap= 0.805 NK=0 IS=   19 IE=   57 IFin=   18
          NO(<0.9)=   0  NV(>0.1)=   0     18.00e < EF      0.00e >EF  Err=0.0D+00
 Gap=     0.349 Goal=   None    Shift=    0.500
 T= 1723. Gap= 0.805 NK=0 IS=   19 IE=   57 IFin=   18
          NO(<0.9)=   0  NV(>0.1)=   0     18.00e < EF      0.00e >EF  Err=0.0D+00
 GapD=    0.349 DampG=1.000 DampE=0.500 DampFc=0.5000 IDamp=-1.
 Damping current iteration by 5.00D-01
 RMSDP=7.04D-03 MaxDP=6.08D-02              OVMax= 8.05D-02

 Cycle   2  Pass 1  IDiag  1:
 E= -199.137018566694     Delta-E=       -0.062652578517 Rises=F Damp=T
 DIIS: error= 2.01D-02 at cycle   2 NSaved=   2.
 NSaved= 2 IEnMin= 2 EnMin= -199.137018566694     IErMin= 2 ErrMin= 2.01D-02
 ErrMax= 2.01D-02  0.00D+00 EMaxC= 1.00D+00 BMatC= 7.04D-02 BMatP= 3.46D-01
 IDIUse=1 WtCom= 1.00D+00 WtEn= 0.00D+00
 Coeff-Com: -0.741D+00 0.174D+01
 Coeff:     -0.741D+00 0.174D+01
 Gap=     0.402 Goal=   None    Shift=    0.500
 T= 1604. Gap= 0.889 NK=0 IS=   19 IE=   57 IFin=   18
          NO(<0.9)=   0  NV(>0.1)=   0     18.00e < EF      0.00e >EF  Err=0.0D+00
 Gap=     0.402 Goal=   None    Shift=    0.500
 T= 1604. Gap= 0.889 NK=0 IS=   19 IE=   57 IFin=   18
          NO(<0.9)=   0  NV(>0.1)=   0     18.00e < EF      0.00e >EF  Err=0.0D+00
 GapD=    0.402 DampG=2.000 DampE=0.500 DampFc=1.0000 IDamp=-1.
 RMSDP=3.90D-03 MaxDP=2.48D-02 DE=-6.27D-02 OVMax= 9.06D-03

 Cycle   3  Pass 1  IDiag  1:
 E= -199.178825101251     Delta-E=       -0.041806534557 Rises=F Damp=F
 DIIS: error= 2.60D-03 at cycle   3 NSaved=   3.
 NSaved= 3 IEnMin= 3 EnMin= -199.178825101251     IErMin= 3 ErrMin= 2.60D-03
 ErrMax= 2.60D-03  0.00D+00 EMaxC= 1.00D+00 BMatC= 1.57D-03 BMatP= 7.04D-02
 IDIUse=1 WtCom= 1.00D+00 WtEn= 0.00D+00
 Coeff-Com:  0.132D+00-0.199D+00 0.107D+01
 Coeff:      0.132D+00-0.199D+00 0.107D+01
 Gap=     0.388 Goal=   None    Shift=    0.500
 T= 1315. Gap= 0.888 NK=0 IS=   19 IE=   57 IFin=   18
          NO(<0.9)=   0  NV(>0.1)=   0     18.00e < EF      0.00e >EF  Err=0.0D+00
 Gap=     0.388 Goal=   None    Shift=    0.500
 T= 1315. Gap= 0.888 NK=0 IS=   19 IE=   57 IFin=   18
          NO(<0.9)=   0  NV(>0.1)=   0     18.00e < EF      0.00e >EF  Err=0.0D+00
 GapD=    0.388 DampG=1.000 DampE=1.000 DampFc=1.0000 IDamp=-1.
 RMSDP=5.74D-04 MaxDP=4.34D-03 DE=-4.18D-02 OVMax= 8.06D-03

 Cycle   4  Pass 1  IDiag  1:
 E= -199.179438441802     Delta-E=       -0.000613340551 Rises=F Damp=F
 DIIS: error= 1.58D-03 at cycle   4 NSaved=   4.
 NSaved= 4 IEnMin= 4 EnMin= -199.179438441802     IErMin= 4 ErrMin= 1.58D-03
 ErrMax= 1.58D-03  0.00D+00 EMaxC= 1.00D+00 BMatC= 3.94D-04 BMatP= 1.57D-03
 IDIUse=1 WtCom= 1.00D+00 WtEn= 0.00D+00
 Coeff-Com:  0.113D+00-0.233D+00-0.238D+00 0.136D+01
 Coeff:      0.113D+00-0.233D+00-0.238D+00 0.136D+01
 Gap=     0.389 Goal=   None    Shift=    0.500
 T=  710. Gap= 0.889 NK=0 IS=   19 IE=   57 IFin=   18
          NO(<0.9)=   0  NV(>0.1)=   0     18.00e < EF      0.00e >EF  Err=0.0D+00
 Gap=     0.389 Goal=   None    Shift=    0.500
 T=  710. Gap= 0.889 NK=0 IS=   19 IE=   57 IFin=   18
          NO(<0.9)=   0  NV(>0.1)=   0     18.00e < EF      0.00e >EF  Err=0.0D+00
 GapD=    0.389 DampG=1.000 DampE=1.000 DampFc=1.0000 IDamp=-1.
 RMSDP=3.78D-04 MaxDP=2.85D-03 DE=-6.13D-04 OVMax= 4.24D-03

 Cycle   5  Pass 1  IDiag  1:
 E= -199.179644075273     Delta-E=       -0.000205633471 Rises=F Damp=F
 DIIS: error= 1.23D-03 at cycle   5 NSaved=   5.
 NSaved= 5 IEnMin= 5 EnMin= -199.179644075273     IErMin= 5 ErrMin= 1.23D-03
 ErrMax= 1.23D-03  0.00D+00 EMaxC= 1.00D+00 BMatC= 7.32D-05 BMatP= 3.94D-04
 IDIUse=1 WtCom= 1.00D+00 WtEn= 0.00D+00
 Coeff-Com: -0.495D-01 0.866D-01-0.162D+00-0.659D+00 0.178D+01
 Coeff:     -0.495D-01 0.866D-01-0.162D+00-0.659D+00 0.178D+01
 Gap=     0.389 Goal=   None    Shift=    0.500
 Gap=     0.389 Goal=   None    Shift=    0.500
 GapD=    0.389 DampG=1.000 DampE=1.000 DampFc=1.0000 IDamp=-1.
 RMSDP=2.21D-04 MaxDP=1.67D-03 DE=-2.06D-04 OVMax= 3.61D-03

 Cycle   6  Pass 1  IDiag  1:
 E= -199.179707637755     Delta-E=       -0.000063562482 Rises=F Damp=F
 DIIS: error= 7.96D-04 at cycle   6 NSaved=   6.
 NSaved= 6 IEnMin= 6 EnMin= -199.179707637755     IErMin= 6 ErrMin= 7.96D-04
 ErrMax= 7.96D-04  0.00D+00 EMaxC= 1.00D+00 BMatC= 1.86D-05 BMatP= 7.32D-05
 IDIUse=1 WtCom= 1.00D+00 WtEn= 0.00D+00
 Coeff-Com:  0.651D-02-0.137D-01 0.823D-01 0.266D+00-0.200D+01 0.266D+01
 Coeff:      0.651D-02-0.137D-01 0.823D-01 0.266D+00-0.200D+01 0.266D+01
 Gap=     0.389 Goal=   None    Shift=    0.500
 Gap=     0.389 Goal=   None    Shift=    0.500
 RMSDP=1.18D-04 MaxDP=8.46D-04 DE=-6.36D-05 OVMax= 2.35D-03

 Cycle   7  Pass 1  IDiag  1:
 E= -199.179727260894     Delta-E=       -0.000019623139 Rises=F Damp=F
 DIIS: error= 5.00D-04 at cycle   7 NSaved=   7.
 NSaved= 7 IEnMin= 7 EnMin= -199.179727260894     IErMin= 7 ErrMin= 5.00D-04
 ErrMax= 5.00D-04  0.00D+00 EMaxC= 1.00D+00 BMatC= 5.52D-06 BMatP= 1.86D-05
 IDIUse=1 WtCom= 1.00D+00 WtEn= 0.00D+00
 Coeff-Com: -0.503D-02 0.836D-02-0.872D-01 0.921D-01 0.766D+00-0.278D+01
 Coeff-Com:  0.301D+01
 Coeff:     -0.503D-02 0.836D-02-0.872D-01 0.921D-01 0.766D+00-0.278D+01
 Coeff:      0.301D+01
 Gap=     0.389 Goal=   None    Shift=    0.500
 Gap=     0.389 Goal=   None    Shift=    0.500
 RMSDP=5.35D-05 MaxDP=3.91D-04 DE=-1.96D-05 OVMax= 1.40D-03

 Cycle   8  Pass 1  IDiag  1:
 E= -199.179732855690     Delta-E=       -0.000005594796 Rises=F Damp=F
 DIIS: error= 2.94D-04 at cycle   8 NSaved=   8.
 NSaved= 8 IEnMin= 8 EnMin= -199.179732855690     IErMin= 8 ErrMin= 2.94D-04
 ErrMax= 2.94D-04  0.00D+00 EMaxC= 1.00D+00 BMatC= 1.86D-06 BMatP= 5.52D-06
 IDIUse=1 WtCom= 1.00D+00 WtEn= 0.00D+00
 Coeff-Com: -0.199D-02 0.332D-02-0.975D-02 0.221D-01-0.558D-01 0.541D+00
 Coeff-Com: -0.233D+01 0.283D+01
 Coeff:     -0.199D-02 0.332D-02-0.975D-02 0.221D-01-0.558D-01 0.541D+00
 Coeff:     -0.233D+01 0.283D+01
 Gap=     0.389 Goal=   None    Shift=    0.500
 Gap=     0.389 Goal=   None    Shift=    0.500
 RMSDP=2.55D-05 MaxDP=2.05D-04 DE=-5.59D-06 OVMax= 7.77D-04

 Cycle   9  Pass 1  IDiag  1:
 E= -199.179734434431     Delta-E=       -0.000001578741 Rises=F Damp=F
 DIIS: error= 1.75D-04 at cycle   9 NSaved=   9.
 NSaved= 9 IEnMin= 9 EnMin= -199.179734434431     IErMin= 9 ErrMin= 1.75D-04
 ErrMax= 1.75D-04  0.00D+00 EMaxC= 1.00D+00 BMatC= 7.00D-07 BMatP= 1.86D-06
 IDIUse=1 WtCom= 1.00D+00 WtEn= 0.00D+00
 Coeff-Com: -0.681D-03 0.101D-02 0.573D-02 0.144D-01-0.205D+00 0.923D+00
 Coeff-Com: -0.222D+01 0.153D+01 0.956D+00
 Coeff:     -0.681D-03 0.101D-02 0.573D-02 0.144D-01-0.205D+00 0.923D+00
 Coeff:     -0.222D+01 0.153D+01 0.956D+00
 Gap=     0.389 Goal=   None    Shift=    0.500
 Gap=     0.389 Goal=   None    Shift=    0.500
 RMSDP=1.22D-05 MaxDP=1.07D-04 DE=-1.58D-06 OVMax= 4.28D-04

 Cycle  10  Pass 1  IDiag  1:
 E= -199.179734904438     Delta-E=       -0.000000470007 Rises=F Damp=F
 DIIS: error= 9.77D-05 at cycle  10 NSaved=  10.
 NSaved=10 IEnMin=10 EnMin= -199.179734904438     IErMin=10 ErrMin= 9.77D-05
 ErrMax= 9.77D-05  0.00D+00 EMaxC= 1.00D+00 BMatC= 2.26D-07 BMatP= 7.00D-07
 IDIUse=1 WtCom= 1.00D+00 WtEn= 0.00D+00
 Coeff-Com:  0.559D-03-0.115D-02 0.168D-02 0.995D-02-0.445D-01-0.341D-02
 Coeff-Com:  0.372D+00-0.447D+00-0.154D+01 0.265D+01
 Coeff:      0.559D-03-0.115D-02 0.168D-02 0.995D-02-0.445D-01-0.341D-02
 Coeff:      0.372D+00-0.447D+00-0.154D+01 0.265D+01
 Gap=     0.389 Goal=   None    Shift=    0.500
 Gap=     0.389 Goal=   None    Shift=    0.500
 RMSDP=6.13D-06 MaxDP=5.50D-05 DE=-4.70D-07 OVMax= 2.32D-04

 Cycle  11  Pass 1  IDiag  1:
 E= -199.179735040564     Delta-E=       -0.000000136126 Rises=F Damp=F
 DIIS: error= 5.49D-05 at cycle  11 NSaved=  11.
 NSaved=11 IEnMin=11 EnMin= -199.179735040564     IErMin=11 ErrMin= 5.49D-05
 ErrMax= 5.49D-05  0.00D+00 EMaxC= 1.00D+00 BMatC= 7.53D-08 BMatP= 2.26D-07
 IDIUse=1 WtCom= 1.00D+00 WtEn= 0.00D+00
 Coeff-Com: -0.294D-03 0.535D-03-0.261D-02-0.550D-04 0.267D-01-0.384D-01
 Coeff-Com: -0.390D-01 0.176D+00 0.163D-01-0.174D+01 0.260D+01
 Coeff:     -0.294D-03 0.535D-03-0.261D-02-0.550D-04 0.267D-01-0.384D-01
 Coeff:     -0.390D-01 0.176D+00 0.163D-01-0.174D+01 0.260D+01
 Gap=     0.389 Goal=   None    Shift=    0.500
 Gap=     0.389 Goal=   None    Shift=    0.500
 RMSDP=3.11D-06 MaxDP=3.06D-05 DE=-1.36D-07 OVMax= 1.27D-04

 Cycle  12  Pass 1  IDiag  1:
 E= -199.179735081378     Delta-E=       -0.000000040814 Rises=F Damp=F
 DIIS: error= 3.04D-05 at cycle  12 NSaved=  12.
 NSaved=12 IEnMin=12 EnMin= -199.179735081378     IErMin=12 ErrMin= 3.04D-05
 ErrMax= 3.04D-05  0.00D+00 EMaxC= 1.00D+00 BMatC= 2.41D-08 BMatP= 7.53D-08
 IDIUse=1 WtCom= 1.00D+00 WtEn= 0.00D+00
 Coeff-Com:  0.646D-04-0.134D-03 0.599D-03 0.189D-02-0.164D-01 0.389D-01
 Coeff-Com: -0.493D-01 0.474D-01-0.117D+00 0.755D+00-0.275D+01 0.308D+01
 Coeff:      0.646D-04-0.134D-03 0.599D-03 0.189D-02-0.164D-01 0.389D-01
 Coeff:     -0.493D-01 0.474D-01-0.117D+00 0.755D+00-0.275D+01 0.308D+01
 Gap=     0.389 Goal=   None    Shift=    0.500
 Gap=     0.389 Goal=   None    Shift=    0.500
 RMSDP=1.61D-06 MaxDP=1.65D-05 DE=-4.08D-08 OVMax= 6.85D-05

 Cycle  13  Pass 1  IDiag  1:
 E= -199.179735093404     Delta-E=       -0.000000012026 Rises=F Damp=F
 DIIS: error= 1.67D-05 at cycle  13 NSaved=  13.
 NSaved=13 IEnMin=13 EnMin= -199.179735093404     IErMin=13 ErrMin= 1.67D-05
 ErrMax= 1.67D-05  0.00D+00 EMaxC= 1.00D+00 BMatC= 7.65D-09 BMatP= 2.41D-08
 IDIUse=1 WtCom= 1.00D+00 WtEn= 0.00D+00
 Coeff-Com:  0.968D-05-0.256D-04 0.418D-04 0.393D-03-0.187D-02 0.467D-02
 Coeff-Com: -0.157D-02 0.337D-02-0.325D-01-0.702D-01 0.837D+00-0.291D+01
 Coeff-Com:  0.317D+01
 Coeff:      0.968D-05-0.256D-04 0.418D-04 0.393D-03-0.187D-02 0.467D-02
 Coeff:     -0.157D-02 0.337D-02-0.325D-01-0.702D-01 0.837D+00-0.291D+01
 Coeff:      0.317D+01
 Gap=     0.389 Goal=   None    Shift=    0.500
 Gap=     0.389 Goal=   None    Shift=    0.500
 RMSDP=8.45D-07 MaxDP=8.88D-06 DE=-1.20D-08 OVMax= 3.69D-05

 SCF Done:  E(ULC-wHPBE) =  -199.179735093     A.U. after   13 cycles
            NFock= 13  Conv=0.84D-06     -V/T= 2.0309
 <Sx>= 0.0000 <Sy>= 0.0000 <Sz>= 0.0000 <S**2>= 0.0000 S= 0.0000
 <L.S>= 0.000000000000E+00
 KE= 1.932147916749D+02 PE=-7.621949155358D+02 EE= 2.137876462815D+02
 Annihilation of the first spin contaminant:
 S**2 before annihilation     0.0000,   after     0.0000
 Leave Link  502 at Thu Mar  5 13:07:22 2020, MaxMem=  6710886400 cpu:              21.0 elap:               1.3
 (Enter /opt/ohpc/pub/libs/gaussian/g16-A.03/sandybridge/g16/l508.exe)
 QCSCF skips out because SCF is already converged.
 Leave Link  508 at Thu Mar  5 13:07:22 2020, MaxMem=  6710886400 cpu:               0.3 elap:               0.0
 (Enter /opt/ohpc/pub/libs/gaussian/g16-A.03/sandybridge/g16/l601.exe)
 Copying SCF densities to generalized density rwf, IOpCl= 1 IROHF=0.

 **********************************************************************

            Population analysis using the SCF density.

 **********************************************************************

 Orbital symmetries:
 Alpha Orbitals:
       Occupied  (B2) (A1) (B2) (A1) (A1) (A1) (A1) (B2) (A1) (B2)
                 (A1) (B2) (A1) (A1) (B2) (B1) (A2) (B1)
       Virtual   (A2) (B2) (A1) (B1) (A1) (B2) (A1) (B2) (A1) (A1)
                 (B2) (A1) (B2) (B2) (B1) (A2) (A1) (B1) (A1) (B2)
                 (A1) (A2) (B1) (B2) (B2) (A1) (B2) (A1) (A1) (B2)
                 (A1) (A1) (A1) (B2) (A1) (B2) (A1) (A1) (B2)
 Beta  Orbitals:
       Occupied  (B2) (A1) (B2) (A1) (A1) (A1) (A1) (B2) (A1) (B2)
                 (A1) (B2) (A1) (A1) (B2) (B1) (A2) (B1)
       Virtual   (A2) (B2) (A1) (B1) (A1) (B2) (A1) (B2) (A1) (A1)
                 (B2) (A1) (B2) (B2) (B1) (A2) (A1) (B1) (A1) (B2)
                 (A1) (A2) (B1) (B2) (B2) (A1) (B2) (A1) (A1) (B2)
                 (A1) (A1) (A1) (B2) (A1) (B2) (A1) (A1) (B2)
 The electronic state is 1-A1.
 Alpha  occ. eigenvalues --  -10.26399 -10.26397 -10.22959 -10.22959 -10.19197
 Alpha  occ. eigenvalues --   -1.12790  -0.99795  -0.96868  -0.82055  -0.80750
 Alpha  occ. eigenvalues --   -0.76403  -0.65591  -0.64743  -0.61721  -0.60400
 Alpha  occ. eigenvalues --   -0.59324  -0.45102  -0.40641
 Alpha virt. eigenvalues --   -0.01757  -0.00417   0.04139   0.05972   0.08638
 Alpha virt. eigenvalues --    0.13351   0.15075   0.16931   0.17777   0.30080
 Alpha virt. eigenvalues --    0.31338   0.41392   0.41879   0.50971   0.52628
 Alpha virt. eigenvalues --    0.59137   0.59806   0.60059   0.61726   0.63149
 Alpha virt. eigenvalues --    0.64414   0.65682   0.68244   0.75274   0.81343
 Alpha virt. eigenvalues --    0.84208   0.85685   0.85828   0.87731   0.94597
 Alpha virt. eigenvalues --    0.94774   0.97907   1.02430   1.08919   1.16931
 Alpha virt. eigenvalues --    1.18565   1.25540   1.46592   1.47655
  Beta  occ. eigenvalues --  -10.26399 -10.26397 -10.22959 -10.22959 -10.19197
  Beta  occ. eigenvalues --   -1.12790  -0.99795  -0.96868  -0.82055  -0.80750
  Beta  occ. eigenvalues --   -0.76403  -0.65591  -0.64743  -0.61721  -0.60400
  Beta  occ. eigenvalues --   -0.59324  -0.45102  -0.40641
  Beta virt. eigenvalues --   -0.01757  -0.00417   0.04139   0.05972   0.08638
  Beta virt. eigenvalues --    0.13351   0.15075   0.16931   0.17777   0.30080
  Beta virt. eigenvalues --    0.31338   0.41392   0.41879   0.50971   0.52628
  Beta virt. eigenvalues --    0.59137   0.59806   0.60059   0.61726   0.63149
  Beta virt. eigenvalues --    0.64414   0.65682   0.68244   0.75274   0.81343
  Beta virt. eigenvalues --    0.84208   0.85685   0.85828   0.87731   0.94597
  Beta virt. eigenvalues --    0.94774   0.97907   1.02430   1.08919   1.16931
  Beta virt. eigenvalues --    1.18565   1.25540   1.46592   1.47655
          Condensed to atoms (all electrons):
               1          2          3          4          5          6
     1  C    5.458230   0.471230  -0.056041  -0.126214   0.252643   0.167462
     2  C    0.471230   4.918319   0.545612  -0.018240  -0.126214  -0.019834
     3  C   -0.056041   0.545612   4.879605   0.545612  -0.056041   0.005646
     4  C   -0.126214  -0.018240   0.545612   4.918319   0.471230  -0.019834
     5  C    0.252643  -0.126214  -0.056041   0.471230   5.458230   0.167462
     6  H    0.167462  -0.019834   0.005646  -0.019834   0.167462   0.381801
     7  H    0.348300   0.000976  -0.000499   0.003803  -0.021499  -0.013725
     8  H   -0.035033   0.366286  -0.015100   0.004047   0.001378   0.000677
     9  H    0.005673  -0.035831   0.375495  -0.035831   0.005673  -0.000067
    10  H    0.001378   0.004047  -0.015100   0.366286  -0.035033   0.000677
    11  H   -0.021499   0.003803  -0.000499   0.000976   0.348300  -0.013725
               7          8          9         10         11
     1  C    0.348300  -0.035033   0.005673   0.001378  -0.021499
     2  C    0.000976   0.366286  -0.035831   0.004047   0.003803
     3  C   -0.000499  -0.015100   0.375495  -0.015100  -0.000499
     4  C    0.003803   0.004047  -0.035831   0.366286   0.000976
     5  C   -0.021499   0.001378   0.005673  -0.035033   0.348300
     6  H   -0.013725   0.000677  -0.000067   0.000677  -0.013725
     7  H    0.444332   0.000165  -0.000091  -0.000029   0.000745
     8  H    0.000165   0.489985  -0.001514  -0.000136  -0.000029
     9  H   -0.000091  -0.001514   0.523894  -0.001514  -0.000091
    10  H   -0.000029  -0.000136  -0.001514   0.489985   0.000165
    11  H    0.000745  -0.000029  -0.000091   0.000165   0.444332
          Atomic-Atomic Spin Densities.
               1          2          3          4          5          6
     1  C    0.000000  -0.000000  -0.000000   0.000000   0.000000  -0.000000
     2  C   -0.000000  -0.000000   0.000000   0.000000   0.000000   0.000000
     3  C   -0.000000   0.000000  -0.000000   0.000000  -0.000000  -0.000000
     4  C    0.000000   0.000000   0.000000  -0.000000  -0.000000   0.000000
     5  C    0.000000   0.000000  -0.000000  -0.000000   0.000000  -0.000000
     6  H   -0.000000   0.000000  -0.000000   0.000000  -0.000000  -0.000000
     7  H   -0.000000   0.000000  -0.000000  -0.000000   0.000000  -0.000000
     8  H   -0.000000   0.000000   0.000000  -0.000000   0.000000  -0.000000
     9  H   -0.000000   0.000000  -0.000000   0.000000  -0.000000   0.000000
    10  H    0.000000  -0.000000   0.000000   0.000000  -0.000000  -0.000000
    11  H    0.000000  -0.000000  -0.000000   0.000000  -0.000000  -0.000000
               7          8          9         10         11
     1  C   -0.000000  -0.000000  -0.000000   0.000000   0.000000
     2  C    0.000000   0.000000   0.000000  -0.000000  -0.000000
     3  C   -0.000000   0.000000  -0.000000   0.000000  -0.000000
     4  C   -0.000000  -0.000000   0.000000   0.000000   0.000000
     5  C    0.000000   0.000000  -0.000000  -0.000000  -0.000000
     6  H   -0.000000  -0.000000   0.000000  -0.000000  -0.000000
     7  H   -0.000000   0.000000  -0.000000   0.000000   0.000000
     8  H    0.000000  -0.000000  -0.000000  -0.000000   0.000000
     9  H   -0.000000  -0.000000   0.000000  -0.000000  -0.000000
    10  H    0.000000  -0.000000  -0.000000  -0.000000   0.000000
    11  H    0.000000   0.000000  -0.000000   0.000000  -0.000000
 Mulliken charges and spin densities:
               1          2
     1  C   -0.466127   0.000000
     2  C   -0.110153   0.000000
     3  C   -0.208690  -0.000000
     4  C   -0.110153   0.000000
     5  C   -0.466127   0.000000
     6  H    0.343462  -0.000000
     7  H    0.237521  -0.000000
     8  H    0.189272   0.000000
     9  H    0.164204   0.000000
    10  H    0.189272   0.000000
    11  H    0.237521  -0.000000
 Sum of Mulliken charges =   0.00000  -0.00000
 Mulliken charges and spin densities with hydrogens summed into heavy atoms:
               1          2
     1  C    0.114856  -0.000000
     2  C    0.079118   0.000000
     3  C   -0.044486  -0.000000
     4  C    0.079118   0.000000
     5  C   -0.228606   0.000000
 Electronic spatial extent (au):  <R**2>=            334.2882
 Charge=              0.0000 electrons
 Dipole moment (field-independent basis, Debye):
    X=             -0.0000    Y=             -0.0000    Z=             -1.9673  Tot=              1.9673
 Quadrupole moment (field-independent basis, Debye-Ang):
   XX=            -34.6485   YY=            -25.0177   ZZ=            -23.0335
   XY=              0.0000   XZ=              0.0000   YZ=              0.0000
 Traceless Quadrupole moment (field-independent basis, Debye-Ang):
   XX=             -7.0819   YY=              2.5488   ZZ=              4.5331
   XY=              0.0000   XZ=              0.0000   YZ=              0.0000
 Octapole moment (field-independent basis, Debye-Ang**2):
  XXX=              0.0000  YYY=              0.0000  ZZZ=             -8.8667  XYY=              0.0000
  XXY=             -0.0000  XXZ=              0.8277  XZZ=              0.0000  YZZ=             -0.0000
  YYZ=             -0.8852  XYZ=             -0.0000
 Hexadecapole moment (field-independent basis, Debye-Ang**3):
 XXXX=            -36.4151 YYYY=           -177.4861 ZZZZ=           -164.8635 XXXY=             -0.0000
 XXXZ=             -0.0000 YYYX=             -0.0000 YYYZ=             -0.0000 ZZZX=             -0.0000
 ZZZY=             -0.0000 XXYY=            -45.8064 XXZZ=            -44.8519 YYZZ=            -56.3680
 XXYZ=              0.0000 YYXZ=             -0.0000 ZZXY=             -0.0000
 N-N= 1.560127424860D+02 E-N=-7.621948925451D+02  KE= 1.932147916749D+02
 Symmetry A1   KE= 1.110785724421D+02
 Symmetry A2   KE= 2.468654647591D+00
 Symmetry B1   KE= 4.345023999191D+00
 Symmetry B2   KE= 7.532254058597D+01
 Symmetry A1   SP=-1.284203384987D-14
 Symmetry A2   SP=-6.803984296001D-17
 Symmetry B1   SP=-3.055376377148D-15
 Symmetry B2   SP= 8.053885157932D-15
                          Isotropic Fermi Contact Couplings
        Atom                 a.u.       MegaHertz       Gauss      10(-4) cm-1
     1  C(13)              0.00000       0.00000       0.00000       0.00000
     2  C(13)             -0.00000      -0.00000      -0.00000      -0.00000
     3  C(13)             -0.00000      -0.00000      -0.00000      -0.00000
     4  C(13)             -0.00000      -0.00000      -0.00000      -0.00000
     5  C(13)              0.00000       0.00000       0.00000       0.00000
     6  H(1)               0.00000       0.00000       0.00000       0.00000
     7  H(1)               0.00000       0.00000       0.00000       0.00000
     8  H(1)               0.00000       0.00000       0.00000       0.00000
     9  H(1)              -0.00000      -0.00000      -0.00000      -0.00000
    10  H(1)               0.00000       0.00000       0.00000       0.00000
    11  H(1)               0.00000       0.00000       0.00000       0.00000
 --------------------------------------------------------
       Center         ----  Spin Dipole Couplings  ----
                      3XX-RR        3YY-RR        3ZZ-RR
 --------------------------------------------------------
     1   Atom        0.000000      0.000000      0.000000
     2   Atom        0.000000      0.000000      0.000000
     3   Atom        0.000000      0.000000      0.000000
     4   Atom        0.000000      0.000000      0.000000
     5   Atom        0.000000      0.000000      0.000000
     6   Atom        0.000000      0.000000      0.000000
     7   Atom        0.000000      0.000000      0.000000
     8   Atom        0.000000      0.000000      0.000000
     9   Atom        0.000000      0.000000      0.000000
    10   Atom        0.000000      0.000000      0.000000
    11   Atom        0.000000      0.000000      0.000000
 --------------------------------------------------------
                        XY            XZ            YZ
 --------------------------------------------------------
     1   Atom        0.000000      0.000000      0.000000
     2   Atom        0.000000      0.000000      0.000000
     3   Atom        0.000000      0.000000      0.000000
     4   Atom        0.000000      0.000000      0.000000
     5   Atom        0.000000      0.000000      0.000000
     6   Atom        0.000000      0.000000      0.000000
     7   Atom        0.000000      0.000000      0.000000
     8   Atom        0.000000      0.000000      0.000000
     9   Atom        0.000000      0.000000      0.000000
    10   Atom        0.000000      0.000000      0.000000
    11   Atom        0.000000      0.000000      0.000000
 --------------------------------------------------------


 ---------------------------------------------------------------------------------
              Anisotropic Spin Dipole Couplings in Principal Axis System
 ---------------------------------------------------------------------------------

       Atom             a.u.   MegaHertz   Gauss  10(-4) cm-1        Axes

              Baa     0.0000     0.000     0.000     0.000  1.0000  0.0000  0.0000
     1 C(13)  Bbb     0.0000     0.000     0.000     0.000 -0.0000  1.0000  0.0000
              Bcc     0.0000     0.000     0.000     0.000  0.0000  0.0000  1.0000
 
              Baa     0.0000     0.000     0.000     0.000  1.0000  0.0000  0.0000
     2 C(13)  Bbb     0.0000     0.000     0.000     0.000 -0.0000  1.0000  0.0000
              Bcc     0.0000     0.000     0.000     0.000  0.0000  0.0000  1.0000
 
              Baa     0.0000     0.000     0.000     0.000  1.0000  0.0000  0.0000
     3 C(13)  Bbb     0.0000     0.000     0.000     0.000 -0.0000  1.0000  0.0000
              Bcc     0.0000     0.000     0.000     0.000  0.0000  0.0000  1.0000
 
              Baa     0.0000     0.000     0.000     0.000  1.0000  0.0000  0.0000
     4 C(13)  Bbb     0.0000     0.000     0.000     0.000 -0.0000  1.0000  0.0000
              Bcc     0.0000     0.000     0.000     0.000  0.0000  0.0000  1.0000
 
              Baa     0.0000     0.000     0.000     0.000  1.0000  0.0000  0.0000
     5 C(13)  Bbb     0.0000     0.000     0.000     0.000 -0.0000  1.0000  0.0000
              Bcc     0.0000     0.000     0.000     0.000  0.0000  0.0000  1.0000
 
              Baa     0.0000     0.000     0.000     0.000  1.0000  0.0000  0.0000
     6 H(1)   Bbb     0.0000     0.000     0.000     0.000 -0.0000  1.0000  0.0000
              Bcc     0.0000     0.000     0.000     0.000  0.0000  0.0000  1.0000
 
              Baa     0.0000     0.000     0.000     0.000  1.0000  0.0000  0.0000
     7 H(1)   Bbb     0.0000     0.000     0.000     0.000 -0.0000  1.0000  0.0000
              Bcc     0.0000     0.000     0.000     0.000  0.0000  0.0000  1.0000
 
              Baa     0.0000     0.000     0.000     0.000  1.0000  0.0000  0.0000
     8 H(1)   Bbb     0.0000     0.000     0.000     0.000 -0.0000  1.0000  0.0000
              Bcc     0.0000     0.000     0.000     0.000  0.0000  0.0000  1.0000
 
              Baa     0.0000     0.000     0.000     0.000  1.0000  0.0000  0.0000
     9 H(1)   Bbb     0.0000     0.000     0.000     0.000 -0.0000  1.0000  0.0000
              Bcc     0.0000     0.000     0.000     0.000  0.0000  0.0000  1.0000
 
              Baa     0.0000     0.000     0.000     0.000  1.0000  0.0000  0.0000
    10 H(1)   Bbb     0.0000     0.000     0.000     0.000 -0.0000  1.0000  0.0000
              Bcc     0.0000     0.000     0.000     0.000  0.0000  0.0000  1.0000
 
              Baa     0.0000     0.000     0.000     0.000  1.0000  0.0000  0.0000
    11 H(1)   Bbb     0.0000     0.000     0.000     0.000 -0.0000  1.0000  0.0000
              Bcc     0.0000     0.000     0.000     0.000  0.0000  0.0000  1.0000
 

 ---------------------------------------------------------------------------------

 No NMR shielding tensors so no spin-rotation constants.
 Leave Link  601 at Thu Mar  5 13:07:22 2020, MaxMem=  6710886400 cpu:               2.1 elap:               0.2
 (Enter /opt/ohpc/pub/libs/gaussian/g16-A.03/sandybridge/g16/l9999.exe)

 Test job not archived.
 1\1\GINC-CNODE212\SP\ULC-wHPBE\6-31G\C5H6\SMGO234\05-Mar-2020\0\\#P uL
 C-wHPBE/6-31G iop(3/130=0113100000, 3/131=0113100000, 3/119=0886900000
 , 3/120=0886900000) scf=(conver=6,fermi,ndamp=35,noincfock,novaracc,vs
 hift=500,xqc)\\H6 C5\\0,1\C,0,0.,0.878804,-0.931542\C,0,0.,1.128157,0.
 423457\C,0,0.,0.,1.240879\C,0,0.,-1.128157,0.423457\C,0,0.,-0.878804,-
 0.931542\H,0,0.,0.,-1.732269\H,0,0.,1.6083,-1.734053\H,0,0.,2.156626,0
 .76567\H,0,0.,0.,2.320778\H,0,0.,-2.156626,0.76567\H,0,0.,-1.6083,-1.7
 34053\\Version=EM64L-G16RevA.03\State=1-A1\HF=-199.1797351\S2=0.\S2-1=
 0.\S2A=0.\RMSD=8.448e-07\Dipole=0.,0.,-0.7740033\Quadrupole=-5.2652484
 ,1.8949936,3.3702547,0.,0.,0.\PG=C02V [C2(H1C1H1),SGV(C4H4)]\\@


 MOM AND DAD WENT TO ALPHA CENTAURI AND ALL
 I GOT WAS THIS DUMB T-SHIRT.
 Job cpu time:       0 days  0 hours  0 minutes 45.0 seconds.
 Elapsed time:       0 days  0 hours  0 minutes  3.1 seconds.
 File lengths (MBytes):  RWF=    272 Int=      0 D2E=      0 Chk=     32 Scr=     32
 Normal termination of Gaussian 16 at Thu Mar  5 13:07:23 2020.
