 Entering Gaussian System, Link 0=g16
 Input=a1b_tune_c5.gjf
 Output=a1b_tune_c5.log
 Initial command:
 /opt/ohpc/pub/libs/gaussian/g16-A.03/sandybridge/g16/l1.exe "/scratch/smgo234/Ocelot/test/a1b/tuning_a1b_acycle3/Gau-90323.inp" -scrdir="/scratch/smgo234/Ocelot/test/a1b/tuning_a1b_acycle3/"
 Entering Link 1 = /opt/ohpc/pub/libs/gaussian/g16-A.03/sandybridge/g16/l1.exe PID=     90324.
  
 Copyright (c) 1988,1990,1992,1993,1995,1998,2003,2009,2016,
            Gaussian, Inc.  All Rights Reserved.
  
 This is part of the Gaussian(R) 16 program.  It is based on
 the Gaussian(R) 09 system (copyright 2009, Gaussian, Inc.),
 the Gaussian(R) 03 system (copyright 2003, Gaussian, Inc.),
 the Gaussian(R) 98 system (copyright 1998, Gaussian, Inc.),
 the Gaussian(R) 94 system (copyright 1995, Gaussian, Inc.),
 the Gaussian 92(TM) system (copyright 1992, Gaussian, Inc.),
 the Gaussian 90(TM) system (copyright 1990, Gaussian, Inc.),
 the Gaussian 88(TM) system (copyright 1988, Gaussian, Inc.),
 the Gaussian 86(TM) system (copyright 1986, Carnegie Mellon
 University), and the Gaussian 82(TM) system (copyright 1983,
 Carnegie Mellon University). Gaussian is a federally registered
 trademark of Gaussian, Inc.
  
 This software contains proprietary and confidential information,
 including trade secrets, belonging to Gaussian, Inc.
  
 This software is provided under written license and may be
 used, copied, transmitted, or stored only in accord with that
 written license.
  
 The following legend is applicable only to US Government
 contracts under FAR:
  
                    RESTRICTED RIGHTS LEGEND
  
 Use, reproduction and disclosure by the US Government is
 subject to restrictions as set forth in subparagraphs (a)
 and (c) of the Commercial Computer Software - Restricted
 Rights clause in FAR 52.227-19.
  
 Gaussian, Inc.
 340 Quinnipiac St., Bldg. 40, Wallingford CT 06492
  
  
 ---------------------------------------------------------------
 Warning -- This program may not be used in any manner that
 competes with the business of Gaussian, Inc. or will provide
 assistance to any competitor of Gaussian, Inc.  The licensee
 of this program is prohibited from giving any competitor of
 Gaussian, Inc. access to this program.  By using this program,
 the user acknowledges that Gaussian, Inc. is engaged in the
 business of creating and licensing software in the field of
 computational chemistry and represents and warrants to the
 licensee that it is not a competitor of Gaussian, Inc. and that
 it will not use this program in any manner prohibited above.
 ---------------------------------------------------------------
  

 Cite this work as:
 Gaussian 16, Revision A.03,
 M. J. Frisch, G. W. Trucks, H. B. Schlegel, G. E. Scuseria, 
 M. A. Robb, J. R. Cheeseman, G. Scalmani, V. Barone, 
 G. A. Petersson, H. Nakatsuji, X. Li, M. Caricato, A. V. Marenich, 
 J. Bloino, B. G. Janesko, R. Gomperts, B. Mennucci, H. P. Hratchian, 
 J. V. Ortiz, A. F. Izmaylov, J. L. Sonnenberg, D. Williams-Young, 
 F. Ding, F. Lipparini, F. Egidi, J. Goings, B. Peng, A. Petrone, 
 T. Henderson, D. Ranasinghe, V. G. Zakrzewski, J. Gao, N. Rega, 
 G. Zheng, W. Liang, M. Hada, M. Ehara, K. Toyota, R. Fukuda, 
 J. Hasegawa, M. Ishida, T. Nakajima, Y. Honda, O. Kitao, H. Nakai, 
 T. Vreven, K. Throssell, J. A. Montgomery, Jr., J. E. Peralta, 
 F. Ogliaro, M. J. Bearpark, J. J. Heyd, E. N. Brothers, K. N. Kudin, 
 V. N. Staroverov, T. A. Keith, R. Kobayashi, J. Normand, 
 K. Raghavachari, A. P. Rendell, J. C. Burant, S. S. Iyengar, 
 J. Tomasi, M. Cossi, J. M. Millam, M. Klene, C. Adamo, R. Cammi, 
 J. W. Ochterski, R. L. Martin, K. Morokuma, O. Farkas, 
 J. B. Foresman, and D. J. Fox, Gaussian, Inc., Wallingford CT, 2016.
 
 ******************************************
 Gaussian 16:  EM64L-G16RevA.03 25-Dec-2016
                 5-Mar-2020 
 ******************************************
 %mem=50GB
 %nproc=16
 Will use up to   16 processors via shared memory.
 ----------------------------------------------------------------------
 #P uLC-wHPBE/6-31G iop(3/130=0099800000, 3/131=0099800000, 3/119=09002
 00000, 3/120=0900200000) scf=(conver=6,fermi,ndamp=35,noincfock,novara
 cc,vshift=500,xqc)
 ----------------------------------------------------------------------
 1/38=1,172=1/1;
 2/12=2,17=6,18=5,40=1/2;
 3/5=1,6=6,11=2,25=1,30=1,74=-71,116=2,119=900200000,120=900200000,130=99800000,131=99800000/1,2,3;
 4//1;
 5/5=100002,6=6,8=3,10=500,13=1,18=-1,22=13,38=1,93=35/2,8;
 6/7=2,8=2,9=2,10=2,28=1/1;
 99/5=1,9=1/99;
 Leave Link    1 at Thu Mar  5 13:02:58 2020, MaxMem=  6710886400 cpu:              16.1 elap:               1.1
 (Enter /opt/ohpc/pub/libs/gaussian/g16-A.03/sandybridge/g16/l101.exe)
 -----
 H6 C5
 -----
 Symbolic Z-matrix:
 Charge =  1 Multiplicity = 2
 C                     0.        0.8788   -0.93154 
 C                     0.        1.12816   0.42346 
 C                     0.        0.        1.24088 
 C                     0.       -1.12816   0.42346 
 C                     0.       -0.8788   -0.93154 
 H                     0.        0.       -1.73227 
 H                     0.        1.6083   -1.73405 
 H                     0.        2.15663   0.76567 
 H                     0.        0.        2.32078 
 H                     0.       -2.15663   0.76567 
 H                     0.       -1.6083   -1.73405 
 
 ITRead=  0  0  0  0  0  0  0  0  0  0  0
 MicOpt= -1 -1 -1 -1 -1 -1 -1 -1 -1 -1 -1
 NAtoms=     11 NQM=       11 NQMF=       0 NMMI=      0 NMMIF=      0
                NMic=       0 NMicF=      0.
                    Isotopes and Nuclear Properties:
 (Nuclear quadrupole moments (NQMom) in fm**2, nuclear magnetic moments (NMagM)
  in nuclear magnetons)

  Atom         1           2           3           4           5           6           7           8           9          10
 IAtWgt=          12          12          12          12          12           1           1           1           1           1
 AtmWgt=  12.0000000  12.0000000  12.0000000  12.0000000  12.0000000   1.0078250   1.0078250   1.0078250   1.0078250   1.0078250
 NucSpn=           0           0           0           0           0           1           1           1           1           1
 AtZEff=  -0.0000000  -0.0000000  -0.0000000  -0.0000000  -0.0000000  -0.0000000  -0.0000000  -0.0000000  -0.0000000  -0.0000000
 NQMom=    0.0000000   0.0000000   0.0000000   0.0000000   0.0000000   0.0000000   0.0000000   0.0000000   0.0000000   0.0000000
 NMagM=    0.0000000   0.0000000   0.0000000   0.0000000   0.0000000   2.7928460   2.7928460   2.7928460   2.7928460   2.7928460
 AtZNuc=   6.0000000   6.0000000   6.0000000   6.0000000   6.0000000   1.0000000   1.0000000   1.0000000   1.0000000   1.0000000

  Atom        11
 IAtWgt=           1
 AtmWgt=   1.0078250
 NucSpn=           1
 AtZEff=  -0.0000000
 NQMom=    0.0000000
 NMagM=    2.7928460
 AtZNuc=   1.0000000
 Leave Link  101 at Thu Mar  5 13:02:58 2020, MaxMem=  6710886400 cpu:               2.6 elap:               0.2
 (Enter /opt/ohpc/pub/libs/gaussian/g16-A.03/sandybridge/g16/l202.exe)
                          Input orientation:                          
 ---------------------------------------------------------------------
 Center     Atomic      Atomic             Coordinates (Angstroms)
 Number     Number       Type             X           Y           Z
 ---------------------------------------------------------------------
      1          6           0        0.000000    0.878804   -0.931542
      2          6           0        0.000000    1.128157    0.423457
      3          6           0        0.000000    0.000000    1.240879
      4          6           0        0.000000   -1.128157    0.423457
      5          6           0        0.000000   -0.878804   -0.931542
      6          1           0        0.000000    0.000000   -1.732269
      7          1           0        0.000000    1.608300   -1.734053
      8          1           0        0.000000    2.156626    0.765670
      9          1           0        0.000000    0.000000    2.320778
     10          1           0        0.000000   -2.156626    0.765670
     11          1           0        0.000000   -1.608300   -1.734053
 ---------------------------------------------------------------------
                    Distance matrix (angstroms):
                    1          2          3          4          5
     1  C    0.000000
     2  C    1.377752   0.000000
     3  C    2.343440   1.393168   0.000000
     4  C    2.421552   2.256314   1.393168   0.000000
     5  C    1.757608   2.421552   2.343440   1.377752   0.000000
     6  H    1.188890   2.433083   2.973148   2.433083   1.188890
     7  H    1.084522   2.210291   3.381841   3.484687   2.613371
     8  H    2.124466   1.083909   2.208361   3.302561   3.477695
     9  H    3.368959   2.207389   1.079899   2.207389   3.368959
    10  H    3.477695   3.302561   2.208361   1.083909   2.124466
    11  H    2.613371   3.484687   3.381841   2.210291   1.084522
                    6          7          8          9         10
     6  H    0.000000
     7  H    1.608301   0.000000
     8  H    3.300111   2.559155   0.000000
     9  H    4.053047   4.362142   2.658834   0.000000
    10  H    3.300111   4.519213   4.313252   2.658834   0.000000
    11  H    1.608301   3.216600   4.519213   4.362142   2.559155
                   11
    11  H    0.000000
 Stoichiometry    C5H6(1+,2)
 Framework group  C2V[C2(HCH),SGV(C4H4)]
 Deg. of freedom    10
 Full point group                 C2V     NOp   4
 Largest Abelian subgroup         C2V     NOp   4
 Largest concise Abelian subgroup C2      NOp   2
                         Standard orientation:                         
 ---------------------------------------------------------------------
 Center     Atomic      Atomic             Coordinates (Angstroms)
 Number     Number       Type             X           Y           Z
 ---------------------------------------------------------------------
      1          6           0        0.000000    0.878804   -0.931542
      2          6           0        0.000000    1.128157    0.423457
      3          6           0        0.000000   -0.000000    1.240879
      4          6           0       -0.000000   -1.128157    0.423457
      5          6           0       -0.000000   -0.878804   -0.931542
      6          1           0       -0.000000    0.000000   -1.732269
      7          1           0        0.000000    1.608300   -1.734053
      8          1           0        0.000000    2.156626    0.765670
      9          1           0        0.000000   -0.000000    2.320778
     10          1           0       -0.000000   -2.156626    0.765670
     11          1           0       -0.000000   -1.608300   -1.734053
 ---------------------------------------------------------------------
 Rotational constants (GHZ):           8.5259551           7.9375455           4.1106177
 Leave Link  202 at Thu Mar  5 13:02:58 2020, MaxMem=  6710886400 cpu:               0.1 elap:               0.0
 (Enter /opt/ohpc/pub/libs/gaussian/g16-A.03/sandybridge/g16/l301.exe)
 Standard basis: 6-31G (6D, 7F)
 Ernie: Thresh=  0.10000D-02 Tol=  0.10000D-05 Strict=F.
 There are    27 symmetry adapted cartesian basis functions of A1  symmetry.
 There are     4 symmetry adapted cartesian basis functions of A2  symmetry.
 There are     6 symmetry adapted cartesian basis functions of B1  symmetry.
 There are    20 symmetry adapted cartesian basis functions of B2  symmetry.
 There are    27 symmetry adapted basis functions of A1  symmetry.
 There are     4 symmetry adapted basis functions of A2  symmetry.
 There are     6 symmetry adapted basis functions of B1  symmetry.
 There are    20 symmetry adapted basis functions of B2  symmetry.
    57 basis functions,   134 primitive gaussians,    57 cartesian basis functions
    18 alpha electrons       17 beta electrons
       nuclear repulsion energy       156.0127424860 Hartrees.
 IExCor=33909 DFT=T Ex+Corr=LC-wHPBE ExCW=0 ScaHFX=  1.000000
 ScaDFX=  1.000000  1.000000  1.000000  1.000000 ScalE2=  1.000000  1.000000
 IRadAn=      5 IRanWt=     -1 IRanGd=            0 ICorTp=0 IEmpDi=  4
 HFx  wShort=  0.000000 wLong=  0.400000 cFull=  0.000000 cShort=  0.000000 cLong=  0.900200
 DFx  wShort=  0.000000 wLong=  0.400000 cFull=  0.000000 cShort=  1.000000 cLong=  0.900200
 NAtoms=   11 NActive=   11 NUniq=    7 SFac= 2.47D+00 NAtFMM=   60 NAOKFM=F Big=F
 Integral buffers will be    131072 words long.
 Raffenetti 2 integral format.
 Two-electron integral symmetry is turned on.
 Leave Link  301 at Thu Mar  5 13:02:58 2020, MaxMem=  6710886400 cpu:               0.9 elap:               0.1
 (Enter /opt/ohpc/pub/libs/gaussian/g16-A.03/sandybridge/g16/l302.exe)
 NPDir=0 NMtPBC=     1 NCelOv=     1 NCel=       1 NClECP=     1 NCelD=      1
         NCelK=      1 NCelE2=     1 NClLst=     1 CellRange=     0.0.
 One-electron integrals computed using PRISM.
 One-electron integral symmetry used in STVInt
 NBasis=    57 RedAO= T EigKep=  1.84D-03  NBF=    27     4     6    20
 NBsUse=    57 1.00D-06 EigRej= -1.00D+00 NBFU=    27     4     6    20
 Precomputing XC quadrature grid using
 IXCGrd= 4 IRadAn=           5 IRanWt=          -1 IRanGd=           0 AccXCQ= 0.00D+00.
 Generated NRdTot=       0 NPtTot=           0 NUsed=           0 NTot=          32
 NSgBfM=    57    57    57    57    57 MxSgAt=    11 MxSgA2=    11.
 Leave Link  302 at Thu Mar  5 13:02:58 2020, MaxMem=  6710886400 cpu:               2.0 elap:               0.1
 (Enter /opt/ohpc/pub/libs/gaussian/g16-A.03/sandybridge/g16/l303.exe)
 DipDrv:  MaxL=1.
 Leave Link  303 at Thu Mar  5 13:02:59 2020, MaxMem=  6710886400 cpu:               0.3 elap:               0.0
 (Enter /opt/ohpc/pub/libs/gaussian/g16-A.03/sandybridge/g16/l401.exe)
 ExpMin= 1.61D-01 ExpMax= 3.05D+03 ExpMxC= 4.57D+02 IAcc=3 IRadAn=         5 AccDes= 0.00D+00
 Harris functional with IExCor=33909 and IRadAn=       5 diagonalized for initial guess.
 HarFok:  IExCor=33909 AccDes= 0.00D+00 IRadAn=         5 IDoV= 1 UseB2=F ITyADJ=14
 ICtDFT=  3500011 ScaDFX=  1.000000  1.000000  1.000000  1.000000
 FoFCou: FMM=F IPFlag=           0 FMFlag=      100000 FMFlg1=           0
         NFxFlg=           0 DoJE=T BraDBF=F KetDBF=T FulRan=T
         wScrn=  0.000000 ICntrl=       500 IOpCl=  0 I1Cent=   200000004 NGrid=           0
         NMat0=    1 NMatS0=      1 NMatT0=    0 NMatD0=    1 NMtDS0=    0 NMtDT0=    0
 Petite list used in FoFCou.
 Harris En= -192.808752797572    
 JPrj=0 DoOrth=F DoCkMO=F.
 Initial guess orbital symmetries:
 Alpha Orbitals:
       Occupied  (A1) (B2) (A1) (B2) (A1) (A1) (A1) (B2) (A1) (B2)
                 (A1) (B2) (A1) (B2) (A1) (B1) (A2) (B1)
       Virtual   (A2) (B2) (B1) (A1) (A1) (B2) (A1) (B2) (A1) (B2)
                 (A1) (B2) (A1) (B2) (B1) (A1) (A2) (B1) (B2) (A1)
                 (A1) (A2) (B1) (B2) (B2) (A1) (B2) (A1) (A1) (B2)
                 (A1) (A1) (A1) (B2) (A1) (B2) (A1) (A1) (B2)
 Beta  Orbitals:
       Occupied  (A1) (B2) (A1) (B2) (A1) (A1) (A1) (B2) (A1) (B2)
                 (A1) (B2) (A1) (B2) (A1) (B1) (A2)
       Virtual   (B1) (A2) (B2) (B1) (A1) (A1) (B2) (A1) (B2) (A1)
                 (B2) (A1) (B2) (A1) (B2) (B1) (A1) (A2) (B1) (B2)
                 (A1) (A1) (A2) (B1) (B2) (B2) (A1) (B2) (A1) (A1)
                 (B2) (A1) (A1) (A1) (B2) (A1) (B2) (A1) (A1) (B2)
 The electronic state of the initial guess is 2-B1.
 Initial guess <Sx>= 0.0000 <Sy>= 0.0000 <Sz>= 0.5000 <S**2>= 0.7500 S= 0.5000
 Leave Link  401 at Thu Mar  5 13:02:59 2020, MaxMem=  6710886400 cpu:               3.2 elap:               0.2
 (Enter /opt/ohpc/pub/libs/gaussian/g16-A.03/sandybridge/g16/l502.exe)
 Keep R1 and R2 ints in memory in symmetry-blocked form, NReq=16815681.
 FoFCou: FMM=F IPFlag=           0 FMFlag=           0 FMFlg1=           0
         NFxFlg=           0 DoJE=F BraDBF=F KetDBF=F FulRan=T
         wScrn=  0.000000 ICntrl=       600 IOpCl=  0 I1Cent=           0 NGrid=           0
         NMat0=    1 NMatS0=   1653 NMatT0=    0 NMatD0=    1 NMtDS0=    0 NMtDT0=    0
 Petite list used in FoFCou.
 UHF open shell SCF:
 Using DIIS extrapolation, IDIIS=    10.
 NGot=  6710886400 LenX=  6710059561 LenY=  6710055871
 Requested convergence on RMS density matrix=1.00D-06 within  32 cycles.
 Requested convergence on MAX density matrix=1.00D-04.
 Requested convergence on             energy=1.00D-04.
 Virtual orbitals will be shifted by   0.500 hartree.
 No special actions if energy rises.
 Dynamic level shift is on during FON iterations.

 Cycle   1  Pass 1  IDiag  1:
 E= -198.888749336923    
 DIIS: error= 4.91D-02 at cycle   1 NSaved=   1.
 NSaved= 1 IEnMin= 1 EnMin= -198.888749336923     IErMin= 1 ErrMin= 4.91D-02
 ErrMax= 4.91D-02  0.00D+00 EMaxC= 1.00D+00 BMatC= 1.97D-01 BMatP= 1.97D-01
 IDIUse=1 WtCom= 1.00D+00 WtEn= 0.00D+00
 Coeff-Com:  0.100D+01
 Coeff:      0.100D+01
 Gap=     0.367 Goal=   None    Shift=    0.500
 T= 1792. Gap= 0.839 NK=0 IS=   19 IE=   57 IFin=   18
          NO(<0.9)=   0  NV(>0.1)=   0     18.00e < EF      0.00e >EF  Err=0.0D+00
 Gap=     0.242 Goal=   None    Shift=    0.500
 T= 1792. Gap= 0.744 NK=0 IS=   18 IE=   57 IFin=   17
          NO(<0.9)=   0  NV(>0.1)=   0     17.00e < EF      0.00e >EF  Err=0.0D+00
 GapD=    0.242 DampG=1.000 DampE=0.500 DampFc=0.5000 IDamp=-1.
 Damping current iteration by 5.00D-01
 RMSDP=6.99D-03 MaxDP=5.39D-02              OVMax= 1.03D-01

 Cycle   2  Pass 1  IDiag  1:
 E= -198.926020697808     Delta-E=       -0.037271360885 Rises=F Damp=T
 DIIS: error= 2.46D-02 at cycle   2 NSaved=   2.
 NSaved= 2 IEnMin= 2 EnMin= -198.926020697808     IErMin= 2 ErrMin= 2.46D-02
 ErrMax= 2.46D-02  0.00D+00 EMaxC= 1.00D+00 BMatC= 3.72D-02 BMatP= 1.97D-01
 IDIUse=1 WtCom= 1.00D+00 WtEn= 0.00D+00
 Coeff-Com: -0.582D+00 0.158D+01
 Coeff:     -0.582D+00 0.158D+01
 Gap=     0.433 Goal=   None    Shift=    0.500
 T= 1682. Gap= 0.919 NK=4 IS=   19 IE=   23 IFin=   18
          NO(<0.9)=   0  NV(>0.1)=   0     18.00e < EF      0.00e >EF  Err=0.0D+00
 Gap=     0.270 Goal=   None    Shift=    0.500
 T= 1682. Gap= 0.769 NK=4 IS=   18 IE=   23 IFin=   17
          NO(<0.9)=   0  NV(>0.1)=   0     17.00e < EF      0.00e >EF  Err=0.0D+00
 GapD=    0.270 DampG=1.000 DampE=0.500 DampFc=0.5000 IDamp=-1.
 Damping current iteration by 5.00D-01
 RMSDP=4.42D-03 MaxDP=3.42D-02 DE=-3.73D-02 OVMax= 1.87D-02

 Cycle   3  Pass 1  IDiag  1:
 E= -198.939946331977     Delta-E=       -0.013925634168 Rises=F Damp=T
 DIIS: error= 1.48D-02 at cycle   3 NSaved=   3.
 NSaved= 3 IEnMin= 3 EnMin= -198.939946331977     IErMin= 3 ErrMin= 1.48D-02
 ErrMax= 1.48D-02  0.00D+00 EMaxC= 1.00D+00 BMatC= 9.49D-03 BMatP= 3.72D-02
 IDIUse=1 WtCom= 1.00D+00 WtEn= 0.00D+00
 Coeff-Com:  0.332D+00-0.189D+01 0.256D+01
 Coeff:      0.332D+00-0.189D+01 0.256D+01
 Gap=     0.423 Goal=   None    Shift=    0.500
 T= 1486. Gap= 0.923 NK=0 IS=   19 IE=   57 IFin=   18
          NO(<0.9)=   0  NV(>0.1)=   0     18.00e < EF      0.00e >EF  Err=0.0D+00
 Gap=     0.276 Goal=   None    Shift=    0.500
 T= 1486. Gap= 0.776 NK=0 IS=   18 IE=   57 IFin=   17
          NO(<0.9)=   0  NV(>0.1)=   0     17.00e < EF      0.00e >EF  Err=0.0D+00
 GapD=    0.276 DampG=1.000 DampE=0.500 DampFc=0.5000 IDamp=-1.
 Damping current iteration by 5.00D-01
 RMSDP=2.60D-03 MaxDP=2.08D-02 DE=-1.39D-02 OVMax= 1.79D-02

 Cycle   4  Pass 1  IDiag  1:
 E= -198.946814455246     Delta-E=       -0.006868123269 Rises=F Damp=T
 DIIS: error= 9.86D-03 at cycle   4 NSaved=   4.
 NSaved= 4 IEnMin= 4 EnMin= -198.946814455246     IErMin= 4 ErrMin= 9.86D-03
 ErrMax= 9.86D-03  0.00D+00 EMaxC= 1.00D+00 BMatC= 3.43D-03 BMatP= 9.49D-03
 IDIUse=1 WtCom= 1.00D+00 WtEn= 0.00D+00
 Coeff-Com:  0.743D-02 0.881D+00-0.392D+01 0.403D+01
 Coeff:      0.743D-02 0.881D+00-0.392D+01 0.403D+01
 Gap=     0.429 Goal=   None    Shift=    0.500
 T= 1134. Gap= 0.929 NK=0 IS=   19 IE=   57 IFin=   18
          NO(<0.9)=   0  NV(>0.1)=   0     18.00e < EF      0.00e >EF  Err=0.0D+00
 Gap=     0.282 Goal=   None    Shift=    0.500
 T= 1134. Gap= 0.782 NK=0 IS=   18 IE=   57 IFin=   17
          NO(<0.9)=   0  NV(>0.1)=   0     17.00e < EF      0.00e >EF  Err=0.0D+00
 GapD=    0.282 DampG=1.000 DampE=1.000 DampFc=1.0000 IDamp=-1.
 RMSDP=1.70D-03 MaxDP=1.76D-02 DE=-6.87D-03 OVMax= 1.79D-02

 Cycle   5  Pass 1  IDiag  1:
 E= -198.955264172942     Delta-E=       -0.008449717697 Rises=F Damp=F
 DIIS: error= 4.88D-03 at cycle   5 NSaved=   5.
 NSaved= 5 IEnMin= 5 EnMin= -198.955264172942     IErMin= 5 ErrMin= 4.88D-03
 ErrMax= 4.88D-03  0.00D+00 EMaxC= 1.00D+00 BMatC= 5.79D-04 BMatP= 3.43D-03
 IDIUse=1 WtCom= 1.00D+00 WtEn= 0.00D+00
 Coeff-Com: -0.200D+00 0.975D+00-0.686D+00-0.109D+01 0.200D+01
 Coeff:     -0.200D+00 0.975D+00-0.686D+00-0.109D+01 0.200D+01
 Gap=     0.433 Goal=   None    Shift=    0.500
 T=  827. Gap= 0.933 NK=0 IS=   19 IE=   57 IFin=   18
          NO(<0.9)=   0  NV(>0.1)=   0     18.00e < EF      0.00e >EF  Err=0.0D+00
 Gap=     0.287 Goal=   None    Shift=    0.500
 T=  827. Gap= 0.787 NK=0 IS=   18 IE=   57 IFin=   17
          NO(<0.9)=   0  NV(>0.1)=   0     17.00e < EF      0.00e >EF  Err=0.0D+00
 GapD=    0.287 DampG=1.000 DampE=1.000 DampFc=1.0000 IDamp=-1.
 RMSDP=5.14D-04 MaxDP=8.28D-03 DE=-8.45D-03 OVMax= 1.84D-02

 Cycle   6  Pass 1  IDiag  1:
 E= -198.956137872399     Delta-E=       -0.000873699456 Rises=F Damp=F
 DIIS: error= 3.80D-03 at cycle   6 NSaved=   6.
 NSaved= 6 IEnMin= 6 EnMin= -198.956137872399     IErMin= 6 ErrMin= 3.80D-03
 ErrMax= 3.80D-03  0.00D+00 EMaxC= 1.00D+00 BMatC= 2.74D-04 BMatP= 5.79D-04
 IDIUse=1 WtCom= 1.00D+00 WtEn= 0.00D+00
 Coeff-Com:  0.827D-02-0.319D+00 0.875D+00-0.536D+00-0.174D+01 0.271D+01
 Coeff:      0.827D-02-0.319D+00 0.875D+00-0.536D+00-0.174D+01 0.271D+01
 Gap=     0.436 Goal=   None    Shift=    0.500
 T=  548. Gap= 0.936 NK=0 IS=   19 IE=   57 IFin=   18
          NO(<0.9)=   0  NV(>0.1)=   0     18.00e < EF      0.00e >EF  Err=0.0D+00
 Gap=     0.290 Goal=   None    Shift=    0.500
 T=  548. Gap= 0.790 NK=0 IS=   18 IE=   57 IFin=   17
          NO(<0.9)=   0  NV(>0.1)=   0     17.00e < EF      0.00e >EF  Err=0.0D+00
 GapD=    0.290 DampG=1.000 DampE=1.000 DampFc=1.0000 IDamp=-1.
 RMSDP=4.20D-04 MaxDP=6.71D-03 DE=-8.74D-04 OVMax= 1.68D-02

 Cycle   7  Pass 1  IDiag  1:
 E= -198.956645877544     Delta-E=       -0.000508005146 Rises=F Damp=F
 DIIS: error= 2.82D-03 at cycle   7 NSaved=   7.
 NSaved= 7 IEnMin= 7 EnMin= -198.956645877544     IErMin= 7 ErrMin= 2.82D-03
 ErrMax= 2.82D-03  0.00D+00 EMaxC= 1.00D+00 BMatC= 1.28D-04 BMatP= 2.74D-04
 IDIUse=1 WtCom= 1.00D+00 WtEn= 0.00D+00
 Coeff-Com:  0.171D-01-0.426D-01-0.233D+00 0.502D+00-0.225D+00-0.147D+01
 Coeff-Com:  0.245D+01
 Coeff:      0.171D-01-0.426D-01-0.233D+00 0.502D+00-0.225D+00-0.147D+01
 Coeff:      0.245D+01
 Gap=     0.437 Goal=   None    Shift=    0.500
 T=  261. Gap= 0.937 NK=0 IS=   19 IE=   57 IFin=   18
          NO(<0.9)=   0  NV(>0.1)=   0     18.00e < EF      0.00e >EF  Err=0.0D+00
 Gap=     0.291 Goal=   None    Shift=    0.500
 T=  261. Gap= 0.791 NK=0 IS=   18 IE=   57 IFin=   17
          NO(<0.9)=   0  NV(>0.1)=   0     17.00e < EF      0.00e >EF  Err=0.0D+00
 GapD=    0.291 DampG=1.000 DampE=1.000 DampFc=1.0000 IDamp=-1.
 RMSDP=2.97D-04 MaxDP=4.46D-03 DE=-5.08D-04 OVMax= 1.28D-02

 Cycle   8  Pass 1  IDiag  1:
 E= -198.956886977564     Delta-E=       -0.000241100020 Rises=F Damp=F
 DIIS: error= 2.06D-03 at cycle   8 NSaved=   8.
 NSaved= 8 IEnMin= 8 EnMin= -198.956886977564     IErMin= 8 ErrMin= 2.06D-03
 ErrMax= 2.06D-03  0.00D+00 EMaxC= 1.00D+00 BMatC= 6.52D-05 BMatP= 1.28D-04
 IDIUse=1 WtCom= 1.00D+00 WtEn= 0.00D+00
 Coeff-Com: -0.198D-01 0.327D+00-0.862D+00 0.553D+00 0.142D+01-0.276D+01
 Coeff-Com: -0.472D-01 0.239D+01
 Coeff:     -0.198D-01 0.327D+00-0.862D+00 0.553D+00 0.142D+01-0.276D+01
 Coeff:     -0.472D-01 0.239D+01
 Gap=     0.438 Goal=   None    Shift=    0.500
 T=   93. Gap= 0.938 NK=0 IS=   19 IE=   57 IFin=   18
          NO(<0.9)=   0  NV(>0.1)=   0     18.00e < EF      0.00e >EF  Err=0.0D+00
 Gap=     0.292 Goal=   None    Shift=    0.500
 T=   93. Gap= 0.792 NK=0 IS=   18 IE=   57 IFin=   17
          NO(<0.9)=   0  NV(>0.1)=   0     17.00e < EF      0.00e >EF  Err=0.0D+00
 GapD=    0.292 DampG=1.000 DampE=1.000 DampFc=1.0000 IDamp=-1.
 RMSDP=2.47D-04 MaxDP=3.58D-03 DE=-2.41D-04 OVMax= 1.12D-02

 Cycle   9  Pass 1  IDiag  1:
 E= -198.957022510157     Delta-E=       -0.000135532594 Rises=F Damp=F
 DIIS: error= 1.41D-03 at cycle   9 NSaved=   9.
 NSaved= 9 IEnMin= 9 EnMin= -198.957022510157     IErMin= 9 ErrMin= 1.41D-03
 ErrMax= 1.41D-03  0.00D+00 EMaxC= 1.00D+00 BMatC= 3.00D-05 BMatP= 6.52D-05
 IDIUse=1 WtCom= 1.00D+00 WtEn= 0.00D+00
 Coeff-Com:  0.691D-02-0.201D+00 0.723D+00-0.683D+00-0.666D+00 0.240D+01
 Coeff-Com: -0.124D+01-0.349D+01 0.415D+01
 Coeff:      0.691D-02-0.201D+00 0.723D+00-0.683D+00-0.666D+00 0.240D+01
 Coeff:     -0.124D+01-0.349D+01 0.415D+01
 Gap=     0.438 Goal=   None    Shift=    0.500
 Gap=     0.293 Goal=   None    Shift=    0.500
 GapD=    0.293 DampG=1.000 DampE=1.000 DampFc=1.0000 IDamp=-1.
 RMSDP=2.05D-04 MaxDP=3.27D-03 DE=-1.36D-04 OVMax= 9.83D-03

 Cycle  10  Pass 1  IDiag  1:
 E= -198.957096578205     Delta-E=       -0.000074068047 Rises=F Damp=F
 DIIS: error= 8.64D-04 at cycle  10 NSaved=  10.
 NSaved=10 IEnMin=10 EnMin= -198.957096578205     IErMin=10 ErrMin= 8.64D-04
 ErrMax= 8.64D-04  0.00D+00 EMaxC= 1.00D+00 BMatC= 1.23D-05 BMatP= 3.00D-05
 IDIUse=1 WtCom= 1.00D+00 WtEn= 0.00D+00
 Coeff-Com:  0.320D-02 0.584D-02-0.493D-01 0.570D-01 0.446D-01-0.228D+00
 Coeff-Com:  0.369D+00 0.818D-01-0.190D+01 0.262D+01
 Coeff:      0.320D-02 0.584D-02-0.493D-01 0.570D-01 0.446D-01-0.228D+00
 Coeff:      0.369D+00 0.818D-01-0.190D+01 0.262D+01
 Gap=     0.439 Goal=   None    Shift=    0.500
 Gap=     0.293 Goal=   None    Shift=    0.500
 RMSDP=1.23D-04 MaxDP=2.03D-03 DE=-7.41D-05 OVMax= 6.15D-03

 Cycle  11  Pass 1  IDiag  1:
 E= -198.957124916311     Delta-E=       -0.000028338107 Rises=F Damp=F
 DIIS: error= 5.28D-04 at cycle  11 NSaved=  11.
 NSaved=11 IEnMin=11 EnMin= -198.957124916311     IErMin=11 ErrMin= 5.28D-04
 ErrMax= 5.28D-04  0.00D+00 EMaxC= 1.00D+00 BMatC= 5.47D-06 BMatP= 1.23D-05
 IDIUse=1 WtCom= 1.00D+00 WtEn= 0.00D+00
 Coeff-Com:  0.516D-03-0.504D-01 0.220D+00-0.242D+00-0.973D-01 0.690D+00
 Coeff-Com: -0.711D+00-0.878D+00 0.363D+01-0.657D+01 0.500D+01
 Coeff:      0.516D-03-0.504D-01 0.220D+00-0.242D+00-0.973D-01 0.690D+00
 Coeff:     -0.711D+00-0.878D+00 0.363D+01-0.657D+01 0.500D+01
 Gap=     0.439 Goal=   None    Shift=    0.500
 Gap=     0.293 Goal=   None    Shift=    0.500
 RMSDP=8.41D-05 MaxDP=1.32D-03 DE=-2.83D-05 OVMax= 4.27D-03

 Cycle  12  Pass 1  IDiag  1:
 E= -198.957137159309     Delta-E=       -0.000012242998 Rises=F Damp=F
 DIIS: error= 3.03D-04 at cycle  12 NSaved=  12.
 NSaved=12 IEnMin=12 EnMin= -198.957137159309     IErMin=12 ErrMin= 3.03D-04
 ErrMax= 3.03D-04  0.00D+00 EMaxC= 1.00D+00 BMatC= 2.05D-06 BMatP= 5.47D-06
 IDIUse=1 WtCom= 1.00D+00 WtEn= 0.00D+00
 Coeff-Com:  0.112D-02-0.287D-01 0.103D+00-0.980D-01-0.842D-01 0.313D+00
 Coeff-Com: -0.822D-01-0.574D+00 0.448D+00 0.775D+00-0.267D+01 0.290D+01
 Coeff:      0.112D-02-0.287D-01 0.103D+00-0.980D-01-0.842D-01 0.313D+00
 Coeff:     -0.822D-01-0.574D+00 0.448D+00 0.775D+00-0.267D+01 0.290D+01
 Gap=     0.439 Goal=   None    Shift=    0.500
 Gap=     0.293 Goal=   None    Shift=    0.500
 RMSDP=5.08D-05 MaxDP=7.76D-04 DE=-1.22D-05 OVMax= 2.57D-03

 Cycle  13  Pass 1  IDiag  1:
 E= -198.957141540239     Delta-E=       -0.000004380930 Rises=F Damp=F
 DIIS: error= 1.69D-04 at cycle  13 NSaved=  13.
 NSaved=13 IEnMin=13 EnMin= -198.957141540239     IErMin=13 ErrMin= 1.69D-04
 ErrMax= 1.69D-04  0.00D+00 EMaxC= 1.00D+00 BMatC= 7.46D-07 BMatP= 2.05D-06
 IDIUse=1 WtCom= 1.00D+00 WtEn= 0.00D+00
 Coeff-Com:  0.503D-03-0.127D-02 0.112D-01-0.202D-01 0.270D-01 0.170D-01
 Coeff-Com: -0.142D+00 0.680D-01 0.697D+00-0.219D+01 0.367D+01-0.530D+01
 Coeff-Com:  0.417D+01
 Coeff:      0.503D-03-0.127D-02 0.112D-01-0.202D-01 0.270D-01 0.170D-01
 Coeff:     -0.142D+00 0.680D-01 0.697D+00-0.219D+01 0.367D+01-0.530D+01
 Coeff:      0.417D+01
 Gap=     0.439 Goal=   None    Shift=    0.500
 Gap=     0.293 Goal=   None    Shift=    0.500
 RMSDP=3.04D-05 MaxDP=4.66D-04 DE=-4.38D-06 OVMax= 1.55D-03

 Cycle  14  Pass 1  IDiag  1:
 E= -198.957143066214     Delta-E=       -0.000001525975 Rises=F Damp=F
 DIIS: error= 8.91D-05 at cycle  14 NSaved=  14.
 NSaved=14 IEnMin=14 EnMin= -198.957143066214     IErMin=14 ErrMin= 8.91D-05
 ErrMax= 8.91D-05  0.00D+00 EMaxC= 1.00D+00 BMatC= 2.74D-07 BMatP= 7.46D-07
 IDIUse=1 WtCom= 1.00D+00 WtEn= 0.00D+00
 Coeff-Com:  0.552D-03-0.106D-01 0.407D-01-0.423D-01-0.229D-01 0.109D+00
 Coeff-Com: -0.431D-01-0.199D+00 0.361D+00-0.311D+00-0.383D+00 0.186D+01
 Coeff-Com: -0.361D+01 0.325D+01
 Coeff:      0.552D-03-0.106D-01 0.407D-01-0.423D-01-0.229D-01 0.109D+00
 Coeff:     -0.431D-01-0.199D+00 0.361D+00-0.311D+00-0.383D+00 0.186D+01
 Coeff:     -0.361D+01 0.325D+01
 Gap=     0.439 Goal=   None    Shift=    0.500
 Gap=     0.293 Goal=   None    Shift=    0.500
 RMSDP=1.72D-05 MaxDP=2.59D-04 DE=-1.53D-06 OVMax= 8.86D-04

 Cycle  15  Pass 1  IDiag  1:
 E= -198.957143559008     Delta-E=       -0.000000492794 Rises=F Damp=F
 DIIS: error= 4.66D-05 at cycle  15 NSaved=  15.
 NSaved=15 IEnMin=15 EnMin= -198.957143559008     IErMin=15 ErrMin= 4.66D-05
 ErrMax= 4.66D-05  0.00D+00 EMaxC= 1.00D+00 BMatC= 9.21D-08 BMatP= 2.74D-07
 IDIUse=1 WtCom= 1.00D+00 WtEn= 0.00D+00
 Coeff-Com: -0.224D-03 0.372D-02-0.137D-01 0.143D-01 0.892D-02-0.375D-01
 Coeff-Com:  0.101D-01 0.807D-01-0.116D+00 0.451D-01 0.337D+00-0.144D+01
 Coeff-Com:  0.312D+01-0.493D+01 0.391D+01
 Coeff:     -0.224D-03 0.372D-02-0.137D-01 0.143D-01 0.892D-02-0.375D-01
 Coeff:      0.101D-01 0.807D-01-0.116D+00 0.451D-01 0.337D+00-0.144D+01
 Coeff:      0.312D+01-0.493D+01 0.391D+01
 Gap=     0.439 Goal=   None    Shift=    0.500
 Gap=     0.293 Goal=   None    Shift=    0.500
 RMSDP=9.22D-06 MaxDP=1.32D-04 DE=-4.93D-07 OVMax= 4.78D-04

 Cycle  16  Pass 1  IDiag  1:
 E= -198.957143706036     Delta-E=       -0.000000147028 Rises=F Damp=F
 DIIS: error= 2.78D-05 at cycle  16 NSaved=  16.
 NSaved=16 IEnMin=16 EnMin= -198.957143706036     IErMin=16 ErrMin= 2.78D-05
 ErrMax= 2.78D-05  0.00D+00 EMaxC= 1.00D+00 BMatC= 3.02D-08 BMatP= 9.21D-08
 IDIUse=1 WtCom= 1.00D+00 WtEn= 0.00D+00
 Coeff-Com:  0.862D-04-0.994D-03 0.577D-02-0.806D-02 0.378D-02 0.380D-02
 Coeff-Com: -0.359D-03-0.288D-01 0.100D+00-0.203D+00 0.164D+00 0.145D+00
 Coeff-Com: -0.943D+00 0.239D+01-0.412D+01 0.350D+01
 Coeff:      0.862D-04-0.994D-03 0.577D-02-0.806D-02 0.378D-02 0.380D-02
 Coeff:     -0.359D-03-0.288D-01 0.100D+00-0.203D+00 0.164D+00 0.145D+00
 Coeff:     -0.943D+00 0.239D+01-0.412D+01 0.350D+01
 Gap=     0.439 Goal=   None    Shift=    0.500
 Gap=     0.293 Goal=   None    Shift=    0.500
 RMSDP=4.83D-06 MaxDP=6.52D-05 DE=-1.47D-07 OVMax= 2.52D-04

 Cycle  17  Pass 1  IDiag  1:
 E= -198.957143748813     Delta-E=       -0.000000042776 Rises=F Damp=F
 DIIS: error= 1.62D-05 at cycle  17 NSaved=  17.
 NSaved=17 IEnMin=17 EnMin= -198.957143748813     IErMin=17 ErrMin= 1.62D-05
 ErrMax= 1.62D-05  0.00D+00 EMaxC= 1.00D+00 BMatC= 9.47D-09 BMatP= 3.02D-08
 IDIUse=1 WtCom= 1.00D+00 WtEn= 0.00D+00
 Coeff-Com: -0.393D-04 0.909D-03-0.458D-02 0.585D-02-0.513D-03-0.896D-02
 Coeff-Com:  0.753D-02 0.211D-01-0.641D-01 0.103D+00-0.425D-01-0.225D+00
 Coeff-Com:  0.773D+00-0.173D+01 0.298D+01-0.442D+01 0.361D+01
 Coeff:     -0.393D-04 0.909D-03-0.458D-02 0.585D-02-0.513D-03-0.896D-02
 Coeff:      0.753D-02 0.211D-01-0.641D-01 0.103D+00-0.425D-01-0.225D+00
 Coeff:      0.773D+00-0.173D+01 0.298D+01-0.442D+01 0.361D+01
 Gap=     0.439 Goal=   None    Shift=    0.500
 Gap=     0.293 Goal=   None    Shift=    0.500
 RMSDP=2.47D-06 MaxDP=3.31D-05 DE=-4.28D-08 OVMax= 1.29D-04

 Cycle  18  Pass 1  IDiag  1:
 E= -198.957143761058     Delta-E=       -0.000000012246 Rises=F Damp=F
 DIIS: error= 9.33D-06 at cycle  18 NSaved=  18.
 NSaved=18 IEnMin=18 EnMin= -198.957143761058     IErMin=18 ErrMin= 9.33D-06
 ErrMax= 9.33D-06  0.00D+00 EMaxC= 1.00D+00 BMatC= 2.92D-09 BMatP= 9.47D-09
 IDIUse=1 WtCom= 1.00D+00 WtEn= 0.00D+00
 Coeff-Com: -0.213D-04 0.328D-03-0.585D-03 0.100D-04 0.257D-02-0.588D-02
 Coeff-Com:  0.383D-02 0.210D-02 0.496D-02-0.274D-01 0.448D-01-0.414D-01
 Coeff-Com: -0.251D-01 0.225D+00-0.703D+00 0.172D+01-0.355D+01 0.335D+01
 Coeff:     -0.213D-04 0.328D-03-0.585D-03 0.100D-04 0.257D-02-0.588D-02
 Coeff:      0.383D-02 0.210D-02 0.496D-02-0.274D-01 0.448D-01-0.414D-01
 Coeff:     -0.251D-01 0.225D+00-0.703D+00 0.172D+01-0.355D+01 0.335D+01
 Gap=     0.439 Goal=   None    Shift=    0.500
 Gap=     0.293 Goal=   None    Shift=    0.500
 RMSDP=1.25D-06 MaxDP=1.72D-05 DE=-1.22D-08 OVMax= 6.56D-05

 Cycle  19  Pass 1  IDiag  1:
 E= -198.957143764577     Delta-E=       -0.000000003519 Rises=F Damp=F
 DIIS: error= 5.41D-06 at cycle  19 NSaved=  19.
 NSaved=19 IEnMin=19 EnMin= -198.957143764577     IErMin=19 ErrMin= 5.41D-06
 ErrMax= 5.41D-06  0.00D+00 EMaxC= 1.00D+00 BMatC= 8.59D-10 BMatP= 2.92D-09
 IDIUse=1 WtCom= 1.00D+00 WtEn= 0.00D+00
 Coeff-Com: -0.167D-04 0.297D-03-0.107D-02 0.110D-02 0.708D-03-0.346D-02
 Coeff-Com:  0.303D-02 0.377D-02-0.112D-01 0.144D-01-0.630D-02-0.139D-01
 Coeff-Com:  0.394D-01-0.756D-01 0.140D+00-0.431D+00 0.120D+01-0.276D+01
 Coeff-Com:  0.290D+01
 Coeff:     -0.167D-04 0.297D-03-0.107D-02 0.110D-02 0.708D-03-0.346D-02
 Coeff:      0.303D-02 0.377D-02-0.112D-01 0.144D-01-0.630D-02-0.139D-01
 Coeff:      0.394D-01-0.756D-01 0.140D+00-0.431D+00 0.120D+01-0.276D+01
 Coeff:      0.290D+01
 Gap=     0.439 Goal=   None    Shift=    0.500
 Gap=     0.293 Goal=   None    Shift=    0.500
 RMSDP=6.48D-07 MaxDP=8.99D-06 DE=-3.52D-09 OVMax= 3.41D-05

 SCF Done:  E(ULC-wHPBE) =  -198.957143765     A.U. after   19 cycles
            NFock= 19  Conv=0.65D-06     -V/T= 2.0303
 <Sx>= 0.0000 <Sy>= 0.0000 <Sz>= 0.5000 <S**2>= 0.8436 S= 0.5458
 <L.S>= 0.000000000000E+00
 KE= 1.931118115047D+02 PE=-7.530543194724D+02 EE= 2.049726217171D+02
 Annihilation of the first spin contaminant:
 S**2 before annihilation     0.8436,   after     0.7549
 Leave Link  502 at Thu Mar  5 13:03:01 2020, MaxMem=  6710886400 cpu:              31.6 elap:               2.0
 (Enter /opt/ohpc/pub/libs/gaussian/g16-A.03/sandybridge/g16/l508.exe)
 QCSCF skips out because SCF is already converged.
 Leave Link  508 at Thu Mar  5 13:03:01 2020, MaxMem=  6710886400 cpu:               0.1 elap:               0.0
 (Enter /opt/ohpc/pub/libs/gaussian/g16-A.03/sandybridge/g16/l601.exe)
 Copying SCF densities to generalized density rwf, IOpCl= 1 IROHF=0.

 **********************************************************************

            Population analysis using the SCF density.

 **********************************************************************

 Orbital symmetries:
 Alpha Orbitals:
       Occupied  (B2) (A1) (A1) (B2) (A1) (A1) (A1) (B2) (A1) (B2)
                 (A1) (B2) (A1) (A1) (B1) (B2) (A2) (B1)
       Virtual   (A2) (B2) (B1) (A1) (A1) (B2) (A1) (A1) (B2) (A1)
                 (B2) (A1) (B2) (B1) (B2) (B1) (A2) (A1) (A1) (B2)
                 (A1) (A2) (B1) (B2) (B2) (A1) (A1) (A1) (B2) (A1)
                 (B2) (A1) (A1) (B2) (A1) (B2) (A1) (A1) (B2)
 Beta  Orbitals:
       Occupied  (B2) (A1) (B2) (A1) (A1) (A1) (A1) (B2) (A1) (B2)
                 (A1) (B2) (A1) (A1) (B2) (B1) (A2)
       Virtual   (B1) (B2) (A2) (A1) (B1) (A1) (B2) (A1) (B2) (A1)
                 (A1) (B2) (A1) (B2) (B2) (B1) (A2) (A1) (B1) (A1)
                 (B2) (A1) (A2) (B1) (B2) (B2) (A1) (A1) (B2) (A1)
                 (B2) (A1) (A1) (A1) (B2) (A1) (B2) (A1) (A1) (B2)
 The electronic state is 2-B1.
 Alpha  occ. eigenvalues --  -10.54086 -10.54083 -10.48904 -10.48152 -10.48151
 Alpha  occ. eigenvalues --   -1.40478  -1.27382  -1.22429  -1.08345  -1.06069
 Alpha  occ. eigenvalues --   -1.01207  -0.91215  -0.88958  -0.87865  -0.86652
 Alpha  occ. eigenvalues --   -0.85493  -0.71513  -0.70556
 Alpha virt. eigenvalues --   -0.26685  -0.26096  -0.19437  -0.18753  -0.11720
 Alpha virt. eigenvalues --   -0.07008  -0.04922  -0.02514  -0.02446   0.08208
 Alpha virt. eigenvalues --    0.08505   0.18755   0.18982   0.27272   0.28236
 Alpha virt. eigenvalues --    0.35052   0.35532   0.36304   0.38212   0.39089
 Alpha virt. eigenvalues --    0.39422   0.43144   0.44622   0.52036   0.59020
 Alpha virt. eigenvalues --    0.61327   0.62325   0.64967   0.65054   0.70935
 Alpha virt. eigenvalues --    0.71214   0.75499   0.79662   0.86363   0.94426
 Alpha virt. eigenvalues --    0.95273   1.01184   1.22704   1.24218
  Beta  occ. eigenvalues --  -10.53395 -10.53390 -10.48560 -10.48560 -10.47869
  Beta  occ. eigenvalues --   -1.39072  -1.25278  -1.22265  -1.07185  -1.05292
  Beta  occ. eigenvalues --   -1.00981  -0.90962  -0.88701  -0.87298  -0.85373
  Beta  occ. eigenvalues --   -0.81595  -0.70064
  Beta virt. eigenvalues --   -0.40769  -0.24360  -0.23387  -0.18531  -0.15769
  Beta virt. eigenvalues --   -0.11265  -0.06721  -0.04741  -0.02574  -0.01817
  Beta virt. eigenvalues --    0.08707   0.08820   0.19154   0.19344   0.28672
  Beta virt. eigenvalues --    0.29921   0.36698   0.36914   0.38176   0.38541
  Beta virt. eigenvalues --    0.39391   0.40613   0.43627   0.46315   0.52661
  Beta virt. eigenvalues --    0.59467   0.62283   0.62807   0.64915   0.65432
  Beta virt. eigenvalues --    0.71472   0.71698   0.76331   0.80542   0.86256
  Beta virt. eigenvalues --    0.94877   0.95836   1.02469   1.23674   1.25106
          Condensed to atoms (all electrons):
               1          2          3          4          5          6
     1  C    5.385536   0.489331  -0.042475  -0.121509   0.174807   0.161622
     2  C    0.489331   4.983527   0.447049  -0.024394  -0.121509  -0.021640
     3  C   -0.042475   0.447049   4.914830   0.447049  -0.042475   0.007684
     4  C   -0.121509  -0.024394   0.447049   4.983527   0.489331  -0.021640
     5  C    0.174807  -0.121509  -0.042475   0.489331   5.385536   0.161622
     6  H    0.161622  -0.021640   0.007684  -0.021640   0.161622   0.345110
     7  H    0.335010   0.005291  -0.000576   0.002952  -0.014004  -0.010196
     8  H   -0.022044   0.359827  -0.010873   0.003560   0.000585   0.000265
     9  H    0.004429  -0.024384   0.361845  -0.024384   0.004429  -0.000018
    10  H    0.000585   0.003560  -0.010873   0.359827  -0.022044   0.000265
    11  H   -0.014004   0.002952  -0.000576   0.005291   0.335010  -0.010196
               7          8          9         10         11
     1  C    0.335010  -0.022044   0.004429   0.000585  -0.014004
     2  C    0.005291   0.359827  -0.024384   0.003560   0.002952
     3  C   -0.000576  -0.010873   0.361845  -0.010873  -0.000576
     4  C    0.002952   0.003560  -0.024384   0.359827   0.005291
     5  C   -0.014004   0.000585   0.004429  -0.022044   0.335010
     6  H   -0.010196   0.000265  -0.000018   0.000265  -0.010196
     7  H    0.332623   0.000306  -0.000045  -0.000012   0.000361
     8  H    0.000306   0.370784  -0.000907  -0.000068  -0.000012
     9  H   -0.000045  -0.000907   0.388439  -0.000907  -0.000045
    10  H   -0.000012  -0.000068  -0.000907   0.370784   0.000306
    11  H    0.000361  -0.000012  -0.000045   0.000306   0.332623
          Atomic-Atomic Spin Densities.
               1          2          3          4          5          6
     1  C    0.572471  -0.040655  -0.021949  -0.009622   0.016218  -0.004789
     2  C   -0.040655  -0.333597   0.027219   0.001160  -0.009622   0.000496
     3  C   -0.021949   0.027219   0.771303   0.027219  -0.021949   0.000183
     4  C   -0.009622   0.001160   0.027219  -0.333597  -0.040655   0.000496
     5  C    0.016218  -0.009622  -0.021949  -0.040655   0.572471  -0.004789
     6  H   -0.004789   0.000496   0.000183   0.000496  -0.004789  -0.017836
     7  H   -0.003720  -0.000622   0.000139  -0.000128   0.000145  -0.000076
     8  H   -0.000397   0.002384  -0.001072  -0.000156   0.000089   0.000031
     9  H   -0.000007   0.000038  -0.001879   0.000038  -0.000007  -0.000002
    10  H    0.000089  -0.000156  -0.001072   0.002384  -0.000397   0.000031
    11  H    0.000145  -0.000128   0.000139  -0.000622  -0.003720  -0.000076
               7          8          9         10         11
     1  C   -0.003720  -0.000397  -0.000007   0.000089   0.000145
     2  C   -0.000622   0.002384   0.000038  -0.000156  -0.000128
     3  C    0.000139  -0.001072  -0.001879  -0.001072   0.000139
     4  C   -0.000128  -0.000156   0.000038   0.002384  -0.000622
     5  C    0.000145   0.000089  -0.000007  -0.000397  -0.003720
     6  H   -0.000076   0.000031  -0.000002   0.000031  -0.000076
     7  H   -0.021075   0.000042   0.000004  -0.000000  -0.000081
     8  H    0.000042   0.010396   0.000004  -0.000000  -0.000000
     9  H    0.000004   0.000004  -0.030641   0.000004   0.000004
    10  H   -0.000000  -0.000000   0.000004   0.010396   0.000042
    11  H   -0.000081  -0.000000   0.000004   0.000042  -0.021075
 Mulliken charges and spin densities:
               1          2
     1  C   -0.351288   0.507783
     2  C   -0.099610  -0.353482
     3  C   -0.070608   0.778280
     4  C   -0.099610  -0.353482
     5  C   -0.351288   0.507783
     6  H    0.387123  -0.026332
     7  H    0.348290  -0.025374
     8  H    0.298576   0.011319
     9  H    0.291549  -0.032443
    10  H    0.298576   0.011319
    11  H    0.348290  -0.025374
 Sum of Mulliken charges =   1.00000   1.00000
 Mulliken charges and spin densities with hydrogens summed into heavy atoms:
               1          2
     1  C    0.384125   0.456078
     2  C    0.198966  -0.342162
     3  C    0.220941   0.745837
     4  C    0.198966  -0.342162
     5  C   -0.002998   0.482410
 Electronic spatial extent (au):  <R**2>=            317.1330
 Charge=              1.0000 electrons
 Dipole moment (field-independent basis, Debye):
    X=             -0.0000    Y=             -0.0000    Z=             -2.0766  Tot=              2.0766
 Quadrupole moment (field-independent basis, Debye-Ang):
   XX=            -30.5628   YY=            -16.6769   ZZ=            -12.3856
   XY=              0.0000   XZ=              0.0000   YZ=              0.0000
 Traceless Quadrupole moment (field-independent basis, Debye-Ang):
   XX=            -10.6877   YY=              3.1982   ZZ=              7.4895
   XY=              0.0000   XZ=              0.0000   YZ=              0.0000
 Octapole moment (field-independent basis, Debye-Ang**2):
  XXX=              0.0000  YYY=              0.0000  ZZZ=             -7.6760  XYY=             -0.0000
  XXY=             -0.0000  XXZ=              0.6140  XZZ=              0.0000  YZZ=              0.0000
  YYZ=             -2.6804  XYZ=             -0.0000
 Hexadecapole moment (field-independent basis, Debye-Ang**3):
 XXXX=            -29.7667 YYYY=           -137.1092 ZZZZ=           -118.2263 XXXY=             -0.0000
 XXXZ=             -0.0000 YYYX=             -0.0000 YYYZ=             -0.0000 ZZZX=              0.0000
 ZZZY=             -0.0000 XXYY=            -40.8727 XXZZ=            -37.5366 YYZZ=            -40.3251
 XXYZ=             -0.0000 YYXZ=             -0.0000 ZZXY=             -0.0000
 N-N= 1.560127424860D+02 E-N=-7.530543252533D+02  KE= 1.931118115047D+02
 Symmetry A1   KE= 1.115384290131D+02
 Symmetry A2   KE= 2.587553665481D+00
 Symmetry B1   KE= 3.342393810812D+00
 Symmetry B2   KE= 7.564343501529D+01
 Symmetry A1   SP= 7.675488154400D-15
 Symmetry A2   SP= 2.223264974899D-15
 Symmetry B1   SP= 1.000000000000D+00
 Symmetry B2   SP= 1.090769049519D-14
                          Isotropic Fermi Contact Couplings
        Atom                 a.u.       MegaHertz       Gauss      10(-4) cm-1
     1  C(13)              0.08560      96.23269      34.33822      32.09977
     2  C(13)             -0.06314     -70.97892     -25.32704     -23.67602
     3  C(13)              0.12099     136.01309      48.53285      45.36908
     4  C(13)             -0.06314     -70.97892     -25.32704     -23.67602
     5  C(13)              0.08560      96.23269      34.33822      32.09977
     6  H(1)              -0.01021     -45.62477     -16.28005     -15.21879
     7  H(1)              -0.01132     -50.58485     -18.04993     -16.87329
     8  H(1)               0.00477      21.32099       7.60786       7.11192
     9  H(1)              -0.01529     -68.36617     -24.39475     -22.80450
    10  H(1)               0.00477      21.32099       7.60786       7.11192
    11  H(1)              -0.01132     -50.58485     -18.04993     -16.87329
 --------------------------------------------------------
       Center         ----  Spin Dipole Couplings  ----
                      3XX-RR        3YY-RR        3ZZ-RR
 --------------------------------------------------------
     1   Atom        0.535323     -0.260687     -0.274635
     2   Atom       -0.245365      0.120135      0.125229
     3   Atom        0.733948     -0.375419     -0.358529
     4   Atom       -0.245365      0.120135      0.125229
     5   Atom        0.535323     -0.260687     -0.274635
     6   Atom       -0.009701      0.009803     -0.000103
     7   Atom       -0.007161      0.007633     -0.000472
     8   Atom       -0.005921     -0.004132      0.010052
     9   Atom       -0.008804     -0.047556      0.056360
    10   Atom       -0.005921     -0.004132      0.010052
    11   Atom       -0.007161      0.007633     -0.000472
 --------------------------------------------------------
                        XY            XZ            YZ
 --------------------------------------------------------
     1   Atom       -0.000000      0.000000     -0.008859
     2   Atom       -0.000000      0.000000     -0.004597
     3   Atom       -0.000000     -0.000000      0.000000
     4   Atom       -0.000000     -0.000000      0.004597
     5   Atom        0.000000      0.000000      0.008859
     6   Atom       -0.000000      0.000000     -0.000000
     7   Atom        0.000000      0.000000     -0.038252
     8   Atom       -0.000000      0.000000     -0.007829
     9   Atom       -0.000000     -0.000000     -0.000000
    10   Atom        0.000000     -0.000000      0.007829
    11   Atom       -0.000000     -0.000000      0.038252
 --------------------------------------------------------


 ---------------------------------------------------------------------------------
              Anisotropic Spin Dipole Couplings in Principal Axis System
 ---------------------------------------------------------------------------------

       Atom             a.u.   MegaHertz   Gauss  10(-4) cm-1        Axes

              Baa    -0.2789   -37.431   -13.356   -12.485 -0.0000  0.4367  0.8996
     1 C(13)  Bbb    -0.2564   -34.405   -12.276   -11.476 -0.0000  0.8996 -0.4367
              Bcc     0.5353    71.835    25.633    23.962  1.0000  0.0000  0.0000
 
              Baa    -0.2454   -32.926   -11.749   -10.983  1.0000  0.0000  0.0000
     2 C(13)  Bbb     0.1174    15.758     5.623     5.256 -0.0000  0.8616  0.5076
              Bcc     0.1279    17.168     6.126     5.727  0.0000 -0.5076  0.8616
 
              Baa    -0.3754   -50.378   -17.976   -16.804  0.0000  1.0000  0.0000
     3 C(13)  Bbb    -0.3585   -48.111   -17.167   -16.048  0.0000  0.0000  1.0000
              Bcc     0.7339    98.489    35.143    32.852  1.0000  0.0000  0.0000
 
              Baa    -0.2454   -32.926   -11.749   -10.983  1.0000  0.0000  0.0000
     4 C(13)  Bbb     0.1174    15.758     5.623     5.256 -0.0000  0.8616 -0.5076
              Bcc     0.1279    17.168     6.126     5.727 -0.0000  0.5076  0.8616
 
              Baa    -0.2789   -37.431   -13.356   -12.485 -0.0000 -0.4367  0.8996
     5 C(13)  Bbb    -0.2564   -34.405   -12.276   -11.476  0.0000  0.8996  0.4367
              Bcc     0.5353    71.835    25.633    23.962  1.0000 -0.0000  0.0000
 
              Baa    -0.0097    -5.176    -1.847    -1.726  1.0000  0.0000 -0.0000
     6 H(1)   Bbb    -0.0001    -0.055    -0.020    -0.018  0.0000  0.0000  1.0000
              Bcc     0.0098     5.231     1.866     1.745 -0.0000  1.0000 -0.0000
 
              Baa    -0.0349   -18.613    -6.642    -6.209 -0.0000  0.6688  0.7434
     7 H(1)   Bbb    -0.0072    -3.821    -1.363    -1.274  1.0000  0.0000  0.0000
              Bcc     0.0420    22.434     8.005     7.483 -0.0000  0.7434 -0.6688
 
              Baa    -0.0076    -4.057    -1.448    -1.353 -0.0000  0.9142  0.4054
     8 H(1)   Bbb    -0.0059    -3.159    -1.127    -1.054  1.0000  0.0000  0.0000
              Bcc     0.0135     7.216     2.575     2.407  0.0000 -0.4054  0.9142
 
              Baa    -0.0476   -25.374    -9.054    -8.464 -0.0000  1.0000 -0.0000
     9 H(1)   Bbb    -0.0088    -4.698    -1.676    -1.567  1.0000  0.0000  0.0000
              Bcc     0.0564    30.071    10.730    10.031  0.0000  0.0000  1.0000
 
              Baa    -0.0076    -4.057    -1.448    -1.353 -0.0000  0.9142 -0.4054
    10 H(1)   Bbb    -0.0059    -3.159    -1.127    -1.054  1.0000  0.0000 -0.0000
              Bcc     0.0135     7.216     2.575     2.407  0.0000  0.4054  0.9142
 
              Baa    -0.0349   -18.613    -6.642    -6.209  0.0000 -0.6688  0.7434
    11 H(1)   Bbb    -0.0072    -3.821    -1.363    -1.274  1.0000  0.0000  0.0000
              Bcc     0.0420    22.434     8.005     7.483 -0.0000  0.7434  0.6688
 

 ---------------------------------------------------------------------------------

 No NMR shielding tensors so no spin-rotation constants.
 Leave Link  601 at Thu Mar  5 13:03:01 2020, MaxMem=  6710886400 cpu:               3.1 elap:               0.2
 (Enter /opt/ohpc/pub/libs/gaussian/g16-A.03/sandybridge/g16/l9999.exe)

 Test job not archived.
 1\1\GINC-CNODE212\SP\ULC-wHPBE\6-31G\C5H6(1+,2)\SMGO234\05-Mar-2020\0\
 \#P uLC-wHPBE/6-31G iop(3/130=0099800000, 3/131=0099800000, 3/119=0900
 200000, 3/120=0900200000) scf=(conver=6,fermi,ndamp=35,noincfock,novar
 acc,vshift=500,xqc)\\H6 C5\\1,2\C,0,0.,0.878804,-0.931542\C,0,0.,1.128
 157,0.423457\C,0,0.,0.,1.240879\C,0,0.,-1.128157,0.423457\C,0,0.,-0.87
 8804,-0.931542\H,0,0.,0.,-1.732269\H,0,0.,1.6083,-1.734053\H,0,0.,2.15
 6626,0.76567\H,0,0.,0.,2.320778\H,0,0.,-2.156626,0.76567\H,0,0.,-1.608
 3,-1.734053\\Version=EM64L-G16RevA.03\State=2-B1\HF=-198.9571438\S2=0.
 843597\S2-1=0.\S2A=0.754888\RMSD=6.480e-07\Dipole=0.,0.,-0.8169991\Qua
 drupole=-7.9460174,2.3777602,5.5682572,0.,0.,0.\PG=C02V [C2(H1C1H1),SG
 V(C4H4)]\\@


 I FIND THAT THE THREE TRULY GREAT TIMES FOR THINKING THOUGHTS
 ARE WHEN I AM STANDING IN THE SHOWER, SITTING ON THE JOHN, OR WALKING.

                                    -- COLIN FLETCHER
 Job cpu time:       0 days  0 hours  1 minutes  0.7 seconds.
 Elapsed time:       0 days  0 hours  0 minutes  4.1 seconds.
 File lengths (MBytes):  RWF=    272 Int=      0 D2E=      0 Chk=     32 Scr=     32
 Normal termination of Gaussian 16 at Thu Mar  5 13:03:01 2020.
