 Entering Gaussian System, Link 0=g16
 Input=a1b_tune_n0.gjf
 Output=a1b_tune_n0.log
 Initial command:
 /opt/ohpc/pub/libs/gaussian/g16-A.03/sandybridge/g16/l1.exe "/scratch/smgo234/Ocelot/test/a1b/tuning_a1b_acycle3/Gau-88448.inp" -scrdir="/scratch/smgo234/Ocelot/test/a1b/tuning_a1b_acycle3/"
 Entering Link 1 = /opt/ohpc/pub/libs/gaussian/g16-A.03/sandybridge/g16/l1.exe PID=     88449.
  
 Copyright (c) 1988,1990,1992,1993,1995,1998,2003,2009,2016,
            Gaussian, Inc.  All Rights Reserved.
  
 This is part of the Gaussian(R) 16 program.  It is based on
 the Gaussian(R) 09 system (copyright 2009, Gaussian, Inc.),
 the Gaussian(R) 03 system (copyright 2003, Gaussian, Inc.),
 the Gaussian(R) 98 system (copyright 1998, Gaussian, Inc.),
 the Gaussian(R) 94 system (copyright 1995, Gaussian, Inc.),
 the Gaussian 92(TM) system (copyright 1992, Gaussian, Inc.),
 the Gaussian 90(TM) system (copyright 1990, Gaussian, Inc.),
 the Gaussian 88(TM) system (copyright 1988, Gaussian, Inc.),
 the Gaussian 86(TM) system (copyright 1986, Carnegie Mellon
 University), and the Gaussian 82(TM) system (copyright 1983,
 Carnegie Mellon University). Gaussian is a federally registered
 trademark of Gaussian, Inc.
  
 This software contains proprietary and confidential information,
 including trade secrets, belonging to Gaussian, Inc.
  
 This software is provided under written license and may be
 used, copied, transmitted, or stored only in accord with that
 written license.
  
 The following legend is applicable only to US Government
 contracts under FAR:
  
                    RESTRICTED RIGHTS LEGEND
  
 Use, reproduction and disclosure by the US Government is
 subject to restrictions as set forth in subparagraphs (a)
 and (c) of the Commercial Computer Software - Restricted
 Rights clause in FAR 52.227-19.
  
 Gaussian, Inc.
 340 Quinnipiac St., Bldg. 40, Wallingford CT 06492
  
  
 ---------------------------------------------------------------
 Warning -- This program may not be used in any manner that
 competes with the business of Gaussian, Inc. or will provide
 assistance to any competitor of Gaussian, Inc.  The licensee
 of this program is prohibited from giving any competitor of
 Gaussian, Inc. access to this program.  By using this program,
 the user acknowledges that Gaussian, Inc. is engaged in the
 business of creating and licensing software in the field of
 computational chemistry and represents and warrants to the
 licensee that it is not a competitor of Gaussian, Inc. and that
 it will not use this program in any manner prohibited above.
 ---------------------------------------------------------------
  

 Cite this work as:
 Gaussian 16, Revision A.03,
 M. J. Frisch, G. W. Trucks, H. B. Schlegel, G. E. Scuseria, 
 M. A. Robb, J. R. Cheeseman, G. Scalmani, V. Barone, 
 G. A. Petersson, H. Nakatsuji, X. Li, M. Caricato, A. V. Marenich, 
 J. Bloino, B. G. Janesko, R. Gomperts, B. Mennucci, H. P. Hratchian, 
 J. V. Ortiz, A. F. Izmaylov, J. L. Sonnenberg, D. Williams-Young, 
 F. Ding, F. Lipparini, F. Egidi, J. Goings, B. Peng, A. Petrone, 
 T. Henderson, D. Ranasinghe, V. G. Zakrzewski, J. Gao, N. Rega, 
 G. Zheng, W. Liang, M. Hada, M. Ehara, K. Toyota, R. Fukuda, 
 J. Hasegawa, M. Ishida, T. Nakajima, Y. Honda, O. Kitao, H. Nakai, 
 T. Vreven, K. Throssell, J. A. Montgomery, Jr., J. E. Peralta, 
 F. Ogliaro, M. J. Bearpark, J. J. Heyd, E. N. Brothers, K. N. Kudin, 
 V. N. Staroverov, T. A. Keith, R. Kobayashi, J. Normand, 
 K. Raghavachari, A. P. Rendell, J. C. Burant, S. S. Iyengar, 
 J. Tomasi, M. Cossi, J. M. Millam, M. Klene, C. Adamo, R. Cammi, 
 J. W. Ochterski, R. L. Martin, K. Morokuma, O. Farkas, 
 J. B. Foresman, and D. J. Fox, Gaussian, Inc., Wallingford CT, 2016.
 
 ******************************************
 Gaussian 16:  EM64L-G16RevA.03 25-Dec-2016
                 5-Mar-2020 
 ******************************************
 %mem=50GB
 %nproc=16
 Will use up to   16 processors via shared memory.
 ----------------------------------------------------------------------
 #P uLC-wHPBE/6-31G iop(3/130=0066200000, 3/131=0066200000, 3/119=09338
 00000, 3/120=0933800000) scf=(conver=6,fermi,ndamp=35,noincfock,novara
 cc,vshift=500,xqc)
 ----------------------------------------------------------------------
 1/38=1,172=1/1;
 2/12=2,17=6,18=5,40=1/2;
 3/5=1,6=6,11=2,25=1,30=1,74=-71,116=2,119=933800000,120=933800000,130=66200000,131=66200000/1,2,3;
 4//1;
 5/5=100002,6=6,8=3,10=500,13=1,18=-1,22=13,38=1,93=35/2,8;
 6/7=2,8=2,9=2,10=2,28=1/1;
 99/5=1,9=1/99;
 Leave Link    1 at Thu Mar  5 13:02:13 2020, MaxMem=  6710886400 cpu:              15.9 elap:               1.1
 (Enter /opt/ohpc/pub/libs/gaussian/g16-A.03/sandybridge/g16/l101.exe)
 -----
 H6 C5
 -----
 Symbolic Z-matrix:
 Charge =  0 Multiplicity = 1
 C                     0.        0.8788   -0.93154 
 C                     0.        1.12816   0.42346 
 C                     0.        0.        1.24088 
 C                     0.       -1.12816   0.42346 
 C                     0.       -0.8788   -0.93154 
 H                     0.        0.       -1.73227 
 H                     0.        1.6083   -1.73405 
 H                     0.        2.15663   0.76567 
 H                     0.        0.        2.32078 
 H                     0.       -2.15663   0.76567 
 H                     0.       -1.6083   -1.73405 
 
 ITRead=  0  0  0  0  0  0  0  0  0  0  0
 MicOpt= -1 -1 -1 -1 -1 -1 -1 -1 -1 -1 -1
 NAtoms=     11 NQM=       11 NQMF=       0 NMMI=      0 NMMIF=      0
                NMic=       0 NMicF=      0.
                    Isotopes and Nuclear Properties:
 (Nuclear quadrupole moments (NQMom) in fm**2, nuclear magnetic moments (NMagM)
  in nuclear magnetons)

  Atom         1           2           3           4           5           6           7           8           9          10
 IAtWgt=          12          12          12          12          12           1           1           1           1           1
 AtmWgt=  12.0000000  12.0000000  12.0000000  12.0000000  12.0000000   1.0078250   1.0078250   1.0078250   1.0078250   1.0078250
 NucSpn=           0           0           0           0           0           1           1           1           1           1
 AtZEff=  -0.0000000  -0.0000000  -0.0000000  -0.0000000  -0.0000000  -0.0000000  -0.0000000  -0.0000000  -0.0000000  -0.0000000
 NQMom=    0.0000000   0.0000000   0.0000000   0.0000000   0.0000000   0.0000000   0.0000000   0.0000000   0.0000000   0.0000000
 NMagM=    0.0000000   0.0000000   0.0000000   0.0000000   0.0000000   2.7928460   2.7928460   2.7928460   2.7928460   2.7928460
 AtZNuc=   6.0000000   6.0000000   6.0000000   6.0000000   6.0000000   1.0000000   1.0000000   1.0000000   1.0000000   1.0000000

  Atom        11
 IAtWgt=           1
 AtmWgt=   1.0078250
 NucSpn=           1
 AtZEff=  -0.0000000
 NQMom=    0.0000000
 NMagM=    2.7928460
 AtZNuc=   1.0000000
 Leave Link  101 at Thu Mar  5 13:02:13 2020, MaxMem=  6710886400 cpu:               3.1 elap:               0.2
 (Enter /opt/ohpc/pub/libs/gaussian/g16-A.03/sandybridge/g16/l202.exe)
                          Input orientation:                          
 ---------------------------------------------------------------------
 Center     Atomic      Atomic             Coordinates (Angstroms)
 Number     Number       Type             X           Y           Z
 ---------------------------------------------------------------------
      1          6           0        0.000000    0.878804   -0.931542
      2          6           0        0.000000    1.128157    0.423457
      3          6           0        0.000000    0.000000    1.240879
      4          6           0        0.000000   -1.128157    0.423457
      5          6           0        0.000000   -0.878804   -0.931542
      6          1           0        0.000000    0.000000   -1.732269
      7          1           0        0.000000    1.608300   -1.734053
      8          1           0        0.000000    2.156626    0.765670
      9          1           0        0.000000    0.000000    2.320778
     10          1           0        0.000000   -2.156626    0.765670
     11          1           0        0.000000   -1.608300   -1.734053
 ---------------------------------------------------------------------
                    Distance matrix (angstroms):
                    1          2          3          4          5
     1  C    0.000000
     2  C    1.377752   0.000000
     3  C    2.343440   1.393168   0.000000
     4  C    2.421552   2.256314   1.393168   0.000000
     5  C    1.757608   2.421552   2.343440   1.377752   0.000000
     6  H    1.188890   2.433083   2.973148   2.433083   1.188890
     7  H    1.084522   2.210291   3.381841   3.484687   2.613371
     8  H    2.124466   1.083909   2.208361   3.302561   3.477695
     9  H    3.368959   2.207389   1.079899   2.207389   3.368959
    10  H    3.477695   3.302561   2.208361   1.083909   2.124466
    11  H    2.613371   3.484687   3.381841   2.210291   1.084522
                    6          7          8          9         10
     6  H    0.000000
     7  H    1.608301   0.000000
     8  H    3.300111   2.559155   0.000000
     9  H    4.053047   4.362142   2.658834   0.000000
    10  H    3.300111   4.519213   4.313252   2.658834   0.000000
    11  H    1.608301   3.216600   4.519213   4.362142   2.559155
                   11
    11  H    0.000000
 Stoichiometry    C5H6
 Framework group  C2V[C2(HCH),SGV(C4H4)]
 Deg. of freedom    10
 Full point group                 C2V     NOp   4
 Largest Abelian subgroup         C2V     NOp   4
 Largest concise Abelian subgroup C2      NOp   2
                         Standard orientation:                         
 ---------------------------------------------------------------------
 Center     Atomic      Atomic             Coordinates (Angstroms)
 Number     Number       Type             X           Y           Z
 ---------------------------------------------------------------------
      1          6           0        0.000000    0.878804   -0.931542
      2          6           0        0.000000    1.128157    0.423457
      3          6           0        0.000000   -0.000000    1.240879
      4          6           0       -0.000000   -1.128157    0.423457
      5          6           0       -0.000000   -0.878804   -0.931542
      6          1           0       -0.000000    0.000000   -1.732269
      7          1           0        0.000000    1.608300   -1.734053
      8          1           0        0.000000    2.156626    0.765670
      9          1           0        0.000000   -0.000000    2.320778
     10          1           0       -0.000000   -2.156626    0.765670
     11          1           0       -0.000000   -1.608300   -1.734053
 ---------------------------------------------------------------------
 Rotational constants (GHZ):           8.5259551           7.9375455           4.1106177
 Leave Link  202 at Thu Mar  5 13:02:13 2020, MaxMem=  6710886400 cpu:               0.2 elap:               0.0
 (Enter /opt/ohpc/pub/libs/gaussian/g16-A.03/sandybridge/g16/l301.exe)
 Standard basis: 6-31G (6D, 7F)
 Ernie: Thresh=  0.10000D-02 Tol=  0.10000D-05 Strict=F.
 There are    27 symmetry adapted cartesian basis functions of A1  symmetry.
 There are     4 symmetry adapted cartesian basis functions of A2  symmetry.
 There are     6 symmetry adapted cartesian basis functions of B1  symmetry.
 There are    20 symmetry adapted cartesian basis functions of B2  symmetry.
 There are    27 symmetry adapted basis functions of A1  symmetry.
 There are     4 symmetry adapted basis functions of A2  symmetry.
 There are     6 symmetry adapted basis functions of B1  symmetry.
 There are    20 symmetry adapted basis functions of B2  symmetry.
    57 basis functions,   134 primitive gaussians,    57 cartesian basis functions
    18 alpha electrons       18 beta electrons
       nuclear repulsion energy       156.0127424860 Hartrees.
 IExCor=33909 DFT=T Ex+Corr=LC-wHPBE ExCW=0 ScaHFX=  1.000000
 ScaDFX=  1.000000  1.000000  1.000000  1.000000 ScalE2=  1.000000  1.000000
 IRadAn=      5 IRanWt=     -1 IRanGd=            0 ICorTp=0 IEmpDi=  4
 HFx  wShort=  0.000000 wLong=  0.400000 cFull=  0.000000 cShort=  0.000000 cLong=  0.933800
 DFx  wShort=  0.000000 wLong=  0.400000 cFull=  0.000000 cShort=  0.000000 cLong=  0.933800
 NAtoms=   11 NActive=   11 NUniq=    7 SFac= 2.47D+00 NAtFMM=   60 NAOKFM=F Big=F
 Integral buffers will be    131072 words long.
 Raffenetti 2 integral format.
 Two-electron integral symmetry is turned on.
 Leave Link  301 at Thu Mar  5 13:02:13 2020, MaxMem=  6710886400 cpu:               0.8 elap:               0.1
 (Enter /opt/ohpc/pub/libs/gaussian/g16-A.03/sandybridge/g16/l302.exe)
 NPDir=0 NMtPBC=     1 NCelOv=     1 NCel=       1 NClECP=     1 NCelD=      1
         NCelK=      1 NCelE2=     1 NClLst=     1 CellRange=     0.0.
 One-electron integrals computed using PRISM.
 One-electron integral symmetry used in STVInt
 NBasis=    57 RedAO= T EigKep=  1.84D-03  NBF=    27     4     6    20
 NBsUse=    57 1.00D-06 EigRej= -1.00D+00 NBFU=    27     4     6    20
 Precomputing XC quadrature grid using
 IXCGrd= 4 IRadAn=           5 IRanWt=          -1 IRanGd=           0 AccXCQ= 0.00D+00.
 Generated NRdTot=       0 NPtTot=           0 NUsed=           0 NTot=          32
 NSgBfM=    57    57    57    57    57 MxSgAt=    11 MxSgA2=    11.
 Leave Link  302 at Thu Mar  5 13:02:13 2020, MaxMem=  6710886400 cpu:               2.5 elap:               0.2
 (Enter /opt/ohpc/pub/libs/gaussian/g16-A.03/sandybridge/g16/l303.exe)
 DipDrv:  MaxL=1.
 Leave Link  303 at Thu Mar  5 13:02:13 2020, MaxMem=  6710886400 cpu:               0.4 elap:               0.0
 (Enter /opt/ohpc/pub/libs/gaussian/g16-A.03/sandybridge/g16/l401.exe)
 ExpMin= 1.61D-01 ExpMax= 3.05D+03 ExpMxC= 4.57D+02 IAcc=3 IRadAn=         5 AccDes= 0.00D+00
 Harris functional with IExCor=33909 and IRadAn=       5 diagonalized for initial guess.
 HarFok:  IExCor=33909 AccDes= 0.00D+00 IRadAn=         5 IDoV= 1 UseB2=F ITyADJ=14
 ICtDFT=  3500011 ScaDFX=  1.000000  1.000000  1.000000  1.000000
 FoFCou: FMM=F IPFlag=           0 FMFlag=      100000 FMFlg1=           0
         NFxFlg=           0 DoJE=T BraDBF=F KetDBF=T FulRan=T
         wScrn=  0.000000 ICntrl=       500 IOpCl=  0 I1Cent=   200000004 NGrid=           0
         NMat0=    1 NMatS0=      1 NMatT0=    0 NMatD0=    1 NMtDS0=    0 NMtDT0=    0
 Petite list used in FoFCou.
 Harris En= -172.875125857551    
 JPrj=0 DoOrth=F DoCkMO=F.
 Initial guess orbital symmetries:
 Alpha Orbitals:
       Occupied  (A1) (B2) (A1) (B2) (A1) (A1) (A1) (B2) (A1) (A1)
                 (B2) (B2) (B1) (A1) (A1) (B2) (A2) (B1)
       Virtual   (A2) (A1) (B2) (B1) (A1) (B2) (A1) (A1) (B2) (A1)
                 (B2) (B2) (A1) (B1) (B2) (A2) (A1) (B1) (A1) (B2)
                 (A2) (A1) (B1) (B2) (A1) (B2) (B2) (A1) (A1) (B2)
                 (A1) (A1) (A1) (B2) (B2) (A1) (A1) (A1) (B2)
 Beta  Orbitals:
       Occupied  (A1) (B2) (A1) (B2) (A1) (A1) (A1) (B2) (A1) (A1)
                 (B2) (B2) (B1) (A1) (A1) (B2) (A2) (B1)
       Virtual   (A2) (A1) (B2) (B1) (A1) (B2) (A1) (A1) (B2) (A1)
                 (B2) (B2) (A1) (B1) (B2) (A2) (A1) (B1) (A1) (B2)
                 (A2) (A1) (B1) (B2) (A1) (B2) (B2) (A1) (A1) (B2)
                 (A1) (A1) (A1) (B2) (B2) (A1) (A1) (A1) (B2)
 The electronic state of the initial guess is 1-A1.
 Initial guess <Sx>= 0.0000 <Sy>= 0.0000 <Sz>= 0.0000 <S**2>=-0.0000 S=-0.0000
 Leave Link  401 at Thu Mar  5 13:02:13 2020, MaxMem=  6710886400 cpu:               3.0 elap:               0.2
 (Enter /opt/ohpc/pub/libs/gaussian/g16-A.03/sandybridge/g16/l502.exe)
 Keep R1 and R2 ints in memory in symmetry-blocked form, NReq=16815681.
 FoFCou: FMM=F IPFlag=           0 FMFlag=           0 FMFlg1=           0
         NFxFlg=           0 DoJE=F BraDBF=F KetDBF=F FulRan=T
         wScrn=  0.000000 ICntrl=       600 IOpCl=  0 I1Cent=           0 NGrid=           0
         NMat0=    1 NMatS0=   1653 NMatT0=    0 NMatD0=    1 NMtDS0=    0 NMtDT0=    0
 Petite list used in FoFCou.
 UHF open shell SCF:
 Using DIIS extrapolation, IDIIS=    10.
 NGot=  6710886400 LenX=  6710059561 LenY=  6710055871
 Requested convergence on RMS density matrix=1.00D-06 within  32 cycles.
 Requested convergence on MAX density matrix=1.00D-04.
 Requested convergence on             energy=1.00D-04.
 Virtual orbitals will be shifted by   0.500 hartree.
 No special actions if energy rises.
 Dynamic level shift is on during FON iterations.

 Cycle   1  Pass 1  IDiag  1:
 E= -179.185908756276    
 DIIS: error= 4.80D-02 at cycle   1 NSaved=   1.
 NSaved= 1 IEnMin= 1 EnMin= -179.185908756276     IErMin= 1 ErrMin= 4.80D-02
 ErrMax= 4.80D-02  0.00D+00 EMaxC= 1.00D+00 BMatC= 4.22D-01 BMatP= 4.22D-01
 IDIUse=1 WtCom= 1.00D+00 WtEn= 0.00D+00
 Coeff-Com:  0.100D+01
 Coeff:      0.100D+01
 Gap=     0.396 Goal=   None    Shift=    0.500
 T= 1778. Gap= 0.870 NK=0 IS=   19 IE=   57 IFin=   18
          NO(<0.9)=   0  NV(>0.1)=   0     18.00e < EF      0.00e >EF  Err=0.0D+00
 Gap=     0.396 Goal=   None    Shift=    0.500
 T= 1778. Gap= 0.870 NK=0 IS=   19 IE=   57 IFin=   18
          NO(<0.9)=   0  NV(>0.1)=   0     18.00e < EF      0.00e >EF  Err=0.0D+00
 GapD=    0.396 DampG=1.000 DampE=0.500 DampFc=0.5000 IDamp=-1.
 Damping current iteration by 5.00D-01
 RMSDP=9.01D-03 MaxDP=6.81D-02              OVMax= 8.34D-02

 Cycle   2  Pass 1  IDiag  1:
 E= -179.256576148416     Delta-E=       -0.070667392140 Rises=F Damp=T
 DIIS: error= 2.15D-02 at cycle   2 NSaved=   2.
 NSaved= 2 IEnMin= 2 EnMin= -179.256576148416     IErMin= 2 ErrMin= 2.15D-02
 ErrMax= 2.15D-02  0.00D+00 EMaxC= 1.00D+00 BMatC= 7.22D-02 BMatP= 4.22D-01
 IDIUse=1 WtCom= 1.00D+00 WtEn= 0.00D+00
 Coeff-Com: -0.636D+00 0.164D+01
 Coeff:     -0.636D+00 0.164D+01
 Gap=     0.413 Goal=   None    Shift=    0.500
 T= 1656. Gap= 0.903 NK=0 IS=   19 IE=   57 IFin=   18
          NO(<0.9)=   0  NV(>0.1)=   0     18.00e < EF      0.00e >EF  Err=0.0D+00
 Gap=     0.413 Goal=   None    Shift=    0.500
 T= 1656. Gap= 0.903 NK=0 IS=   19 IE=   57 IFin=   18
          NO(<0.9)=   0  NV(>0.1)=   0     18.00e < EF      0.00e >EF  Err=0.0D+00
 GapD=    0.413 DampG=2.000 DampE=0.500 DampFc=1.0000 IDamp=-1.
 RMSDP=5.87D-03 MaxDP=4.70D-02 DE=-7.07D-02 OVMax= 8.37D-03

 Cycle   3  Pass 1  IDiag  1:
 E= -179.300761357142     Delta-E=       -0.044185208726 Rises=F Damp=F
 DIIS: error= 3.53D-03 at cycle   3 NSaved=   3.
 NSaved= 3 IEnMin= 3 EnMin= -179.300761357142     IErMin= 3 ErrMin= 3.53D-03
 ErrMax= 3.53D-03  0.00D+00 EMaxC= 1.00D+00 BMatC= 2.78D-03 BMatP= 7.22D-02
 IDIUse=1 WtCom= 1.00D+00 WtEn= 0.00D+00
 Coeff-Com:  0.266D+00-0.484D+00 0.122D+01
 Coeff:      0.266D+00-0.484D+00 0.122D+01
 Gap=     0.402 Goal=   None    Shift=    0.500
 T= 1370. Gap= 0.902 NK=0 IS=   19 IE=   57 IFin=   18
          NO(<0.9)=   0  NV(>0.1)=   0     18.00e < EF      0.00e >EF  Err=0.0D+00
 Gap=     0.402 Goal=   None    Shift=    0.500
 T= 1370. Gap= 0.902 NK=0 IS=   19 IE=   57 IFin=   18
          NO(<0.9)=   0  NV(>0.1)=   0     18.00e < EF      0.00e >EF  Err=0.0D+00
 GapD=    0.402 DampG=2.000 DampE=1.000 DampFc=2.0000 IDamp=-1.
 RMSDP=8.86D-04 MaxDP=7.07D-03 DE=-4.42D-02 OVMax= 5.69D-03

 Cycle   4  Pass 1  IDiag  1:
 E= -179.301533063229     Delta-E=       -0.000771706087 Rises=F Damp=F
 DIIS: error= 1.09D-03 at cycle   4 NSaved=   4.
 NSaved= 4 IEnMin= 4 EnMin= -179.301533063229     IErMin= 4 ErrMin= 1.09D-03
 ErrMax= 1.09D-03  0.00D+00 EMaxC= 1.00D+00 BMatC= 3.90D-04 BMatP= 2.78D-03
 IDIUse=1 WtCom= 1.00D+00 WtEn= 0.00D+00
 Coeff-Com:  0.112D+00-0.233D+00 0.120D-01 0.111D+01
 Coeff:      0.112D+00-0.233D+00 0.120D-01 0.111D+01
 Gap=     0.403 Goal=   None    Shift=    0.500
 T=  753. Gap= 0.903 NK=0 IS=   19 IE=   57 IFin=   18
          NO(<0.9)=   0  NV(>0.1)=   0     18.00e < EF      0.00e >EF  Err=0.0D+00
 Gap=     0.403 Goal=   None    Shift=    0.500
 T=  753. Gap= 0.903 NK=0 IS=   19 IE=   57 IFin=   18
          NO(<0.9)=   0  NV(>0.1)=   0     18.00e < EF      0.00e >EF  Err=0.0D+00
 GapD=    0.403 DampG=2.000 DampE=1.000 DampFc=2.0000 IDamp=-1.
 RMSDP=4.19D-04 MaxDP=3.70D-03 DE=-7.72D-04 OVMax= 2.55D-03

 Cycle   5  Pass 1  IDiag  1:
 E= -179.301676118931     Delta-E=       -0.000143055702 Rises=F Damp=F
 DIIS: error= 7.64D-04 at cycle   5 NSaved=   5.
 NSaved= 5 IEnMin= 5 EnMin= -179.301676118931     IErMin= 5 ErrMin= 7.64D-04
 ErrMax= 7.64D-04  0.00D+00 EMaxC= 1.00D+00 BMatC= 4.82D-05 BMatP= 3.90D-04
 IDIUse=1 WtCom= 1.00D+00 WtEn= 0.00D+00
 Coeff-Com: -0.255D-01 0.436D-01-0.169D+00-0.162D+00 0.131D+01
 Coeff:     -0.255D-01 0.436D-01-0.169D+00-0.162D+00 0.131D+01
 Gap=     0.403 Goal=   None    Shift=    0.500
 Gap=     0.403 Goal=   None    Shift=    0.500
 RMSDP=1.97D-04 MaxDP=2.17D-03 DE=-1.43D-04 OVMax= 2.21D-03

 Cycle   6  Pass 1  IDiag  1:
 E= -179.301708305954     Delta-E=       -0.000032187023 Rises=F Damp=F
 DIIS: error= 4.76D-04 at cycle   6 NSaved=   6.
 NSaved= 6 IEnMin= 6 EnMin= -179.301708305954     IErMin= 6 ErrMin= 4.76D-04
 ErrMax= 4.76D-04  0.00D+00 EMaxC= 1.00D+00 BMatC= 1.15D-05 BMatP= 4.82D-05
 IDIUse=1 WtCom= 1.00D+00 WtEn= 0.00D+00
 Coeff-Com: -0.626D-02 0.131D-01 0.621D-01-0.136D+00-0.103D+01 0.210D+01
 Coeff:     -0.626D-02 0.131D-01 0.621D-01-0.136D+00-0.103D+01 0.210D+01
 Gap=     0.403 Goal=   None    Shift=    0.500
 Gap=     0.403 Goal=   None    Shift=    0.500
 RMSDP=1.14D-04 MaxDP=1.44D-03 DE=-3.22D-05 OVMax= 1.49D-03

 Cycle   7  Pass 1  IDiag  1:
 E= -179.301718737591     Delta-E=       -0.000010431637 Rises=F Damp=F
 DIIS: error= 3.10D-04 at cycle   7 NSaved=   7.
 NSaved= 7 IEnMin= 7 EnMin= -179.301718737591     IErMin= 7 ErrMin= 3.10D-04
 ErrMax= 3.10D-04  0.00D+00 EMaxC= 1.00D+00 BMatC= 2.99D-06 BMatP= 1.15D-05
 IDIUse=1 WtCom= 1.00D+00 WtEn= 0.00D+00
 Coeff-Com:  0.640D-02-0.133D-01-0.426D-03 0.111D+00-0.160D-01-0.137D+01
 Coeff-Com:  0.228D+01
 Coeff:      0.640D-02-0.133D-01-0.426D-03 0.111D+00-0.160D-01-0.137D+01
 Coeff:      0.228D+01
 Gap=     0.403 Goal=   None    Shift=    0.500
 Gap=     0.403 Goal=   None    Shift=    0.500
 RMSDP=5.44D-05 MaxDP=6.61D-04 DE=-1.04D-05 OVMax= 9.39D-04

 Cycle   8  Pass 1  IDiag  1:
 E= -179.301721775503     Delta-E=       -0.000003037912 Rises=F Damp=F
 DIIS: error= 1.82D-04 at cycle   8 NSaved=   8.
 NSaved= 8 IEnMin= 8 EnMin= -179.301721775503     IErMin= 8 ErrMin= 1.82D-04
 ErrMax= 1.82D-04  0.00D+00 EMaxC= 1.00D+00 BMatC= 8.27D-07 BMatP= 2.99D-06
 IDIUse=1 WtCom= 1.00D+00 WtEn= 0.00D+00
 Coeff-Com:  0.215D-04-0.675D-03-0.110D-01 0.410D-01 0.762D-01-0.136D+00
 Coeff-Com: -0.120D+01 0.223D+01
 Coeff:      0.215D-04-0.675D-03-0.110D-01 0.410D-01 0.762D-01-0.136D+00
 Coeff:     -0.120D+01 0.223D+01
 Gap=     0.403 Goal=   None    Shift=    0.500
 Gap=     0.403 Goal=   None    Shift=    0.500
 RMSDP=2.55D-05 MaxDP=2.87D-04 DE=-3.04D-06 OVMax= 5.28D-04

 Cycle   9  Pass 1  IDiag  1:
 E= -179.301722612369     Delta-E=       -0.000000836866 Rises=F Damp=F
 DIIS: error= 1.12D-04 at cycle   9 NSaved=   9.
 NSaved= 9 IEnMin= 9 EnMin= -179.301722612369     IErMin= 9 ErrMin= 1.12D-04
 ErrMax= 1.12D-04  0.00D+00 EMaxC= 1.00D+00 BMatC= 2.83D-07 BMatP= 8.27D-07
 IDIUse=1 WtCom= 1.00D+00 WtEn= 0.00D+00
 Coeff-Com: -0.191D-02 0.339D-02-0.868D-02 0.616D-02 0.354D-01 0.317D+00
 Coeff-Com: -0.147D+01 0.969D+00 0.115D+01
 Coeff:     -0.191D-02 0.339D-02-0.868D-02 0.616D-02 0.354D-01 0.317D+00
 Coeff:     -0.147D+01 0.969D+00 0.115D+01
 Gap=     0.403 Goal=   None    Shift=    0.500
 Gap=     0.403 Goal=   None    Shift=    0.500
 RMSDP=1.20D-05 MaxDP=1.22D-04 DE=-8.37D-07 OVMax= 3.01D-04

 Cycle  10  Pass 1  IDiag  1:
 E= -179.301722856705     Delta-E=       -0.000000244336 Rises=F Damp=F
 DIIS: error= 6.32D-05 at cycle  10 NSaved=  10.
 NSaved=10 IEnMin=10 EnMin= -179.301722856705     IErMin=10 ErrMin= 6.32D-05
 ErrMax= 6.32D-05  0.00D+00 EMaxC= 1.00D+00 BMatC= 8.93D-08 BMatP= 2.83D-07
 IDIUse=1 WtCom= 1.00D+00 WtEn= 0.00D+00
 Coeff-Com: -0.543D-05-0.259D-05 0.464D-03 0.276D-02-0.333D-01 0.500D-01
 Coeff-Com:  0.185D+00-0.338D+00-0.130D+01 0.243D+01
 Coeff:     -0.543D-05-0.259D-05 0.464D-03 0.276D-02-0.333D-01 0.500D-01
 Coeff:      0.185D+00-0.338D+00-0.130D+01 0.243D+01
 Gap=     0.403 Goal=   None    Shift=    0.500
 Gap=     0.403 Goal=   None    Shift=    0.500
 RMSDP=5.89D-06 MaxDP=5.80D-05 DE=-2.44D-07 OVMax= 1.66D-04

 Cycle  11  Pass 1  IDiag  1:
 E= -179.301722926527     Delta-E=       -0.000000069822 Rises=F Damp=F
 DIIS: error= 3.58D-05 at cycle  11 NSaved=  11.
 NSaved=11 IEnMin=11 EnMin= -179.301722926527     IErMin=11 ErrMin= 3.58D-05
 ErrMax= 3.58D-05  0.00D+00 EMaxC= 1.00D+00 BMatC= 3.00D-08 BMatP= 8.93D-08
 IDIUse=1 WtCom= 1.00D+00 WtEn= 0.00D+00
 Coeff-Com:  0.156D-03-0.329D-03-0.622D-03 0.466D-02-0.405D-03-0.307D-01
 Coeff-Com:  0.583D-01 0.103D+00-0.255D+00-0.120D+01 0.232D+01
 Coeff:      0.156D-03-0.329D-03-0.622D-03 0.466D-02-0.405D-03-0.307D-01
 Coeff:      0.583D-01 0.103D+00-0.255D+00-0.120D+01 0.232D+01
 Gap=     0.403 Goal=   None    Shift=    0.500
 Gap=     0.403 Goal=   None    Shift=    0.500
 RMSDP=2.87D-06 MaxDP=3.26D-05 DE=-6.98D-08 OVMax= 9.06D-05

 Cycle  12  Pass 1  IDiag  1:
 E= -179.301722946915     Delta-E=       -0.000000020387 Rises=F Damp=F
 DIIS: error= 1.98D-05 at cycle  12 NSaved=  12.
 NSaved=12 IEnMin=12 EnMin= -179.301722946915     IErMin=12 ErrMin= 1.98D-05
 ErrMax= 1.98D-05  0.00D+00 EMaxC= 1.00D+00 BMatC= 9.41D-09 BMatP= 3.00D-08
 IDIUse=1 WtCom= 1.00D+00 WtEn= 0.00D+00
 Coeff-Com: -0.227D-04 0.366D-04-0.799D-05 0.801D-04 0.411D-03 0.568D-02
 Coeff-Com: -0.350D-01 0.648D-01-0.218D-01 0.284D+00-0.203D+01 0.273D+01
 Coeff:     -0.227D-04 0.366D-04-0.799D-05 0.801D-04 0.411D-03 0.568D-02
 Coeff:     -0.350D-01 0.648D-01-0.218D-01 0.284D+00-0.203D+01 0.273D+01
 Gap=     0.403 Goal=   None    Shift=    0.500
 Gap=     0.403 Goal=   None    Shift=    0.500
 RMSDP=1.42D-06 MaxDP=1.77D-05 DE=-2.04D-08 OVMax= 4.83D-05

 Cycle  13  Pass 1  IDiag  1:
 E= -179.301722952697     Delta-E=       -0.000000005783 Rises=F Damp=F
 DIIS: error= 1.08D-05 at cycle  13 NSaved=  13.
 NSaved=13 IEnMin=13 EnMin= -179.301722952697     IErMin=13 ErrMin= 1.08D-05
 ErrMax= 1.08D-05  0.00D+00 EMaxC= 1.00D+00 BMatC= 2.94D-09 BMatP= 9.41D-09
 IDIUse=1 WtCom= 1.00D+00 WtEn= 0.00D+00
 Coeff-Com: -0.308D-04 0.614D-04 0.227D-04-0.340D-03-0.230D-02 0.119D-01
 Coeff-Com: -0.113D-01-0.116D-01-0.446D-01 0.332D+00-0.268D+00-0.170D+01
 Coeff-Com:  0.269D+01
 Coeff:     -0.308D-04 0.614D-04 0.227D-04-0.340D-03-0.230D-02 0.119D-01
 Coeff:     -0.113D-01-0.116D-01-0.446D-01 0.332D+00-0.268D+00-0.170D+01
 Coeff:      0.269D+01
 Gap=     0.403 Goal=   None    Shift=    0.500
 Gap=     0.403 Goal=   None    Shift=    0.500
 RMSDP=7.14D-07 MaxDP=9.49D-06 DE=-5.78D-09 OVMax= 2.58D-05

 SCF Done:  E(ULC-wHPBE) =  -179.301722953     A.U. after   13 cycles
            NFock= 13  Conv=0.71D-06     -V/T= 1.9644
 <Sx>= 0.0000 <Sy>= 0.0000 <Sz>= 0.0000 <S**2>=-0.0000 S=-0.0000
 <L.S>= 0.000000000000E+00
 KE= 1.859295562208D+02 PE=-7.474286699982D+02 EE= 2.261846483387D+02
 Annihilation of the first spin contaminant:
 S**2 before annihilation    -0.0000,   after     0.0000
 Leave Link  502 at Thu Mar  5 13:02:15 2020, MaxMem=  6710886400 cpu:              21.2 elap:               1.4
 (Enter /opt/ohpc/pub/libs/gaussian/g16-A.03/sandybridge/g16/l508.exe)
 QCSCF skips out because SCF is already converged.
 Leave Link  508 at Thu Mar  5 13:02:15 2020, MaxMem=  6710886400 cpu:               0.1 elap:               0.0
 (Enter /opt/ohpc/pub/libs/gaussian/g16-A.03/sandybridge/g16/l601.exe)
 Copying SCF densities to generalized density rwf, IOpCl= 1 IROHF=0.

 **********************************************************************

            Population analysis using the SCF density.

 **********************************************************************

 Orbital symmetries:
 Alpha Orbitals:
       Occupied  (B2) (A1) (A1) (B2) (A1) (A1) (A1) (B2) (A1) (B2)
                 (A1) (B2) (B1) (A1) (A1) (B2) (A2) (B1)
       Virtual   (A2) (B2) (A1) (A1) (B1) (B2) (A1) (B2) (A1) (A1)
                 (B2) (B2) (A1) (B2) (B1) (A2) (A1) (B1) (A1) (A2)
                 (B2) (A1) (B1) (B2) (A1) (B2) (B2) (A1) (A1) (A1)
                 (B2) (A1) (A1) (B2) (B2) (A1) (A1) (A1) (B2)
 Beta  Orbitals:
       Occupied  (B2) (A1) (A1) (B2) (A1) (A1) (A1) (B2) (A1) (B2)
                 (A1) (B2) (B1) (A1) (A1) (B2) (A2) (B1)
       Virtual   (A2) (B2) (A1) (A1) (B1) (B2) (A1) (B2) (A1) (A1)
                 (B2) (B2) (A1) (B2) (B1) (A2) (A1) (B1) (A1) (A2)
                 (B2) (A1) (B1) (B2) (A1) (B2) (B2) (A1) (A1) (A1)
                 (B2) (A1) (A1) (B2) (B2) (A1) (A1) (A1) (B2)
 The electronic state is 1-A1.
 Alpha  occ. eigenvalues --   -8.69151  -8.69120  -8.64120  -8.64097  -8.61428
 Alpha  occ. eigenvalues --   -0.99076  -0.85197  -0.80866  -0.67789  -0.65673
 Alpha  occ. eigenvalues --   -0.65036  -0.52144  -0.51666  -0.51019  -0.47764
 Alpha  occ. eigenvalues --   -0.46514  -0.35782  -0.32116
 Alpha virt. eigenvalues --    0.08150   0.10815   0.11486   0.13807   0.15113
 Alpha virt. eigenvalues --    0.19166   0.20634   0.23269   0.24367   0.35857
 Alpha virt. eigenvalues --    0.38992   0.49452   0.50840   0.60547   0.62058
 Alpha virt. eigenvalues --    0.68068   0.68782   0.69830   0.72768   0.75644
 Alpha virt. eigenvalues --    0.76672   0.78316   0.78719   0.88133   0.94902
 Alpha virt. eigenvalues --    0.95496   1.01006   1.01422   1.02705   1.08773
 Alpha virt. eigenvalues --    1.08987   1.13283   1.16184   1.20134   1.28370
 Alpha virt. eigenvalues --    1.29116   1.37313   1.57675   1.58288
  Beta  occ. eigenvalues --   -8.69151  -8.69120  -8.64120  -8.64097  -8.61428
  Beta  occ. eigenvalues --   -0.99076  -0.85197  -0.80866  -0.67789  -0.65673
  Beta  occ. eigenvalues --   -0.65036  -0.52144  -0.51666  -0.51019  -0.47764
  Beta  occ. eigenvalues --   -0.46514  -0.35782  -0.32116
  Beta virt. eigenvalues --    0.08150   0.10815   0.11486   0.13807   0.15113
  Beta virt. eigenvalues --    0.19166   0.20634   0.23269   0.24367   0.35857
  Beta virt. eigenvalues --    0.38992   0.49452   0.50840   0.60547   0.62058
  Beta virt. eigenvalues --    0.68068   0.68782   0.69830   0.72768   0.75644
  Beta virt. eigenvalues --    0.76672   0.78316   0.78719   0.88133   0.94902
  Beta virt. eigenvalues --    0.95496   1.01006   1.01422   1.02705   1.08773
  Beta virt. eigenvalues --    1.08987   1.13283   1.16184   1.20134   1.28370
  Beta virt. eigenvalues --    1.29116   1.37313   1.57675   1.58288
          Condensed to atoms (all electrons):
               1          2          3          4          5          6
     1  C    5.325079   0.493230  -0.064964  -0.187583   0.337196   0.178557
     2  C    0.493230   4.800590   0.614261  -0.014855  -0.187583  -0.020732
     3  C   -0.064964   0.614261   4.585458   0.614261  -0.064964   0.006460
     4  C   -0.187583  -0.014855   0.614261   4.800590   0.493230  -0.020732
     5  C    0.337196  -0.187583  -0.064964   0.493230   5.325079   0.178557
     6  H    0.178557  -0.020732   0.006460  -0.020732   0.178557   0.390645
     7  H    0.352725   0.011468   0.000923   0.005710  -0.036276  -0.002696
     8  H   -0.035252   0.364274  -0.008818   0.007229   0.003317   0.001627
     9  H    0.010300  -0.041286   0.382798  -0.041286   0.010300  -0.000270
    10  H    0.003317   0.007229  -0.008818   0.364274  -0.035252   0.001627
    11  H   -0.036276   0.005710   0.000923   0.011468   0.352725  -0.002696
               7          8          9         10         11
     1  C    0.352725  -0.035252   0.010300   0.003317  -0.036276
     2  C    0.011468   0.364274  -0.041286   0.007229   0.005710
     3  C    0.000923  -0.008818   0.382798  -0.008818   0.000923
     4  C    0.005710   0.007229  -0.041286   0.364274   0.011468
     5  C   -0.036276   0.003317   0.010300  -0.035252   0.352725
     6  H   -0.002696   0.001627  -0.000270   0.001627  -0.002696
     7  H    0.513486  -0.003736  -0.000136  -0.000070   0.001203
     8  H   -0.003736   0.574731  -0.005671  -0.000259  -0.000070
     9  H   -0.000136  -0.005671   0.625973  -0.005671  -0.000136
    10  H   -0.000070  -0.000259  -0.005671   0.574731  -0.003736
    11  H    0.001203  -0.000070  -0.000136  -0.003736   0.513486
          Atomic-Atomic Spin Densities.
               1          2          3          4          5          6
     1  C   -0.000000   0.000000   0.000000   0.000000  -0.000000  -0.000000
     2  C    0.000000  -0.000000  -0.000000   0.000000   0.000000   0.000000
     3  C    0.000000  -0.000000  -0.000000  -0.000000   0.000000   0.000000
     4  C    0.000000   0.000000  -0.000000  -0.000000   0.000000   0.000000
     5  C   -0.000000   0.000000   0.000000   0.000000  -0.000000  -0.000000
     6  H   -0.000000   0.000000   0.000000   0.000000  -0.000000   0.000000
     7  H   -0.000000   0.000000  -0.000000  -0.000000  -0.000000   0.000000
     8  H   -0.000000   0.000000  -0.000000  -0.000000   0.000000   0.000000
     9  H   -0.000000   0.000000  -0.000000   0.000000  -0.000000  -0.000000
    10  H    0.000000  -0.000000  -0.000000   0.000000  -0.000000   0.000000
    11  H   -0.000000  -0.000000  -0.000000   0.000000  -0.000000   0.000000
               7          8          9         10         11
     1  C   -0.000000  -0.000000  -0.000000   0.000000  -0.000000
     2  C    0.000000   0.000000   0.000000  -0.000000  -0.000000
     3  C   -0.000000  -0.000000  -0.000000  -0.000000  -0.000000
     4  C   -0.000000  -0.000000   0.000000   0.000000   0.000000
     5  C   -0.000000   0.000000  -0.000000  -0.000000  -0.000000
     6  H    0.000000   0.000000  -0.000000   0.000000   0.000000
     7  H    0.000000  -0.000000  -0.000000   0.000000   0.000000
     8  H   -0.000000   0.000000   0.000000   0.000000   0.000000
     9  H   -0.000000   0.000000   0.000000   0.000000  -0.000000
    10  H    0.000000   0.000000   0.000000   0.000000  -0.000000
    11  H    0.000000   0.000000  -0.000000  -0.000000   0.000000
 Mulliken charges and spin densities:
               1          2
     1  C   -0.376329  -0.000000
     2  C   -0.032306   0.000000
     3  C   -0.057519  -0.000000
     4  C   -0.032306   0.000000
     5  C   -0.376329  -0.000000
     6  H    0.289654  -0.000000
     7  H    0.157398   0.000000
     8  H    0.102628   0.000000
     9  H    0.065084   0.000000
    10  H    0.102628   0.000000
    11  H    0.157398   0.000000
 Sum of Mulliken charges =  -0.00000  -0.00000
 Mulliken charges and spin densities with hydrogens summed into heavy atoms:
               1          2
     1  C    0.070723  -0.000000
     2  C    0.070322   0.000000
     3  C    0.007564  -0.000000
     4  C    0.070322   0.000000
     5  C   -0.218931  -0.000000
 Electronic spatial extent (au):  <R**2>=            353.9296
 Charge=              0.0000 electrons
 Dipole moment (field-independent basis, Debye):
    X=             -0.0000    Y=             -0.0000    Z=             -2.2411  Tot=              2.2411
 Quadrupole moment (field-independent basis, Debye-Ang):
   XX=            -41.4184   YY=            -35.0419   ZZ=            -32.6579
   XY=              0.0000   XZ=              0.0000   YZ=             -0.0000
 Traceless Quadrupole moment (field-independent basis, Debye-Ang):
   XX=             -5.0457   YY=              1.3308   ZZ=              3.7149
   XY=              0.0000   XZ=              0.0000   YZ=             -0.0000
 Octapole moment (field-independent basis, Debye-Ang**2):
  XXX=              0.0000  YYY=              0.0000  ZZZ=            -10.5539  XYY=              0.0000
  XXY=              0.0000  XXZ=              0.7933  XZZ=              0.0000  YZZ=              0.0000
  YYZ=             -1.4259  XYZ=             -0.0000
 Hexadecapole moment (field-independent basis, Debye-Ang**3):
 XXXX=            -50.2372 YYYY=           -260.1670 ZZZZ=           -243.1303 XXXY=             -0.0000
 XXXZ=             -0.0000 YYYX=             -0.0000 YYYZ=              0.0000 ZZZX=             -0.0000
 ZZZY=              0.0000 XXYY=            -58.9045 XXZZ=            -57.3450 YYZZ=            -83.4415
 XXYZ=              0.0000 YYXZ=             -0.0000 ZZXY=             -0.0000
 N-N= 1.560127424860D+02 E-N=-7.474286719807D+02  KE= 1.859295562208D+02
 Symmetry A1   KE= 1.074836882622D+02
 Symmetry A2   KE= 2.046000751373D+00
 Symmetry B1   KE= 3.521439440176D+00
 Symmetry B2   KE= 7.287842776703D+01
 Symmetry A1   SP=-5.488833257756D-15
 Symmetry A2   SP=-1.836424556400D-15
 Symmetry B1   SP= 7.982443206538D-15
 Symmetry B2   SP=-1.724206139385D-15
                          Isotropic Fermi Contact Couplings
        Atom                 a.u.       MegaHertz       Gauss      10(-4) cm-1
     1  C(13)             -0.00000      -0.00000      -0.00000      -0.00000
     2  C(13)              0.00000       0.00000       0.00000       0.00000
     3  C(13)             -0.00000      -0.00000      -0.00000      -0.00000
     4  C(13)              0.00000       0.00000       0.00000       0.00000
     5  C(13)             -0.00000      -0.00000      -0.00000      -0.00000
     6  H(1)              -0.00000      -0.00000      -0.00000      -0.00000
     7  H(1)               0.00000       0.00000       0.00000       0.00000
     8  H(1)               0.00000       0.00000       0.00000       0.00000
     9  H(1)              -0.00000      -0.00000      -0.00000      -0.00000
    10  H(1)               0.00000       0.00000       0.00000       0.00000
    11  H(1)               0.00000       0.00000       0.00000       0.00000
 --------------------------------------------------------
       Center         ----  Spin Dipole Couplings  ----
                      3XX-RR        3YY-RR        3ZZ-RR
 --------------------------------------------------------
     1   Atom        0.000000      0.000000      0.000000
     2   Atom        0.000000      0.000000      0.000000
     3   Atom        0.000000      0.000000      0.000000
     4   Atom        0.000000      0.000000      0.000000
     5   Atom        0.000000      0.000000      0.000000
     6   Atom        0.000000      0.000000      0.000000
     7   Atom        0.000000      0.000000      0.000000
     8   Atom        0.000000      0.000000      0.000000
     9   Atom        0.000000      0.000000      0.000000
    10   Atom        0.000000      0.000000      0.000000
    11   Atom        0.000000      0.000000      0.000000
 --------------------------------------------------------
                        XY            XZ            YZ
 --------------------------------------------------------
     1   Atom        0.000000      0.000000      0.000000
     2   Atom        0.000000      0.000000      0.000000
     3   Atom        0.000000      0.000000      0.000000
     4   Atom        0.000000      0.000000      0.000000
     5   Atom        0.000000      0.000000      0.000000
     6   Atom        0.000000      0.000000      0.000000
     7   Atom        0.000000      0.000000      0.000000
     8   Atom        0.000000      0.000000      0.000000
     9   Atom        0.000000      0.000000      0.000000
    10   Atom        0.000000      0.000000      0.000000
    11   Atom        0.000000      0.000000      0.000000
 --------------------------------------------------------


 ---------------------------------------------------------------------------------
              Anisotropic Spin Dipole Couplings in Principal Axis System
 ---------------------------------------------------------------------------------

       Atom             a.u.   MegaHertz   Gauss  10(-4) cm-1        Axes

              Baa     0.0000     0.000     0.000     0.000  1.0000  0.0000  0.0000
     1 C(13)  Bbb     0.0000     0.000     0.000     0.000 -0.0000  1.0000  0.0000
              Bcc     0.0000     0.000     0.000     0.000  0.0000  0.0000  1.0000
 
              Baa     0.0000     0.000     0.000     0.000  1.0000  0.0000  0.0000
     2 C(13)  Bbb     0.0000     0.000     0.000     0.000 -0.0000  1.0000  0.0000
              Bcc     0.0000     0.000     0.000     0.000  0.0000  0.0000  1.0000
 
              Baa     0.0000     0.000     0.000     0.000  1.0000  0.0000  0.0000
     3 C(13)  Bbb     0.0000     0.000     0.000     0.000 -0.0000  1.0000  0.0000
              Bcc     0.0000     0.000     0.000     0.000  0.0000  0.0000  1.0000
 
              Baa     0.0000     0.000     0.000     0.000  1.0000  0.0000  0.0000
     4 C(13)  Bbb     0.0000     0.000     0.000     0.000 -0.0000  1.0000  0.0000
              Bcc     0.0000     0.000     0.000     0.000  0.0000  0.0000  1.0000
 
              Baa     0.0000     0.000     0.000     0.000  1.0000  0.0000  0.0000
     5 C(13)  Bbb     0.0000     0.000     0.000     0.000 -0.0000  1.0000  0.0000
              Bcc     0.0000     0.000     0.000     0.000  0.0000  0.0000  1.0000
 
              Baa     0.0000     0.000     0.000     0.000  1.0000  0.0000  0.0000
     6 H(1)   Bbb     0.0000     0.000     0.000     0.000 -0.0000  1.0000  0.0000
              Bcc     0.0000     0.000     0.000     0.000  0.0000  0.0000  1.0000
 
              Baa     0.0000     0.000     0.000     0.000  1.0000  0.0000  0.0000
     7 H(1)   Bbb     0.0000     0.000     0.000     0.000 -0.0000  1.0000  0.0000
              Bcc     0.0000     0.000     0.000     0.000  0.0000  0.0000  1.0000
 
              Baa     0.0000     0.000     0.000     0.000  1.0000  0.0000  0.0000
     8 H(1)   Bbb     0.0000     0.000     0.000     0.000 -0.0000  1.0000  0.0000
              Bcc     0.0000     0.000     0.000     0.000  0.0000  0.0000  1.0000
 
              Baa     0.0000     0.000     0.000     0.000  1.0000  0.0000  0.0000
     9 H(1)   Bbb     0.0000     0.000     0.000     0.000 -0.0000  1.0000  0.0000
              Bcc     0.0000     0.000     0.000     0.000  0.0000  0.0000  1.0000
 
              Baa     0.0000     0.000     0.000     0.000  1.0000  0.0000  0.0000
    10 H(1)   Bbb     0.0000     0.000     0.000     0.000 -0.0000  1.0000  0.0000
              Bcc     0.0000     0.000     0.000     0.000  0.0000  0.0000  1.0000
 
              Baa     0.0000     0.000     0.000     0.000  1.0000  0.0000  0.0000
    11 H(1)   Bbb     0.0000     0.000     0.000     0.000 -0.0000  1.0000  0.0000
              Bcc     0.0000     0.000     0.000     0.000  0.0000  0.0000  1.0000
 

 ---------------------------------------------------------------------------------

 No NMR shielding tensors so no spin-rotation constants.
 Leave Link  601 at Thu Mar  5 13:02:15 2020, MaxMem=  6710886400 cpu:               1.9 elap:               0.1
 (Enter /opt/ohpc/pub/libs/gaussian/g16-A.03/sandybridge/g16/l9999.exe)

 Test job not archived.
 1\1\GINC-CNODE212\SP\ULC-wHPBE\6-31G\C5H6\SMGO234\05-Mar-2020\0\\#P uL
 C-wHPBE/6-31G iop(3/130=0066200000, 3/131=0066200000, 3/119=0933800000
 , 3/120=0933800000) scf=(conver=6,fermi,ndamp=35,noincfock,novaracc,vs
 hift=500,xqc)\\H6 C5\\0,1\C,0,0.,0.878804,-0.931542\C,0,0.,1.128157,0.
 423457\C,0,0.,0.,1.240879\C,0,0.,-1.128157,0.423457\C,0,0.,-0.878804,-
 0.931542\H,0,0.,0.,-1.732269\H,0,0.,1.6083,-1.734053\H,0,0.,2.156626,0
 .76567\H,0,0.,0.,2.320778\H,0,0.,-2.156626,0.76567\H,0,0.,-1.6083,-1.7
 34053\\Version=EM64L-G16RevA.03\State=1-A1\HF=-179.301723\S2=0.\S2-1=0
 .\S2A=0.\RMSD=7.139e-07\Dipole=0.,0.,-0.8817282\Quadrupole=-3.7513452,
 0.9894416,2.7619035,0.,0.,0.\PG=C02V [C2(H1C1H1),SGV(C4H4)]\\@


 HO!  SUCH BUGS AND GOBLINS IN MY LIFE!

                            -- HAMLET, ACT 5, SCENE 2
 Job cpu time:       0 days  0 hours  0 minutes 49.7 seconds.
 Elapsed time:       0 days  0 hours  0 minutes  3.4 seconds.
 File lengths (MBytes):  RWF=    272 Int=      0 D2E=      0 Chk=     32 Scr=     32
 Normal termination of Gaussian 16 at Thu Mar  5 13:02:15 2020.
