 Entering Gaussian System, Link 0=g16
 Input=a1b_tune_c3.gjf
 Output=a1b_tune_c3.log
 Initial command:
 /opt/ohpc/pub/libs/gaussian/g16-A.03/sandybridge/g16/l1.exe "/scratch/smgo234/Ocelot/test/a1b/tuning_a1b_acycle3/Gau-89640.inp" -scrdir="/scratch/smgo234/Ocelot/test/a1b/tuning_a1b_acycle3/"
 Entering Link 1 = /opt/ohpc/pub/libs/gaussian/g16-A.03/sandybridge/g16/l1.exe PID=     89641.
  
 Copyright (c) 1988,1990,1992,1993,1995,1998,2003,2009,2016,
            Gaussian, Inc.  All Rights Reserved.
  
 This is part of the Gaussian(R) 16 program.  It is based on
 the Gaussian(R) 09 system (copyright 2009, Gaussian, Inc.),
 the Gaussian(R) 03 system (copyright 2003, Gaussian, Inc.),
 the Gaussian(R) 98 system (copyright 1998, Gaussian, Inc.),
 the Gaussian(R) 94 system (copyright 1995, Gaussian, Inc.),
 the Gaussian 92(TM) system (copyright 1992, Gaussian, Inc.),
 the Gaussian 90(TM) system (copyright 1990, Gaussian, Inc.),
 the Gaussian 88(TM) system (copyright 1988, Gaussian, Inc.),
 the Gaussian 86(TM) system (copyright 1986, Carnegie Mellon
 University), and the Gaussian 82(TM) system (copyright 1983,
 Carnegie Mellon University). Gaussian is a federally registered
 trademark of Gaussian, Inc.
  
 This software contains proprietary and confidential information,
 including trade secrets, belonging to Gaussian, Inc.
  
 This software is provided under written license and may be
 used, copied, transmitted, or stored only in accord with that
 written license.
  
 The following legend is applicable only to US Government
 contracts under FAR:
  
                    RESTRICTED RIGHTS LEGEND
  
 Use, reproduction and disclosure by the US Government is
 subject to restrictions as set forth in subparagraphs (a)
 and (c) of the Commercial Computer Software - Restricted
 Rights clause in FAR 52.227-19.
  
 Gaussian, Inc.
 340 Quinnipiac St., Bldg. 40, Wallingford CT 06492
  
  
 ---------------------------------------------------------------
 Warning -- This program may not be used in any manner that
 competes with the business of Gaussian, Inc. or will provide
 assistance to any competitor of Gaussian, Inc.  The licensee
 of this program is prohibited from giving any competitor of
 Gaussian, Inc. access to this program.  By using this program,
 the user acknowledges that Gaussian, Inc. is engaged in the
 business of creating and licensing software in the field of
 computational chemistry and represents and warrants to the
 licensee that it is not a competitor of Gaussian, Inc. and that
 it will not use this program in any manner prohibited above.
 ---------------------------------------------------------------
  

 Cite this work as:
 Gaussian 16, Revision A.03,
 M. J. Frisch, G. W. Trucks, H. B. Schlegel, G. E. Scuseria, 
 M. A. Robb, J. R. Cheeseman, G. Scalmani, V. Barone, 
 G. A. Petersson, H. Nakatsuji, X. Li, M. Caricato, A. V. Marenich, 
 J. Bloino, B. G. Janesko, R. Gomperts, B. Mennucci, H. P. Hratchian, 
 J. V. Ortiz, A. F. Izmaylov, J. L. Sonnenberg, D. Williams-Young, 
 F. Ding, F. Lipparini, F. Egidi, J. Goings, B. Peng, A. Petrone, 
 T. Henderson, D. Ranasinghe, V. G. Zakrzewski, J. Gao, N. Rega, 
 G. Zheng, W. Liang, M. Hada, M. Ehara, K. Toyota, R. Fukuda, 
 J. Hasegawa, M. Ishida, T. Nakajima, Y. Honda, O. Kitao, H. Nakai, 
 T. Vreven, K. Throssell, J. A. Montgomery, Jr., J. E. Peralta, 
 F. Ogliaro, M. J. Bearpark, J. J. Heyd, E. N. Brothers, K. N. Kudin, 
 V. N. Staroverov, T. A. Keith, R. Kobayashi, J. Normand, 
 K. Raghavachari, A. P. Rendell, J. C. Burant, S. S. Iyengar, 
 J. Tomasi, M. Cossi, J. M. Millam, M. Klene, C. Adamo, R. Cammi, 
 J. W. Ochterski, R. L. Martin, K. Morokuma, O. Farkas, 
 J. B. Foresman, and D. J. Fox, Gaussian, Inc., Wallingford CT, 2016.
 
 ******************************************
 Gaussian 16:  EM64L-G16RevA.03 25-Dec-2016
                 5-Mar-2020 
 ******************************************
 %mem=50GB
 %nproc=16
 Will use up to   16 processors via shared memory.
 ----------------------------------------------------------------------
 #P uLC-wHPBE/6-31G iop(3/130=0130300000, 3/131=0130300000, 3/119=08697
 00000, 3/120=0869700000) scf=(conver=6,fermi,ndamp=35,noincfock,novara
 cc,vshift=500,xqc)
 ----------------------------------------------------------------------
 1/38=1,172=1/1;
 2/12=2,17=6,18=5,40=1/2;
 3/5=1,6=6,11=2,25=1,30=1,74=-71,116=2,119=869700000,120=869700000,130=130300000,131=130300000/1,2,3;
 4//1;
 5/5=100002,6=6,8=3,10=500,13=1,18=-1,22=13,38=1,93=35/2,8;
 6/7=2,8=2,9=2,10=2,28=1/1;
 99/5=1,9=1/99;
 Leave Link    1 at Thu Mar  5 13:02:41 2020, MaxMem=  6710886400 cpu:              13.9 elap:               0.9
 (Enter /opt/ohpc/pub/libs/gaussian/g16-A.03/sandybridge/g16/l101.exe)
 -----
 H6 C5
 -----
 Symbolic Z-matrix:
 Charge =  1 Multiplicity = 2
 C                     0.        0.8788   -0.93154 
 C                     0.        1.12816   0.42346 
 C                     0.        0.        1.24088 
 C                     0.       -1.12816   0.42346 
 C                     0.       -0.8788   -0.93154 
 H                     0.        0.       -1.73227 
 H                     0.        1.6083   -1.73405 
 H                     0.        2.15663   0.76567 
 H                     0.        0.        2.32078 
 H                     0.       -2.15663   0.76567 
 H                     0.       -1.6083   -1.73405 
 
 ITRead=  0  0  0  0  0  0  0  0  0  0  0
 MicOpt= -1 -1 -1 -1 -1 -1 -1 -1 -1 -1 -1
 NAtoms=     11 NQM=       11 NQMF=       0 NMMI=      0 NMMIF=      0
                NMic=       0 NMicF=      0.
                    Isotopes and Nuclear Properties:
 (Nuclear quadrupole moments (NQMom) in fm**2, nuclear magnetic moments (NMagM)
  in nuclear magnetons)

  Atom         1           2           3           4           5           6           7           8           9          10
 IAtWgt=          12          12          12          12          12           1           1           1           1           1
 AtmWgt=  12.0000000  12.0000000  12.0000000  12.0000000  12.0000000   1.0078250   1.0078250   1.0078250   1.0078250   1.0078250
 NucSpn=           0           0           0           0           0           1           1           1           1           1
 AtZEff=  -0.0000000  -0.0000000  -0.0000000  -0.0000000  -0.0000000  -0.0000000  -0.0000000  -0.0000000  -0.0000000  -0.0000000
 NQMom=    0.0000000   0.0000000   0.0000000   0.0000000   0.0000000   0.0000000   0.0000000   0.0000000   0.0000000   0.0000000
 NMagM=    0.0000000   0.0000000   0.0000000   0.0000000   0.0000000   2.7928460   2.7928460   2.7928460   2.7928460   2.7928460
 AtZNuc=   6.0000000   6.0000000   6.0000000   6.0000000   6.0000000   1.0000000   1.0000000   1.0000000   1.0000000   1.0000000

  Atom        11
 IAtWgt=           1
 AtmWgt=   1.0078250
 NucSpn=           1
 AtZEff=  -0.0000000
 NQMom=    0.0000000
 NMagM=    2.7928460
 AtZNuc=   1.0000000
 Leave Link  101 at Thu Mar  5 13:02:42 2020, MaxMem=  6710886400 cpu:               3.0 elap:               0.2
 (Enter /opt/ohpc/pub/libs/gaussian/g16-A.03/sandybridge/g16/l202.exe)
                          Input orientation:                          
 ---------------------------------------------------------------------
 Center     Atomic      Atomic             Coordinates (Angstroms)
 Number     Number       Type             X           Y           Z
 ---------------------------------------------------------------------
      1          6           0        0.000000    0.878804   -0.931542
      2          6           0        0.000000    1.128157    0.423457
      3          6           0        0.000000    0.000000    1.240879
      4          6           0        0.000000   -1.128157    0.423457
      5          6           0        0.000000   -0.878804   -0.931542
      6          1           0        0.000000    0.000000   -1.732269
      7          1           0        0.000000    1.608300   -1.734053
      8          1           0        0.000000    2.156626    0.765670
      9          1           0        0.000000    0.000000    2.320778
     10          1           0        0.000000   -2.156626    0.765670
     11          1           0        0.000000   -1.608300   -1.734053
 ---------------------------------------------------------------------
                    Distance matrix (angstroms):
                    1          2          3          4          5
     1  C    0.000000
     2  C    1.377752   0.000000
     3  C    2.343440   1.393168   0.000000
     4  C    2.421552   2.256314   1.393168   0.000000
     5  C    1.757608   2.421552   2.343440   1.377752   0.000000
     6  H    1.188890   2.433083   2.973148   2.433083   1.188890
     7  H    1.084522   2.210291   3.381841   3.484687   2.613371
     8  H    2.124466   1.083909   2.208361   3.302561   3.477695
     9  H    3.368959   2.207389   1.079899   2.207389   3.368959
    10  H    3.477695   3.302561   2.208361   1.083909   2.124466
    11  H    2.613371   3.484687   3.381841   2.210291   1.084522
                    6          7          8          9         10
     6  H    0.000000
     7  H    1.608301   0.000000
     8  H    3.300111   2.559155   0.000000
     9  H    4.053047   4.362142   2.658834   0.000000
    10  H    3.300111   4.519213   4.313252   2.658834   0.000000
    11  H    1.608301   3.216600   4.519213   4.362142   2.559155
                   11
    11  H    0.000000
 Stoichiometry    C5H6(1+,2)
 Framework group  C2V[C2(HCH),SGV(C4H4)]
 Deg. of freedom    10
 Full point group                 C2V     NOp   4
 Largest Abelian subgroup         C2V     NOp   4
 Largest concise Abelian subgroup C2      NOp   2
                         Standard orientation:                         
 ---------------------------------------------------------------------
 Center     Atomic      Atomic             Coordinates (Angstroms)
 Number     Number       Type             X           Y           Z
 ---------------------------------------------------------------------
      1          6           0        0.000000    0.878804   -0.931542
      2          6           0        0.000000    1.128157    0.423457
      3          6           0        0.000000   -0.000000    1.240879
      4          6           0       -0.000000   -1.128157    0.423457
      5          6           0       -0.000000   -0.878804   -0.931542
      6          1           0       -0.000000    0.000000   -1.732269
      7          1           0        0.000000    1.608300   -1.734053
      8          1           0        0.000000    2.156626    0.765670
      9          1           0        0.000000   -0.000000    2.320778
     10          1           0       -0.000000   -2.156626    0.765670
     11          1           0       -0.000000   -1.608300   -1.734053
 ---------------------------------------------------------------------
 Rotational constants (GHZ):           8.5259551           7.9375455           4.1106177
 Leave Link  202 at Thu Mar  5 13:02:42 2020, MaxMem=  6710886400 cpu:               0.3 elap:               0.0
 (Enter /opt/ohpc/pub/libs/gaussian/g16-A.03/sandybridge/g16/l301.exe)
 Standard basis: 6-31G (6D, 7F)
 Ernie: Thresh=  0.10000D-02 Tol=  0.10000D-05 Strict=F.
 There are    27 symmetry adapted cartesian basis functions of A1  symmetry.
 There are     4 symmetry adapted cartesian basis functions of A2  symmetry.
 There are     6 symmetry adapted cartesian basis functions of B1  symmetry.
 There are    20 symmetry adapted cartesian basis functions of B2  symmetry.
 There are    27 symmetry adapted basis functions of A1  symmetry.
 There are     4 symmetry adapted basis functions of A2  symmetry.
 There are     6 symmetry adapted basis functions of B1  symmetry.
 There are    20 symmetry adapted basis functions of B2  symmetry.
    57 basis functions,   134 primitive gaussians,    57 cartesian basis functions
    18 alpha electrons       17 beta electrons
       nuclear repulsion energy       156.0127424860 Hartrees.
 IExCor=33909 DFT=T Ex+Corr=LC-wHPBE ExCW=0 ScaHFX=  1.000000
 ScaDFX=  1.000000  1.000000  1.000000  1.000000 ScalE2=  1.000000  1.000000
 IRadAn=      5 IRanWt=     -1 IRanGd=            0 ICorTp=0 IEmpDi=  4
 HFx  wShort=  0.000000 wLong=  0.400000 cFull=  0.000000 cShort=  0.000000 cLong=  0.869700
 DFx  wShort=  0.000000 wLong=  0.400000 cFull=  0.000000 cShort=  1.000000 cLong=  0.869700
 NAtoms=   11 NActive=   11 NUniq=    7 SFac= 2.47D+00 NAtFMM=   60 NAOKFM=F Big=F
 Integral buffers will be    131072 words long.
 Raffenetti 2 integral format.
 Two-electron integral symmetry is turned on.
 Leave Link  301 at Thu Mar  5 13:02:42 2020, MaxMem=  6710886400 cpu:               0.8 elap:               0.1
 (Enter /opt/ohpc/pub/libs/gaussian/g16-A.03/sandybridge/g16/l302.exe)
 NPDir=0 NMtPBC=     1 NCelOv=     1 NCel=       1 NClECP=     1 NCelD=      1
         NCelK=      1 NCelE2=     1 NClLst=     1 CellRange=     0.0.
 One-electron integrals computed using PRISM.
 One-electron integral symmetry used in STVInt
 NBasis=    57 RedAO= T EigKep=  1.84D-03  NBF=    27     4     6    20
 NBsUse=    57 1.00D-06 EigRej= -1.00D+00 NBFU=    27     4     6    20
 Precomputing XC quadrature grid using
 IXCGrd= 4 IRadAn=           5 IRanWt=          -1 IRanGd=           0 AccXCQ= 0.00D+00.
 Generated NRdTot=       0 NPtTot=           0 NUsed=           0 NTot=          32
 NSgBfM=    57    57    57    57    57 MxSgAt=    11 MxSgA2=    11.
 Leave Link  302 at Thu Mar  5 13:02:42 2020, MaxMem=  6710886400 cpu:               2.2 elap:               0.2
 (Enter /opt/ohpc/pub/libs/gaussian/g16-A.03/sandybridge/g16/l303.exe)
 DipDrv:  MaxL=1.
 Leave Link  303 at Thu Mar  5 13:02:42 2020, MaxMem=  6710886400 cpu:               0.7 elap:               0.1
 (Enter /opt/ohpc/pub/libs/gaussian/g16-A.03/sandybridge/g16/l401.exe)
 ExpMin= 1.61D-01 ExpMax= 3.05D+03 ExpMxC= 4.57D+02 IAcc=3 IRadAn=         5 AccDes= 0.00D+00
 Harris functional with IExCor=33909 and IRadAn=       5 diagonalized for initial guess.
 HarFok:  IExCor=33909 AccDes= 0.00D+00 IRadAn=         5 IDoV= 1 UseB2=F ITyADJ=14
 ICtDFT=  3500011 ScaDFX=  1.000000  1.000000  1.000000  1.000000
 FoFCou: FMM=F IPFlag=           0 FMFlag=      100000 FMFlg1=           0
         NFxFlg=           0 DoJE=T BraDBF=F KetDBF=T FulRan=T
         wScrn=  0.000000 ICntrl=       500 IOpCl=  0 I1Cent=   200000004 NGrid=           0
         NMat0=    1 NMatS0=      1 NMatT0=    0 NMatD0=    1 NMtDS0=    0 NMtDT0=    0
 Petite list used in FoFCou.
 Harris En= -192.599910402150    
 JPrj=0 DoOrth=F DoCkMO=F.
 Initial guess orbital symmetries:
 Alpha Orbitals:
       Occupied  (A1) (B2) (A1) (B2) (A1) (A1) (A1) (B2) (A1) (B2)
                 (A1) (B2) (A1) (B2) (A1) (B1) (A2) (B1)
       Virtual   (A2) (B2) (B1) (A1) (A1) (B2) (A1) (B2) (A1) (B2)
                 (A1) (B2) (A1) (B2) (B1) (A1) (A2) (B1) (B2) (A1)
                 (A1) (A2) (B1) (B2) (B2) (A1) (B2) (A1) (A1) (B2)
                 (A1) (A1) (A1) (B2) (A1) (B2) (A1) (A1) (B2)
 Beta  Orbitals:
       Occupied  (A1) (B2) (A1) (B2) (A1) (A1) (A1) (B2) (A1) (B2)
                 (A1) (B2) (A1) (B2) (A1) (B1) (A2)
       Virtual   (B1) (A2) (B2) (B1) (A1) (A1) (B2) (A1) (B2) (A1)
                 (B2) (A1) (B2) (A1) (B2) (B1) (A1) (A2) (B1) (B2)
                 (A1) (A1) (A2) (B1) (B2) (B2) (A1) (B2) (A1) (A1)
                 (B2) (A1) (A1) (A1) (B2) (A1) (B2) (A1) (A1) (B2)
 The electronic state of the initial guess is 2-B1.
 Initial guess <Sx>= 0.0000 <Sy>= 0.0000 <Sz>= 0.5000 <S**2>= 0.7500 S= 0.5000
 Leave Link  401 at Thu Mar  5 13:02:42 2020, MaxMem=  6710886400 cpu:               3.1 elap:               0.2
 (Enter /opt/ohpc/pub/libs/gaussian/g16-A.03/sandybridge/g16/l502.exe)
 Keep R1 and R2 ints in memory in symmetry-blocked form, NReq=16815681.
 FoFCou: FMM=F IPFlag=           0 FMFlag=           0 FMFlg1=           0
         NFxFlg=           0 DoJE=F BraDBF=F KetDBF=F FulRan=T
         wScrn=  0.000000 ICntrl=       600 IOpCl=  0 I1Cent=           0 NGrid=           0
         NMat0=    1 NMatS0=   1653 NMatT0=    0 NMatD0=    1 NMtDS0=    0 NMtDT0=    0
 Petite list used in FoFCou.
 UHF open shell SCF:
 Using DIIS extrapolation, IDIIS=    10.
 NGot=  6710886400 LenX=  6710059561 LenY=  6710055871
 Requested convergence on RMS density matrix=1.00D-06 within  32 cycles.
 Requested convergence on MAX density matrix=1.00D-04.
 Requested convergence on             energy=1.00D-04.
 Virtual orbitals will be shifted by   0.500 hartree.
 No special actions if energy rises.
 Dynamic level shift is on during FON iterations.

 Cycle   1  Pass 1  IDiag  1:
 E= -198.467990630246    
 DIIS: error= 4.90D-02 at cycle   1 NSaved=   1.
 NSaved= 1 IEnMin= 1 EnMin= -198.467990630246     IErMin= 1 ErrMin= 4.90D-02
 ErrMax= 4.90D-02  0.00D+00 EMaxC= 1.00D+00 BMatC= 1.97D-01 BMatP= 1.97D-01
 IDIUse=1 WtCom= 1.00D+00 WtEn= 0.00D+00
 Coeff-Com:  0.100D+01
 Coeff:      0.100D+01
 Gap=     0.359 Goal=   None    Shift=    0.500
 T= 1790. Gap= 0.831 NK=0 IS=   19 IE=   57 IFin=   18
          NO(<0.9)=   0  NV(>0.1)=   0     18.00e < EF      0.00e >EF  Err=0.0D+00
 Gap=     0.233 Goal=   None    Shift=    0.500
 T= 1790. Gap= 0.736 NK=0 IS=   18 IE=   57 IFin=   17
          NO(<0.9)=   0  NV(>0.1)=   0     17.00e < EF      0.00e >EF  Err=0.0D+00
 GapD=    0.233 DampG=1.000 DampE=0.500 DampFc=0.5000 IDamp=-1.
 Damping current iteration by 5.00D-01
 RMSDP=6.99D-03 MaxDP=5.37D-02              OVMax= 1.04D-01

 Cycle   2  Pass 1  IDiag  1:
 E= -198.505359141353     Delta-E=       -0.037368511107 Rises=F Damp=T
 DIIS: error= 2.42D-02 at cycle   2 NSaved=   2.
 NSaved= 2 IEnMin= 2 EnMin= -198.505359141353     IErMin= 2 ErrMin= 2.42D-02
 ErrMax= 2.42D-02  0.00D+00 EMaxC= 1.00D+00 BMatC= 3.63D-02 BMatP= 1.97D-01
 IDIUse=1 WtCom= 1.00D+00 WtEn= 0.00D+00
 Coeff-Com: -0.569D+00 0.157D+01
 Coeff:     -0.569D+00 0.157D+01
 Gap=     0.425 Goal=   None    Shift=    0.500
 T= 1679. Gap= 0.911 NK=4 IS=   19 IE=   23 IFin=   18
          NO(<0.9)=   0  NV(>0.1)=   0     18.00e < EF      0.00e >EF  Err=0.0D+00
 Gap=     0.262 Goal=   None    Shift=    0.500
 T= 1679. Gap= 0.760 NK=4 IS=   18 IE=   23 IFin=   17
          NO(<0.9)=   0  NV(>0.1)=   0     17.00e < EF      0.00e >EF  Err=0.0D+00
 GapD=    0.262 DampG=1.000 DampE=0.500 DampFc=0.5000 IDamp=-1.
 Damping current iteration by 5.00D-01
 RMSDP=4.37D-03 MaxDP=3.38D-02 DE=-3.74D-02 OVMax= 1.84D-02

 Cycle   3  Pass 1  IDiag  1:
 E= -198.519122663028     Delta-E=       -0.013763521675 Rises=F Damp=T
 DIIS: error= 1.44D-02 at cycle   3 NSaved=   3.
 NSaved= 3 IEnMin= 3 EnMin= -198.519122663028     IErMin= 3 ErrMin= 1.44D-02
 ErrMax= 1.44D-02  0.00D+00 EMaxC= 1.00D+00 BMatC= 9.06D-03 BMatP= 3.63D-02
 IDIUse=1 WtCom= 1.00D+00 WtEn= 0.00D+00
 Coeff-Com:  0.328D+00-0.186D+01 0.254D+01
 Coeff:      0.328D+00-0.186D+01 0.254D+01
 Gap=     0.415 Goal=   None    Shift=    0.500
 T= 1479. Gap= 0.915 NK=0 IS=   19 IE=   57 IFin=   18
          NO(<0.9)=   0  NV(>0.1)=   0     18.00e < EF      0.00e >EF  Err=0.0D+00
 Gap=     0.267 Goal=   None    Shift=    0.500
 T= 1479. Gap= 0.767 NK=0 IS=   18 IE=   57 IFin=   17
          NO(<0.9)=   0  NV(>0.1)=   0     17.00e < EF      0.00e >EF  Err=0.0D+00
 GapD=    0.267 DampG=1.000 DampE=0.500 DampFc=0.5000 IDamp=-1.
 Damping current iteration by 5.00D-01
 RMSDP=2.54D-03 MaxDP=2.03D-02 DE=-1.38D-02 OVMax= 1.74D-02

 Cycle   4  Pass 1  IDiag  1:
 E= -198.525850421510     Delta-E=       -0.006727758483 Rises=F Damp=T
 DIIS: error= 9.50D-03 at cycle   4 NSaved=   4.
 NSaved= 4 IEnMin= 4 EnMin= -198.525850421510     IErMin= 4 ErrMin= 9.50D-03
 ErrMax= 9.50D-03  0.00D+00 EMaxC= 1.00D+00 BMatC= 3.25D-03 BMatP= 9.06D-03
 IDIUse=1 WtCom= 1.00D+00 WtEn= 0.00D+00
 Coeff-Com:  0.119D-01 0.837D+00-0.382D+01 0.397D+01
 Coeff:      0.119D-01 0.837D+00-0.382D+01 0.397D+01
 Gap=     0.421 Goal=   None    Shift=    0.500
 T= 1119. Gap= 0.921 NK=0 IS=   19 IE=   57 IFin=   18
          NO(<0.9)=   0  NV(>0.1)=   0     18.00e < EF      0.00e >EF  Err=0.0D+00
 Gap=     0.273 Goal=   None    Shift=    0.500
 T= 1119. Gap= 0.773 NK=0 IS=   18 IE=   57 IFin=   17
          NO(<0.9)=   0  NV(>0.1)=   0     17.00e < EF      0.00e >EF  Err=0.0D+00
 GapD=    0.273 DampG=1.000 DampE=1.000 DampFc=1.0000 IDamp=-1.
 RMSDP=1.65D-03 MaxDP=1.71D-02 DE=-6.73D-03 OVMax= 1.70D-02

 Cycle   5  Pass 1  IDiag  1:
 E= -198.534033139182     Delta-E=       -0.008182717672 Rises=F Damp=F
 DIIS: error= 4.66D-03 at cycle   5 NSaved=   5.
 NSaved= 5 IEnMin= 5 EnMin= -198.534033139182     IErMin= 5 ErrMin= 4.66D-03
 ErrMax= 4.66D-03  0.00D+00 EMaxC= 1.00D+00 BMatC= 5.45D-04 BMatP= 3.25D-03
 IDIUse=1 WtCom= 1.00D+00 WtEn= 0.00D+00
 Coeff-Com: -0.195D+00 0.963D+00-0.723D+00-0.102D+01 0.197D+01
 Coeff:     -0.195D+00 0.963D+00-0.723D+00-0.102D+01 0.197D+01
 Gap=     0.424 Goal=   None    Shift=    0.500
 T=  807. Gap= 0.925 NK=0 IS=   19 IE=   57 IFin=   18
          NO(<0.9)=   0  NV(>0.1)=   0     18.00e < EF      0.00e >EF  Err=0.0D+00
 Gap=     0.278 Goal=   None    Shift=    0.500
 T=  807. Gap= 0.778 NK=0 IS=   18 IE=   57 IFin=   17
          NO(<0.9)=   0  NV(>0.1)=   0     17.00e < EF      0.00e >EF  Err=0.0D+00
 GapD=    0.278 DampG=1.000 DampE=1.000 DampFc=1.0000 IDamp=-1.
 RMSDP=4.95D-04 MaxDP=7.97D-03 DE=-8.18D-03 OVMax= 1.75D-02

 Cycle   6  Pass 1  IDiag  1:
 E= -198.534846927232     Delta-E=       -0.000813788050 Rises=F Damp=F
 DIIS: error= 3.64D-03 at cycle   6 NSaved=   6.
 NSaved= 6 IEnMin= 6 EnMin= -198.534846927232     IErMin= 6 ErrMin= 3.64D-03
 ErrMax= 3.64D-03  0.00D+00 EMaxC= 1.00D+00 BMatC= 2.57D-04 BMatP= 5.45D-04
 IDIUse=1 WtCom= 1.00D+00 WtEn= 0.00D+00
 Coeff-Com:  0.510D-02-0.300D+00 0.855D+00-0.545D+00-0.172D+01 0.271D+01
 Coeff:      0.510D-02-0.300D+00 0.855D+00-0.545D+00-0.172D+01 0.271D+01
 Gap=     0.427 Goal=   None    Shift=    0.500
 T=  524. Gap= 0.928 NK=0 IS=   19 IE=   57 IFin=   18
          NO(<0.9)=   0  NV(>0.1)=   0     18.00e < EF      0.00e >EF  Err=0.0D+00
 Gap=     0.280 Goal=   None    Shift=    0.500
 T=  524. Gap= 0.781 NK=0 IS=   18 IE=   57 IFin=   17
          NO(<0.9)=   0  NV(>0.1)=   0     17.00e < EF      0.00e >EF  Err=0.0D+00
 GapD=    0.280 DampG=1.000 DampE=1.000 DampFc=1.0000 IDamp=-1.
 RMSDP=4.03D-04 MaxDP=6.47D-03 DE=-8.14D-04 OVMax= 1.60D-02

 Cycle   7  Pass 1  IDiag  1:
 E= -198.535319261578     Delta-E=       -0.000472334346 Rises=F Damp=F
 DIIS: error= 2.70D-03 at cycle   7 NSaved=   7.
 NSaved= 7 IEnMin= 7 EnMin= -198.535319261578     IErMin= 7 ErrMin= 2.70D-03
 ErrMax= 2.70D-03  0.00D+00 EMaxC= 1.00D+00 BMatC= 1.19D-04 BMatP= 2.57D-04
 IDIUse=1 WtCom= 1.00D+00 WtEn= 0.00D+00
 Coeff-Com:  0.181D-01-0.595D-01-0.179D+00 0.457D+00-0.283D+00-0.134D+01
 Coeff-Com:  0.238D+01
 Coeff:      0.181D-01-0.595D-01-0.179D+00 0.457D+00-0.283D+00-0.134D+01
 Coeff:      0.238D+01
 Gap=     0.428 Goal=   None    Shift=    0.500
 T=  235. Gap= 0.928 NK=0 IS=   19 IE=   57 IFin=   18
          NO(<0.9)=   0  NV(>0.1)=   0     18.00e < EF      0.00e >EF  Err=0.0D+00
 Gap=     0.282 Goal=   None    Shift=    0.500
 T=  235. Gap= 0.782 NK=0 IS=   18 IE=   57 IFin=   17
          NO(<0.9)=   0  NV(>0.1)=   0     17.00e < EF      0.00e >EF  Err=0.0D+00
 GapD=    0.282 DampG=1.000 DampE=1.000 DampFc=1.0000 IDamp=-1.
 RMSDP=2.82D-04 MaxDP=4.23D-03 DE=-4.72D-04 OVMax= 1.21D-02

 Cycle   8  Pass 1  IDiag  1:
 E= -198.535541212850     Delta-E=       -0.000221951272 Rises=F Damp=F
 DIIS: error= 1.97D-03 at cycle   8 NSaved=   8.
 NSaved= 8 IEnMin= 8 EnMin= -198.535541212850     IErMin= 8 ErrMin= 1.97D-03
 ErrMax= 1.97D-03  0.00D+00 EMaxC= 1.00D+00 BMatC= 6.05D-05 BMatP= 1.19D-04
 IDIUse=1 WtCom= 1.00D+00 WtEn= 0.00D+00
 Coeff-Com: -0.164D-01 0.306D+00-0.835D+00 0.555D+00 0.139D+01-0.273D+01
 Coeff-Com: -0.657D-01 0.240D+01
 Coeff:     -0.164D-01 0.306D+00-0.835D+00 0.555D+00 0.139D+01-0.273D+01
 Coeff:     -0.657D-01 0.240D+01
 Gap=     0.429 Goal=   None    Shift=    0.500
 T=   67. Gap= 0.929 NK=0 IS=   19 IE=   57 IFin=   18
          NO(<0.9)=   0  NV(>0.1)=   0     18.00e < EF      0.00e >EF  Err=0.0D+00
 Gap=     0.283 Goal=   None    Shift=    0.500
 T=   67. Gap= 0.783 NK=0 IS=   18 IE=   57 IFin=   17
          NO(<0.9)=   0  NV(>0.1)=   0     17.00e < EF      0.00e >EF  Err=0.0D+00
 GapD=    0.283 DampG=1.000 DampE=1.000 DampFc=1.0000 IDamp=-1.
 RMSDP=2.35D-04 MaxDP=3.40D-03 DE=-2.22D-04 OVMax= 1.06D-02

 Cycle   9  Pass 1  IDiag  1:
 E= -198.535665191431     Delta-E=       -0.000123978581 Rises=F Damp=F
 DIIS: error= 1.35D-03 at cycle   9 NSaved=   9.
 NSaved= 9 IEnMin= 9 EnMin= -198.535665191431     IErMin= 9 ErrMin= 1.35D-03
 ErrMax= 1.35D-03  0.00D+00 EMaxC= 1.00D+00 BMatC= 2.76D-05 BMatP= 6.05D-05
 IDIUse=1 WtCom= 1.00D+00 WtEn= 0.00D+00
 Coeff-Com:  0.342D-02-0.178D+00 0.674D+00-0.654D+00-0.620D+00 0.231D+01
 Coeff-Com: -0.118D+01-0.350D+01 0.415D+01
 Coeff:      0.342D-02-0.178D+00 0.674D+00-0.654D+00-0.620D+00 0.231D+01
 Coeff:     -0.118D+01-0.350D+01 0.415D+01
 Gap=     0.430 Goal=   None    Shift=    0.500
 Gap=     0.283 Goal=   None    Shift=    0.500
 GapD=    0.283 DampG=1.000 DampE=1.000 DampFc=1.0000 IDamp=-1.
 RMSDP=1.92D-04 MaxDP=3.03D-03 DE=-1.24D-04 OVMax= 9.22D-03

 Cycle  10  Pass 1  IDiag  1:
 E= -198.535731585409     Delta-E=       -0.000066393978 Rises=F Damp=F
 DIIS: error= 8.28D-04 at cycle  10 NSaved=  10.
 NSaved=10 IEnMin=10 EnMin= -198.535731585409     IErMin=10 ErrMin= 8.28D-04
 ErrMax= 8.28D-04  0.00D+00 EMaxC= 1.00D+00 BMatC= 1.12D-05 BMatP= 2.76D-05
 IDIUse=1 WtCom= 1.00D+00 WtEn= 0.00D+00
 Coeff-Com:  0.308D-02 0.516D-02-0.467D-01 0.549D-01 0.408D-01-0.214D+00
 Coeff-Com:  0.341D+00 0.103D+00-0.190D+01 0.262D+01
 Coeff:      0.308D-02 0.516D-02-0.467D-01 0.549D-01 0.408D-01-0.214D+00
 Coeff:      0.341D+00 0.103D+00-0.190D+01 0.262D+01
 Gap=     0.430 Goal=   None    Shift=    0.500
 Gap=     0.283 Goal=   None    Shift=    0.500
 RMSDP=1.15D-04 MaxDP=1.87D-03 DE=-6.64D-05 OVMax= 5.75D-03

 Cycle  11  Pass 1  IDiag  1:
 E= -198.535756764751     Delta-E=       -0.000025179342 Rises=F Damp=F
 DIIS: error= 5.07D-04 at cycle  11 NSaved=  11.
 NSaved=11 IEnMin=11 EnMin= -198.535756764751     IErMin=11 ErrMin= 5.07D-04
 ErrMax= 5.07D-04  0.00D+00 EMaxC= 1.00D+00 BMatC= 4.91D-06 BMatP= 1.12D-05
 IDIUse=1 WtCom= 1.00D+00 WtEn= 0.00D+00
 Coeff-Com: -0.529D-03-0.382D-01 0.183D+00-0.209D+00-0.694D-01 0.587D+00
 Coeff-Com: -0.621D+00-0.820D+00 0.344D+01-0.638D+01 0.493D+01
 Coeff:     -0.529D-03-0.382D-01 0.183D+00-0.209D+00-0.694D-01 0.587D+00
 Coeff:     -0.621D+00-0.820D+00 0.344D+01-0.638D+01 0.493D+01
 Gap=     0.430 Goal=   None    Shift=    0.500
 Gap=     0.283 Goal=   None    Shift=    0.500
 RMSDP=7.80D-05 MaxDP=1.21D-03 DE=-2.52D-05 OVMax= 3.97D-03

 Cycle  12  Pass 1  IDiag  1:
 E= -198.535767561404     Delta-E=       -0.000010796653 Rises=F Damp=F
 DIIS: error= 2.93D-04 at cycle  12 NSaved=  12.
 NSaved=12 IEnMin=12 EnMin= -198.535767561404     IErMin=12 ErrMin= 2.93D-04
 ErrMax= 2.93D-04  0.00D+00 EMaxC= 1.00D+00 BMatC= 1.83D-06 BMatP= 4.91D-06
 IDIUse=1 WtCom= 1.00D+00 WtEn= 0.00D+00
 Coeff-Com:  0.677D-03-0.264D-01 0.996D-01-0.970D-01-0.818D-01 0.311D+00
 Coeff-Com: -0.825D-01-0.587D+00 0.492D+00 0.703D+00-0.262D+01 0.289D+01
 Coeff:      0.677D-03-0.264D-01 0.996D-01-0.970D-01-0.818D-01 0.311D+00
 Coeff:     -0.825D-01-0.587D+00 0.492D+00 0.703D+00-0.262D+01 0.289D+01
 Gap=     0.430 Goal=   None    Shift=    0.500
 Gap=     0.283 Goal=   None    Shift=    0.500
 RMSDP=4.71D-05 MaxDP=7.14D-04 DE=-1.08D-05 OVMax= 2.40D-03

 Cycle  13  Pass 1  IDiag  1:
 E= -198.535771441331     Delta-E=       -0.000003879927 Rises=F Damp=F
 DIIS: error= 1.65D-04 at cycle  13 NSaved=  13.
 NSaved=13 IEnMin=13 EnMin= -198.535771441331     IErMin=13 ErrMin= 1.65D-04
 ErrMax= 1.65D-04  0.00D+00 EMaxC= 1.00D+00 BMatC= 6.67D-07 BMatP= 1.83D-06
 IDIUse=1 WtCom= 1.00D+00 WtEn= 0.00D+00
 Coeff-Com:  0.352D-03 0.223D-02-0.278D-02-0.525D-02 0.349D-01-0.246D-01
 Coeff-Com: -0.105D+00 0.114D+00 0.534D+00-0.195D+01 0.347D+01-0.524D+01
 Coeff-Com:  0.417D+01
 Coeff:      0.352D-03 0.223D-02-0.278D-02-0.525D-02 0.349D-01-0.246D-01
 Coeff:     -0.105D+00 0.114D+00 0.534D+00-0.195D+01 0.347D+01-0.524D+01
 Coeff:      0.417D+01
 Gap=     0.430 Goal=   None    Shift=    0.500
 Gap=     0.283 Goal=   None    Shift=    0.500
 RMSDP=2.85D-05 MaxDP=4.35D-04 DE=-3.88D-06 OVMax= 1.46D-03

 Cycle  14  Pass 1  IDiag  1:
 E= -198.535772811255     Delta-E=       -0.000001369924 Rises=F Damp=F
 DIIS: error= 8.83D-05 at cycle  14 NSaved=  14.
 NSaved=14 IEnMin=14 EnMin= -198.535772811255     IErMin=14 ErrMin= 8.83D-05
 ErrMax= 8.83D-05  0.00D+00 EMaxC= 1.00D+00 BMatC= 2.46D-07 BMatP= 6.67D-07
 IDIUse=1 WtCom= 1.00D+00 WtEn= 0.00D+00
 Coeff-Com:  0.358D-03-0.920D-02 0.377D-01-0.405D-01-0.199D-01 0.102D+00
 Coeff-Com: -0.406D-01-0.198D+00 0.383D+00-0.385D+00-0.274D+00 0.175D+01
 Coeff-Com: -0.356D+01 0.325D+01
 Coeff:      0.358D-03-0.920D-02 0.377D-01-0.405D-01-0.199D-01 0.102D+00
 Coeff:     -0.406D-01-0.198D+00 0.383D+00-0.385D+00-0.274D+00 0.175D+01
 Coeff:     -0.356D+01 0.325D+01
 Gap=     0.430 Goal=   None    Shift=    0.500
 Gap=     0.284 Goal=   None    Shift=    0.500
 RMSDP=1.63D-05 MaxDP=2.45D-04 DE=-1.37D-06 OVMax= 8.43D-04

 Cycle  15  Pass 1  IDiag  1:
 E= -198.535773261703     Delta-E=       -0.000000450448 Rises=F Damp=F
 DIIS: error= 4.66D-05 at cycle  15 NSaved=  15.
 NSaved=15 IEnMin=15 EnMin= -198.535773261703     IErMin=15 ErrMin= 4.66D-05
 ErrMax= 4.66D-05  0.00D+00 EMaxC= 1.00D+00 BMatC= 8.34D-08 BMatP= 2.46D-07
 IDIUse=1 WtCom= 1.00D+00 WtEn= 0.00D+00
 Coeff-Com: -0.145D-03 0.350D-02-0.142D-01 0.155D-01 0.810D-02-0.388D-01
 Coeff-Com:  0.128D-01 0.863D-01-0.146D+00 0.113D+00 0.245D+00-0.135D+01
 Coeff-Com:  0.306D+01-0.495D+01 0.395D+01
 Coeff:     -0.145D-03 0.350D-02-0.142D-01 0.155D-01 0.810D-02-0.388D-01
 Coeff:      0.128D-01 0.863D-01-0.146D+00 0.113D+00 0.245D+00-0.135D+01
 Coeff:      0.306D+01-0.495D+01 0.395D+01
 Gap=     0.430 Goal=   None    Shift=    0.500
 Gap=     0.284 Goal=   None    Shift=    0.500
 RMSDP=8.89D-06 MaxDP=1.28D-04 DE=-4.50D-07 OVMax= 4.63D-04

 Cycle  16  Pass 1  IDiag  1:
 E= -198.535773399234     Delta-E=       -0.000000137532 Rises=F Damp=F
 DIIS: error= 2.60D-05 at cycle  16 NSaved=  16.
 NSaved=16 IEnMin=16 EnMin= -198.535773399234     IErMin=16 ErrMin= 2.60D-05
 ErrMax= 2.60D-05  0.00D+00 EMaxC= 1.00D+00 BMatC= 2.80D-08 BMatP= 8.34D-08
 IDIUse=1 WtCom= 1.00D+00 WtEn= 0.00D+00
 Coeff-Com:  0.534D-04-0.625D-03 0.471D-02-0.717D-02 0.500D-02 0.544D-03
 Coeff-Com:  0.236D-03-0.239D-01 0.101D+00-0.225D+00 0.220D+00 0.351D-01
 Coeff-Com: -0.793D+00 0.225D+01-0.406D+01 0.349D+01
 Coeff:      0.534D-04-0.625D-03 0.471D-02-0.717D-02 0.500D-02 0.544D-03
 Coeff:      0.236D-03-0.239D-01 0.101D+00-0.225D+00 0.220D+00 0.351D-01
 Coeff:     -0.793D+00 0.225D+01-0.406D+01 0.349D+01
 Gap=     0.430 Goal=   None    Shift=    0.500
 Gap=     0.284 Goal=   None    Shift=    0.500
 RMSDP=4.73D-06 MaxDP=6.45D-05 DE=-1.38D-07 OVMax= 2.47D-04

 Cycle  17  Pass 1  IDiag  1:
 E= -198.535773440016     Delta-E=       -0.000000040782 Rises=F Damp=F
 DIIS: error= 1.53D-05 at cycle  17 NSaved=  17.
 NSaved=17 IEnMin=17 EnMin= -198.535773440016     IErMin=17 ErrMin= 1.53D-05
 ErrMax= 1.53D-05  0.00D+00 EMaxC= 1.00D+00 BMatC= 8.98D-09 BMatP= 2.80D-08
 IDIUse=1 WtCom= 1.00D+00 WtEn= 0.00D+00
 Coeff-Com: -0.686D-05 0.644D-03-0.392D-02 0.537D-02-0.136D-02-0.689D-02
 Coeff-Com:  0.674D-02 0.195D-01-0.658D-01 0.117D+00-0.720D-01-0.172D+00
 Coeff-Com:  0.703D+00-0.167D+01 0.296D+01-0.451D+01 0.368D+01
 Coeff:     -0.686D-05 0.644D-03-0.392D-02 0.537D-02-0.136D-02-0.689D-02
 Coeff:      0.674D-02 0.195D-01-0.658D-01 0.117D+00-0.720D-01-0.172D+00
 Coeff:      0.703D+00-0.167D+01 0.296D+01-0.451D+01 0.368D+01
 Gap=     0.430 Goal=   None    Shift=    0.500
 Gap=     0.284 Goal=   None    Shift=    0.500
 RMSDP=2.44D-06 MaxDP=3.26D-05 DE=-4.08D-08 OVMax= 1.28D-04

 Cycle  18  Pass 1  IDiag  1:
 E= -198.535773451854     Delta-E=       -0.000000011838 Rises=F Damp=F
 DIIS: error= 8.91D-06 at cycle  18 NSaved=  18.
 NSaved=18 IEnMin=18 EnMin= -198.535773451854     IErMin=18 ErrMin= 8.91D-06
 ErrMax= 8.91D-06  0.00D+00 EMaxC= 1.00D+00 BMatC= 2.81D-09 BMatP= 8.98D-09
 IDIUse=1 WtCom= 1.00D+00 WtEn= 0.00D+00
 Coeff-Com: -0.215D-04 0.395D-03-0.964D-03 0.500D-03 0.266D-02-0.681D-02
 Coeff-Com:  0.421D-02 0.439D-02 0.249D-03-0.223D-01 0.475D-01-0.670D-01
 Coeff-Com:  0.385D-01 0.112D+00-0.557D+00 0.158D+01-0.344D+01 0.331D+01
 Coeff:     -0.215D-04 0.395D-03-0.964D-03 0.500D-03 0.266D-02-0.681D-02
 Coeff:      0.421D-02 0.439D-02 0.249D-03-0.223D-01 0.475D-01-0.670D-01
 Coeff:      0.385D-01 0.112D+00-0.557D+00 0.158D+01-0.344D+01 0.331D+01
 Gap=     0.430 Goal=   None    Shift=    0.500
 Gap=     0.284 Goal=   None    Shift=    0.500
 RMSDP=1.24D-06 MaxDP=1.70D-05 DE=-1.18D-08 OVMax= 6.54D-05

 Cycle  19  Pass 1  IDiag  1:
 E= -198.535773455282     Delta-E=       -0.000000003428 Rises=F Damp=F
 DIIS: error= 5.20D-06 at cycle  19 NSaved=  19.
 NSaved=19 IEnMin=19 EnMin= -198.535773455282     IErMin=19 ErrMin= 5.20D-06
 ErrMax= 5.20D-06  0.00D+00 EMaxC= 1.00D+00 BMatC= 8.43D-10 BMatP= 2.81D-09
 IDIUse=1 WtCom= 1.00D+00 WtEn= 0.00D+00
 Coeff-Com: -0.853D-05 0.248D-03-0.953D-03 0.992D-03 0.639D-03-0.326D-02
 Coeff-Com:  0.287D-02 0.383D-02-0.111D-01 0.143D-01-0.688D-02-0.114D-01
 Coeff-Com:  0.333D-01-0.620D-01 0.120D+00-0.429D+00 0.123D+01-0.282D+01
 Coeff-Com:  0.294D+01
 Coeff:     -0.853D-05 0.248D-03-0.953D-03 0.992D-03 0.639D-03-0.326D-02
 Coeff:      0.287D-02 0.383D-02-0.111D-01 0.143D-01-0.688D-02-0.114D-01
 Coeff:      0.333D-01-0.620D-01 0.120D+00-0.429D+00 0.123D+01-0.282D+01
 Coeff:      0.294D+01
 Gap=     0.430 Goal=   None    Shift=    0.500
 Gap=     0.284 Goal=   None    Shift=    0.500
 RMSDP=6.46D-07 MaxDP=8.96D-06 DE=-3.43D-09 OVMax= 3.41D-05

 SCF Done:  E(ULC-wHPBE) =  -198.535773455     A.U. after   19 cycles
            NFock= 19  Conv=0.65D-06     -V/T= 2.0283
 <Sx>= 0.0000 <Sy>= 0.0000 <Sz>= 0.5000 <S**2>= 0.8368 S= 0.5425
 <L.S>= 0.000000000000E+00
 KE= 1.930730300706D+02 PE=-7.529642753205D+02 EE= 2.053427293086D+02
 Annihilation of the first spin contaminant:
 S**2 before annihilation     0.8368,   after     0.7542
 Leave Link  502 at Thu Mar  5 13:02:44 2020, MaxMem=  6710886400 cpu:              32.8 elap:               2.1
 (Enter /opt/ohpc/pub/libs/gaussian/g16-A.03/sandybridge/g16/l508.exe)
 QCSCF skips out because SCF is already converged.
 Leave Link  508 at Thu Mar  5 13:02:44 2020, MaxMem=  6710886400 cpu:               0.1 elap:               0.0
 (Enter /opt/ohpc/pub/libs/gaussian/g16-A.03/sandybridge/g16/l601.exe)
 Copying SCF densities to generalized density rwf, IOpCl= 1 IROHF=0.

 **********************************************************************

            Population analysis using the SCF density.

 **********************************************************************

 Orbital symmetries:
 Alpha Orbitals:
       Occupied  (B2) (A1) (A1) (B2) (A1) (A1) (A1) (B2) (A1) (B2)
                 (A1) (B2) (A1) (A1) (B1) (B2) (A2) (B1)
       Virtual   (A2) (B2) (B1) (A1) (A1) (B2) (A1) (A1) (B2) (A1)
                 (B2) (A1) (B2) (B1) (B2) (B1) (A2) (A1) (A1) (B2)
                 (A1) (A2) (B1) (B2) (B2) (A1) (A1) (A1) (B2) (A1)
                 (B2) (A1) (A1) (B2) (A1) (B2) (A1) (A1) (B2)
 Beta  Orbitals:
       Occupied  (B2) (A1) (B2) (A1) (A1) (A1) (A1) (B2) (A1) (B2)
                 (A1) (B2) (A1) (A1) (B2) (B1) (A2)
       Virtual   (B1) (B2) (A2) (A1) (B1) (A1) (B2) (A1) (B2) (A1)
                 (A1) (B2) (A1) (B2) (B2) (B1) (A2) (A1) (B1) (A1)
                 (B2) (A1) (A2) (B1) (B2) (B2) (A1) (A1) (B2) (A1)
                 (B2) (A1) (A1) (A1) (B2) (A1) (B2) (A1) (A1) (B2)
 The electronic state is 2-B1.
 Alpha  occ. eigenvalues --  -10.52272 -10.52269 -10.47132 -10.46354 -10.46353
 Alpha  occ. eigenvalues --   -1.38722  -1.25662  -1.20712  -1.06692  -1.04411
 Alpha  occ. eigenvalues --   -0.99584  -0.89621  -0.87376  -0.86274  -0.85074
 Alpha  occ. eigenvalues --   -0.83907  -0.69997  -0.69028
 Alpha virt. eigenvalues --   -0.26052  -0.25471  -0.18874  -0.18189  -0.11251
 Alpha virt. eigenvalues --   -0.06529  -0.04468  -0.02058  -0.02002   0.08670
 Alpha virt. eigenvalues --    0.08975   0.19219   0.19478   0.27744   0.28698
 Alpha virt. eigenvalues --    0.35499   0.35997   0.36775   0.38691   0.39556
 Alpha virt. eigenvalues --    0.39893   0.43554   0.45033   0.52525   0.59456
 Alpha virt. eigenvalues --    0.61762   0.62781   0.65402   0.65484   0.71405
 Alpha virt. eigenvalues --    0.71656   0.75945   0.80123   0.86808   0.94871
 Alpha virt. eigenvalues --    0.95742   1.01648   1.23151   1.24669
  Beta  occ. eigenvalues --  -10.51597 -10.51592 -10.46745 -10.46744 -10.46110
  Beta  occ. eigenvalues --   -1.37337  -1.23592  -1.20533  -1.05544  -1.03641
  Beta  occ. eigenvalues --   -0.99353  -0.89362  -0.87117  -0.85708  -0.83781
  Beta  occ. eigenvalues --   -0.80115  -0.68564
  Beta virt. eigenvalues --   -0.40212  -0.23781  -0.22804  -0.17965  -0.15231
  Beta virt. eigenvalues --   -0.10805  -0.06247  -0.04282  -0.02116  -0.01370
  Beta virt. eigenvalues --    0.09167   0.09294   0.19622   0.19841   0.29128
  Beta virt. eigenvalues --    0.30344   0.37149   0.37376   0.38588   0.39031
  Beta virt. eigenvalues --    0.39876   0.41076   0.44057   0.46722   0.53137
  Beta virt. eigenvalues --    0.59900   0.62708   0.63260   0.65351   0.65866
  Beta virt. eigenvalues --    0.71921   0.72152   0.76776   0.80987   0.86723
  Beta virt. eigenvalues --    0.95331   0.96296   1.02915   1.24118   1.25554
          Condensed to atoms (all electrons):
               1          2          3          4          5          6
     1  C    5.382732   0.490893  -0.042772  -0.122023   0.175716   0.161719
     2  C    0.490893   4.979262   0.449568  -0.025078  -0.122023  -0.021515
     3  C   -0.042772   0.449568   4.908537   0.449568  -0.042772   0.007583
     4  C   -0.122023  -0.025078   0.449568   4.979262   0.490893  -0.021515
     5  C    0.175716  -0.122023  -0.042772   0.490893   5.382732   0.161719
     6  H    0.161719  -0.021515   0.007583  -0.021515   0.161719   0.345580
     7  H    0.335078   0.005159  -0.000534   0.002992  -0.014312  -0.010090
     8  H   -0.022293   0.359959  -0.011043   0.003604   0.000635   0.000285
     9  H    0.004521  -0.024742   0.362108  -0.024742   0.004521  -0.000021
    10  H    0.000635   0.003604  -0.011043   0.359959  -0.022293   0.000285
    11  H   -0.014312   0.002992  -0.000534   0.005159   0.335078  -0.010090
               7          8          9         10         11
     1  C    0.335078  -0.022293   0.004521   0.000635  -0.014312
     2  C    0.005159   0.359959  -0.024742   0.003604   0.002992
     3  C   -0.000534  -0.011043   0.362108  -0.011043  -0.000534
     4  C    0.002992   0.003604  -0.024742   0.359959   0.005159
     5  C   -0.014312   0.000635   0.004521  -0.022293   0.335078
     6  H   -0.010090   0.000285  -0.000021   0.000285  -0.010090
     7  H    0.334092   0.000268  -0.000046  -0.000013   0.000367
     8  H    0.000268   0.372401  -0.000956  -0.000070  -0.000013
     9  H   -0.000046  -0.000956   0.390326  -0.000956  -0.000046
    10  H   -0.000013  -0.000070  -0.000956   0.372401   0.000268
    11  H    0.000367  -0.000013  -0.000046   0.000268   0.334092
          Atomic-Atomic Spin Densities.
               1          2          3          4          5          6
     1  C    0.561012  -0.040645  -0.022129  -0.009598   0.017669  -0.004653
     2  C   -0.040645  -0.319773   0.027343   0.000880  -0.009598   0.000467
     3  C   -0.022129   0.027343   0.762650   0.027343  -0.022129   0.000188
     4  C   -0.009598   0.000880   0.027343  -0.319773  -0.040645   0.000467
     5  C    0.017669  -0.009598  -0.022129  -0.040645   0.561012  -0.004653
     6  H   -0.004653   0.000467   0.000188   0.000467  -0.004653  -0.017433
     7  H   -0.003561  -0.000606   0.000134  -0.000124   0.000154  -0.000090
     8  H   -0.000396   0.002320  -0.001083  -0.000151   0.000085   0.000030
     9  H   -0.000009   0.000023  -0.001746   0.000023  -0.000009  -0.000002
    10  H    0.000085  -0.000151  -0.001083   0.002320  -0.000396   0.000030
    11  H    0.000154  -0.000124   0.000134  -0.000606  -0.003561  -0.000090
               7          8          9         10         11
     1  C   -0.003561  -0.000396  -0.000009   0.000085   0.000154
     2  C   -0.000606   0.002320   0.000023  -0.000151  -0.000124
     3  C    0.000134  -0.001083  -0.001746  -0.001083   0.000134
     4  C   -0.000124  -0.000151   0.000023   0.002320  -0.000606
     5  C    0.000154   0.000085  -0.000009  -0.000396  -0.003561
     6  H   -0.000090   0.000030  -0.000002   0.000030  -0.000090
     7  H   -0.020603   0.000044   0.000004  -0.000000  -0.000080
     8  H    0.000044   0.009847   0.000005  -0.000000  -0.000000
     9  H    0.000004   0.000005  -0.030259   0.000005   0.000004
    10  H   -0.000000  -0.000000   0.000005   0.009847   0.000044
    11  H   -0.000080  -0.000000   0.000004   0.000044  -0.020603
 Mulliken charges and spin densities:
               1          2
     1  C   -0.349895   0.497929
     2  C   -0.098079  -0.339863
     3  C   -0.068667   0.769622
     4  C   -0.098079  -0.339863
     5  C   -0.349895   0.497929
     6  H    0.386060  -0.025738
     7  H    0.347038  -0.024727
     8  H    0.297224   0.010699
     9  H    0.290031  -0.031960
    10  H    0.297224   0.010699
    11  H    0.347038  -0.024727
 Sum of Mulliken charges =   1.00000   1.00000
 Mulliken charges and spin densities with hydrogens summed into heavy atoms:
               1          2
     1  C    0.383203   0.447464
     2  C    0.199145  -0.329164
     3  C    0.221364   0.737662
     4  C    0.199145  -0.329164
     5  C   -0.002857   0.473202
 Electronic spatial extent (au):  <R**2>=            317.2765
 Charge=              1.0000 electrons
 Dipole moment (field-independent basis, Debye):
    X=             -0.0000    Y=             -0.0000    Z=             -2.0687  Tot=              2.0687
 Quadrupole moment (field-independent basis, Debye-Ang):
   XX=            -30.6266   YY=            -16.7453   ZZ=            -12.4465
   XY=              0.0000   XZ=              0.0000   YZ=              0.0000
 Traceless Quadrupole moment (field-independent basis, Debye-Ang):
   XX=            -10.6871   YY=              3.1942   ZZ=              7.4930
   XY=              0.0000   XZ=              0.0000   YZ=              0.0000
 Octapole moment (field-independent basis, Debye-Ang**2):
  XXX=              0.0000  YYY=              0.0000  ZZZ=             -7.6548  XYY=             -0.0000
  XXY=              0.0000  XXZ=              0.6236  XZZ=              0.0000  YZZ=             -0.0000
  YYZ=             -2.6873  XYZ=             -0.0000
 Hexadecapole moment (field-independent basis, Debye-Ang**3):
 XXXX=            -29.8952 YYYY=           -137.7450 ZZZZ=           -118.8144 XXXY=             -0.0000
 XXXZ=             -0.0000 YYYX=             -0.0000 YYYZ=              0.0000 ZZZX=              0.0000
 ZZZY=              0.0000 XXYY=            -40.9917 XXZZ=            -37.6417 YYZZ=            -40.5232
 XXYZ=              0.0000 YYXZ=             -0.0000 ZZXY=             -0.0000
 N-N= 1.560127424860D+02 E-N=-7.529642809380D+02  KE= 1.930730300706D+02
 Symmetry A1   KE= 1.115250018397D+02
 Symmetry A2   KE= 2.580782222058D+00
 Symmetry B1   KE= 3.332360965485D+00
 Symmetry B2   KE= 7.563488504339D+01
 Symmetry A1   SP=-3.635668274006D-14
 Symmetry A2   SP=-2.189221026683D-15
 Symmetry B1   SP= 1.000000000000D+00
 Symmetry B2   SP=-7.347339967337D-15
                          Isotropic Fermi Contact Couplings
        Atom                 a.u.       MegaHertz       Gauss      10(-4) cm-1
     1  C(13)              0.08311      93.42760      33.33729      31.16409
     2  C(13)             -0.06068     -68.21768     -24.34176     -22.75497
     3  C(13)              0.11868     133.41634      47.60627      44.50290
     4  C(13)             -0.06068     -68.21768     -24.34176     -22.75497
     5  C(13)              0.08311      93.42760      33.33729      31.16409
     6  H(1)              -0.00993     -44.40419     -15.84452     -14.81164
     7  H(1)              -0.01097     -49.01379     -17.48934     -16.34924
     8  H(1)               0.00447      19.98795       7.13220       6.66726
     9  H(1)              -0.01497     -66.92113     -23.87912     -22.32249
    10  H(1)               0.00447      19.98795       7.13220       6.66726
    11  H(1)              -0.01097     -49.01379     -17.48934     -16.34924
 --------------------------------------------------------
       Center         ----  Spin Dipole Couplings  ----
                      3XX-RR        3YY-RR        3ZZ-RR
 --------------------------------------------------------
     1   Atom        0.524028     -0.255192     -0.268835
     2   Atom       -0.233984      0.114587      0.119396
     3   Atom        0.727528     -0.372063     -0.355465
     4   Atom       -0.233984      0.114587      0.119396
     5   Atom        0.524028     -0.255192     -0.268835
     6   Atom       -0.009330      0.009352     -0.000022
     7   Atom       -0.007034      0.007447     -0.000414
     8   Atom       -0.005993     -0.003437      0.009430
     9   Atom       -0.008750     -0.047181      0.055931
    10   Atom       -0.005993     -0.003437      0.009430
    11   Atom       -0.007034      0.007447     -0.000414
 --------------------------------------------------------
                        XY            XZ            YZ
 --------------------------------------------------------
     1   Atom       -0.000000      0.000000     -0.008717
     2   Atom       -0.000000      0.000000     -0.004761
     3   Atom       -0.000000     -0.000000      0.000000
     4   Atom       -0.000000     -0.000000      0.004761
     5   Atom        0.000000      0.000000      0.008717
     6   Atom       -0.000000      0.000000     -0.000000
     7   Atom        0.000000      0.000000     -0.037575
     8   Atom       -0.000000      0.000000     -0.007468
     9   Atom       -0.000000     -0.000000      0.000000
    10   Atom        0.000000     -0.000000      0.007468
    11   Atom       -0.000000     -0.000000      0.037575
 --------------------------------------------------------


 ---------------------------------------------------------------------------------
              Anisotropic Spin Dipole Couplings in Principal Axis System
 ---------------------------------------------------------------------------------

       Atom             a.u.   MegaHertz   Gauss  10(-4) cm-1        Axes

              Baa    -0.2731   -36.645   -13.076   -12.223 -0.0000  0.4380  0.8990
     1 C(13)  Bbb    -0.2509   -33.674   -12.016   -11.233 -0.0000  0.8990 -0.4380
              Bcc     0.5240    70.319    25.092    23.456  1.0000  0.0000  0.0000
 
              Baa    -0.2340   -31.398   -11.204   -10.473  1.0000  0.0000  0.0000
     2 C(13)  Bbb     0.1117    14.983     5.346     4.998 -0.0000  0.8517  0.5240
              Bcc     0.1223    16.415     5.857     5.475  0.0000 -0.5240  0.8517
 
              Baa    -0.3721   -49.927   -17.815   -16.654  0.0000  1.0000  0.0000
     3 C(13)  Bbb    -0.3555   -47.700   -17.021   -15.911  0.0000  0.0000  1.0000
              Bcc     0.7275    97.627    34.836    32.565  1.0000  0.0000  0.0000
 
              Baa    -0.2340   -31.398   -11.204   -10.473  1.0000  0.0000  0.0000
     4 C(13)  Bbb     0.1117    14.983     5.346     4.998 -0.0000  0.8517 -0.5240
              Bcc     0.1223    16.415     5.857     5.475 -0.0000  0.5240  0.8517
 
              Baa    -0.2731   -36.645   -13.076   -12.223 -0.0000 -0.4380  0.8990
     5 C(13)  Bbb    -0.2509   -33.674   -12.016   -11.233  0.0000  0.8990  0.4380
              Bcc     0.5240    70.319    25.092    23.456  1.0000 -0.0000  0.0000
 
              Baa    -0.0093    -4.978    -1.776    -1.660  1.0000  0.0000 -0.0000
     6 H(1)   Bbb    -0.0000    -0.012    -0.004    -0.004  0.0000  0.0000  1.0000
              Bcc     0.0094     4.990     1.780     1.664 -0.0000  1.0000 -0.0000
 
              Baa    -0.0343   -18.281    -6.523    -6.098 -0.0000  0.6693  0.7430
     7 H(1)   Bbb    -0.0070    -3.753    -1.339    -1.252  1.0000  0.0000  0.0000
              Bcc     0.0413    22.034     7.862     7.350 -0.0000  0.7430 -0.6693
 
              Baa    -0.0069    -3.660    -1.306    -1.221 -0.0000  0.9090  0.4167
     8 H(1)   Bbb    -0.0060    -3.198    -1.141    -1.067  1.0000  0.0000  0.0000
              Bcc     0.0129     6.858     2.447     2.288  0.0000 -0.4167  0.9090
 
              Baa    -0.0472   -25.174    -8.983    -8.397  0.0000  1.0000 -0.0000
     9 H(1)   Bbb    -0.0088    -4.669    -1.666    -1.557  1.0000 -0.0000  0.0000
              Bcc     0.0559    29.842    10.648     9.954  0.0000  0.0000  1.0000
 
              Baa    -0.0069    -3.660    -1.306    -1.221 -0.0000  0.9090 -0.4167
    10 H(1)   Bbb    -0.0060    -3.198    -1.141    -1.067  1.0000  0.0000 -0.0000
              Bcc     0.0129     6.858     2.447     2.288  0.0000  0.4167  0.9090
 
              Baa    -0.0343   -18.281    -6.523    -6.098  0.0000 -0.6693  0.7430
    11 H(1)   Bbb    -0.0070    -3.753    -1.339    -1.252  1.0000  0.0000  0.0000
              Bcc     0.0413    22.034     7.862     7.350 -0.0000  0.7430  0.6693
 

 ---------------------------------------------------------------------------------

 No NMR shielding tensors so no spin-rotation constants.
 Leave Link  601 at Thu Mar  5 13:02:44 2020, MaxMem=  6710886400 cpu:               3.1 elap:               0.2
 (Enter /opt/ohpc/pub/libs/gaussian/g16-A.03/sandybridge/g16/l9999.exe)

 Test job not archived.
 1\1\GINC-CNODE212\SP\ULC-wHPBE\6-31G\C5H6(1+,2)\SMGO234\05-Mar-2020\0\
 \#P uLC-wHPBE/6-31G iop(3/130=0130300000, 3/131=0130300000, 3/119=0869
 700000, 3/120=0869700000) scf=(conver=6,fermi,ndamp=35,noincfock,novar
 acc,vshift=500,xqc)\\H6 C5\\1,2\C,0,0.,0.878804,-0.931542\C,0,0.,1.128
 157,0.423457\C,0,0.,0.,1.240879\C,0,0.,-1.128157,0.423457\C,0,0.,-0.87
 8804,-0.931542\H,0,0.,0.,-1.732269\H,0,0.,1.6083,-1.734053\H,0,0.,2.15
 6626,0.76567\H,0,0.,0.,2.320778\H,0,0.,-2.156626,0.76567\H,0,0.,-1.608
 3,-1.734053\\Version=EM64L-G16RevA.03\State=2-B1\HF=-198.5357735\S2=0.
 83682\S2-1=0.\S2A=0.754219\RMSD=6.460e-07\Dipole=0.,0.,-0.8138834\Quad
 rupole=-7.9456222,2.3747869,5.5708353,0.,0.,0.\PG=C02V [C2(H1C1H1),SGV
 (C4H4)]\\@


 ...THE PHYSICISTS HAVE MADE THEIR UNIVERSE, AND IF YOU DO NOT LIKE
 IT, YOU MUST MAKE YOUR OWN.
                               -- E. R. HARRISON IN "COSMOLOGY" (1980)
 Job cpu time:       0 days  0 hours  1 minutes  0.6 seconds.
 Elapsed time:       0 days  0 hours  0 minutes  4.1 seconds.
 File lengths (MBytes):  RWF=    272 Int=      0 D2E=      0 Chk=     32 Scr=     32
 Normal termination of Gaussian 16 at Thu Mar  5 13:02:45 2020.
