 Entering Gaussian System, Link 0=g16
 Input=a1b_tune_c0.gjf
 Output=a1b_tune_c0.log
 Initial command:
 /opt/ohpc/pub/libs/gaussian/g16-A.03/sandybridge/g16/l1.exe "/scratch/smgo234/Ocelot/test/a1b/tuning_a1b_acycle3/Gau-88618.inp" -scrdir="/scratch/smgo234/Ocelot/test/a1b/tuning_a1b_acycle3/"
 Entering Link 1 = /opt/ohpc/pub/libs/gaussian/g16-A.03/sandybridge/g16/l1.exe PID=     88619.
  
 Copyright (c) 1988,1990,1992,1993,1995,1998,2003,2009,2016,
            Gaussian, Inc.  All Rights Reserved.
  
 This is part of the Gaussian(R) 16 program.  It is based on
 the Gaussian(R) 09 system (copyright 2009, Gaussian, Inc.),
 the Gaussian(R) 03 system (copyright 2003, Gaussian, Inc.),
 the Gaussian(R) 98 system (copyright 1998, Gaussian, Inc.),
 the Gaussian(R) 94 system (copyright 1995, Gaussian, Inc.),
 the Gaussian 92(TM) system (copyright 1992, Gaussian, Inc.),
 the Gaussian 90(TM) system (copyright 1990, Gaussian, Inc.),
 the Gaussian 88(TM) system (copyright 1988, Gaussian, Inc.),
 the Gaussian 86(TM) system (copyright 1986, Carnegie Mellon
 University), and the Gaussian 82(TM) system (copyright 1983,
 Carnegie Mellon University). Gaussian is a federally registered
 trademark of Gaussian, Inc.
  
 This software contains proprietary and confidential information,
 including trade secrets, belonging to Gaussian, Inc.
  
 This software is provided under written license and may be
 used, copied, transmitted, or stored only in accord with that
 written license.
  
 The following legend is applicable only to US Government
 contracts under FAR:
  
                    RESTRICTED RIGHTS LEGEND
  
 Use, reproduction and disclosure by the US Government is
 subject to restrictions as set forth in subparagraphs (a)
 and (c) of the Commercial Computer Software - Restricted
 Rights clause in FAR 52.227-19.
  
 Gaussian, Inc.
 340 Quinnipiac St., Bldg. 40, Wallingford CT 06492
  
  
 ---------------------------------------------------------------
 Warning -- This program may not be used in any manner that
 competes with the business of Gaussian, Inc. or will provide
 assistance to any competitor of Gaussian, Inc.  The licensee
 of this program is prohibited from giving any competitor of
 Gaussian, Inc. access to this program.  By using this program,
 the user acknowledges that Gaussian, Inc. is engaged in the
 business of creating and licensing software in the field of
 computational chemistry and represents and warrants to the
 licensee that it is not a competitor of Gaussian, Inc. and that
 it will not use this program in any manner prohibited above.
 ---------------------------------------------------------------
  

 Cite this work as:
 Gaussian 16, Revision A.03,
 M. J. Frisch, G. W. Trucks, H. B. Schlegel, G. E. Scuseria, 
 M. A. Robb, J. R. Cheeseman, G. Scalmani, V. Barone, 
 G. A. Petersson, H. Nakatsuji, X. Li, M. Caricato, A. V. Marenich, 
 J. Bloino, B. G. Janesko, R. Gomperts, B. Mennucci, H. P. Hratchian, 
 J. V. Ortiz, A. F. Izmaylov, J. L. Sonnenberg, D. Williams-Young, 
 F. Ding, F. Lipparini, F. Egidi, J. Goings, B. Peng, A. Petrone, 
 T. Henderson, D. Ranasinghe, V. G. Zakrzewski, J. Gao, N. Rega, 
 G. Zheng, W. Liang, M. Hada, M. Ehara, K. Toyota, R. Fukuda, 
 J. Hasegawa, M. Ishida, T. Nakajima, Y. Honda, O. Kitao, H. Nakai, 
 T. Vreven, K. Throssell, J. A. Montgomery, Jr., J. E. Peralta, 
 F. Ogliaro, M. J. Bearpark, J. J. Heyd, E. N. Brothers, K. N. Kudin, 
 V. N. Staroverov, T. A. Keith, R. Kobayashi, J. Normand, 
 K. Raghavachari, A. P. Rendell, J. C. Burant, S. S. Iyengar, 
 J. Tomasi, M. Cossi, J. M. Millam, M. Klene, C. Adamo, R. Cammi, 
 J. W. Ochterski, R. L. Martin, K. Morokuma, O. Farkas, 
 J. B. Foresman, and D. J. Fox, Gaussian, Inc., Wallingford CT, 2016.
 
 ******************************************
 Gaussian 16:  EM64L-G16RevA.03 25-Dec-2016
                 5-Mar-2020 
 ******************************************
 %mem=50GB
 %nproc=16
 Will use up to   16 processors via shared memory.
 ----------------------------------------------------------------------
 #P uLC-wHPBE/6-31G iop(3/130=0066200000, 3/131=0066200000, 3/119=09338
 00000, 3/120=0933800000) scf=(conver=6,fermi,ndamp=35,noincfock,novara
 cc,vshift=500,xqc)
 ----------------------------------------------------------------------
 1/38=1,172=1/1;
 2/12=2,17=6,18=5,40=1/2;
 3/5=1,6=6,11=2,25=1,30=1,74=-71,116=2,119=933800000,120=933800000,130=66200000,131=66200000/1,2,3;
 4//1;
 5/5=100002,6=6,8=3,10=500,13=1,18=-1,22=13,38=1,93=35/2,8;
 6/7=2,8=2,9=2,10=2,28=1/1;
 99/5=1,9=1/99;
 Leave Link    1 at Thu Mar  5 13:02:16 2020, MaxMem=  6710886400 cpu:              13.5 elap:               0.9
 (Enter /opt/ohpc/pub/libs/gaussian/g16-A.03/sandybridge/g16/l101.exe)
 -----
 H6 C5
 -----
 Symbolic Z-matrix:
 Charge =  1 Multiplicity = 2
 C                     0.        0.8788   -0.93154 
 C                     0.        1.12816   0.42346 
 C                     0.        0.        1.24088 
 C                     0.       -1.12816   0.42346 
 C                     0.       -0.8788   -0.93154 
 H                     0.        0.       -1.73227 
 H                     0.        1.6083   -1.73405 
 H                     0.        2.15663   0.76567 
 H                     0.        0.        2.32078 
 H                     0.       -2.15663   0.76567 
 H                     0.       -1.6083   -1.73405 
 
 ITRead=  0  0  0  0  0  0  0  0  0  0  0
 MicOpt= -1 -1 -1 -1 -1 -1 -1 -1 -1 -1 -1
 NAtoms=     11 NQM=       11 NQMF=       0 NMMI=      0 NMMIF=      0
                NMic=       0 NMicF=      0.
                    Isotopes and Nuclear Properties:
 (Nuclear quadrupole moments (NQMom) in fm**2, nuclear magnetic moments (NMagM)
  in nuclear magnetons)

  Atom         1           2           3           4           5           6           7           8           9          10
 IAtWgt=          12          12          12          12          12           1           1           1           1           1
 AtmWgt=  12.0000000  12.0000000  12.0000000  12.0000000  12.0000000   1.0078250   1.0078250   1.0078250   1.0078250   1.0078250
 NucSpn=           0           0           0           0           0           1           1           1           1           1
 AtZEff=  -0.0000000  -0.0000000  -0.0000000  -0.0000000  -0.0000000  -0.0000000  -0.0000000  -0.0000000  -0.0000000  -0.0000000
 NQMom=    0.0000000   0.0000000   0.0000000   0.0000000   0.0000000   0.0000000   0.0000000   0.0000000   0.0000000   0.0000000
 NMagM=    0.0000000   0.0000000   0.0000000   0.0000000   0.0000000   2.7928460   2.7928460   2.7928460   2.7928460   2.7928460
 AtZNuc=   6.0000000   6.0000000   6.0000000   6.0000000   6.0000000   1.0000000   1.0000000   1.0000000   1.0000000   1.0000000

  Atom        11
 IAtWgt=           1
 AtmWgt=   1.0078250
 NucSpn=           1
 AtZEff=  -0.0000000
 NQMom=    0.0000000
 NMagM=    2.7928460
 AtZNuc=   1.0000000
 Leave Link  101 at Thu Mar  5 13:02:16 2020, MaxMem=  6710886400 cpu:               2.6 elap:               0.2
 (Enter /opt/ohpc/pub/libs/gaussian/g16-A.03/sandybridge/g16/l202.exe)
                          Input orientation:                          
 ---------------------------------------------------------------------
 Center     Atomic      Atomic             Coordinates (Angstroms)
 Number     Number       Type             X           Y           Z
 ---------------------------------------------------------------------
      1          6           0        0.000000    0.878804   -0.931542
      2          6           0        0.000000    1.128157    0.423457
      3          6           0        0.000000    0.000000    1.240879
      4          6           0        0.000000   -1.128157    0.423457
      5          6           0        0.000000   -0.878804   -0.931542
      6          1           0        0.000000    0.000000   -1.732269
      7          1           0        0.000000    1.608300   -1.734053
      8          1           0        0.000000    2.156626    0.765670
      9          1           0        0.000000    0.000000    2.320778
     10          1           0        0.000000   -2.156626    0.765670
     11          1           0        0.000000   -1.608300   -1.734053
 ---------------------------------------------------------------------
                    Distance matrix (angstroms):
                    1          2          3          4          5
     1  C    0.000000
     2  C    1.377752   0.000000
     3  C    2.343440   1.393168   0.000000
     4  C    2.421552   2.256314   1.393168   0.000000
     5  C    1.757608   2.421552   2.343440   1.377752   0.000000
     6  H    1.188890   2.433083   2.973148   2.433083   1.188890
     7  H    1.084522   2.210291   3.381841   3.484687   2.613371
     8  H    2.124466   1.083909   2.208361   3.302561   3.477695
     9  H    3.368959   2.207389   1.079899   2.207389   3.368959
    10  H    3.477695   3.302561   2.208361   1.083909   2.124466
    11  H    2.613371   3.484687   3.381841   2.210291   1.084522
                    6          7          8          9         10
     6  H    0.000000
     7  H    1.608301   0.000000
     8  H    3.300111   2.559155   0.000000
     9  H    4.053047   4.362142   2.658834   0.000000
    10  H    3.300111   4.519213   4.313252   2.658834   0.000000
    11  H    1.608301   3.216600   4.519213   4.362142   2.559155
                   11
    11  H    0.000000
 Stoichiometry    C5H6(1+,2)
 Framework group  C2V[C2(HCH),SGV(C4H4)]
 Deg. of freedom    10
 Full point group                 C2V     NOp   4
 Largest Abelian subgroup         C2V     NOp   4
 Largest concise Abelian subgroup C2      NOp   2
                         Standard orientation:                         
 ---------------------------------------------------------------------
 Center     Atomic      Atomic             Coordinates (Angstroms)
 Number     Number       Type             X           Y           Z
 ---------------------------------------------------------------------
      1          6           0        0.000000    0.878804   -0.931542
      2          6           0        0.000000    1.128157    0.423457
      3          6           0        0.000000   -0.000000    1.240879
      4          6           0       -0.000000   -1.128157    0.423457
      5          6           0       -0.000000   -0.878804   -0.931542
      6          1           0       -0.000000    0.000000   -1.732269
      7          1           0        0.000000    1.608300   -1.734053
      8          1           0        0.000000    2.156626    0.765670
      9          1           0        0.000000   -0.000000    2.320778
     10          1           0       -0.000000   -2.156626    0.765670
     11          1           0       -0.000000   -1.608300   -1.734053
 ---------------------------------------------------------------------
 Rotational constants (GHZ):           8.5259551           7.9375455           4.1106177
 Leave Link  202 at Thu Mar  5 13:02:16 2020, MaxMem=  6710886400 cpu:               0.2 elap:               0.0
 (Enter /opt/ohpc/pub/libs/gaussian/g16-A.03/sandybridge/g16/l301.exe)
 Standard basis: 6-31G (6D, 7F)
 Ernie: Thresh=  0.10000D-02 Tol=  0.10000D-05 Strict=F.
 There are    27 symmetry adapted cartesian basis functions of A1  symmetry.
 There are     4 symmetry adapted cartesian basis functions of A2  symmetry.
 There are     6 symmetry adapted cartesian basis functions of B1  symmetry.
 There are    20 symmetry adapted cartesian basis functions of B2  symmetry.
 There are    27 symmetry adapted basis functions of A1  symmetry.
 There are     4 symmetry adapted basis functions of A2  symmetry.
 There are     6 symmetry adapted basis functions of B1  symmetry.
 There are    20 symmetry adapted basis functions of B2  symmetry.
    57 basis functions,   134 primitive gaussians,    57 cartesian basis functions
    18 alpha electrons       17 beta electrons
       nuclear repulsion energy       156.0127424860 Hartrees.
 IExCor=33909 DFT=T Ex+Corr=LC-wHPBE ExCW=0 ScaHFX=  1.000000
 ScaDFX=  1.000000  1.000000  1.000000  1.000000 ScalE2=  1.000000  1.000000
 IRadAn=      5 IRanWt=     -1 IRanGd=            0 ICorTp=0 IEmpDi=  4
 HFx  wShort=  0.000000 wLong=  0.400000 cFull=  0.000000 cShort=  0.000000 cLong=  0.933800
 DFx  wShort=  0.000000 wLong=  0.400000 cFull=  0.000000 cShort=  0.000000 cLong=  0.933800
 NAtoms=   11 NActive=   11 NUniq=    7 SFac= 2.47D+00 NAtFMM=   60 NAOKFM=F Big=F
 Integral buffers will be    131072 words long.
 Raffenetti 2 integral format.
 Two-electron integral symmetry is turned on.
 Leave Link  301 at Thu Mar  5 13:02:16 2020, MaxMem=  6710886400 cpu:               0.9 elap:               0.1
 (Enter /opt/ohpc/pub/libs/gaussian/g16-A.03/sandybridge/g16/l302.exe)
 NPDir=0 NMtPBC=     1 NCelOv=     1 NCel=       1 NClECP=     1 NCelD=      1
         NCelK=      1 NCelE2=     1 NClLst=     1 CellRange=     0.0.
 One-electron integrals computed using PRISM.
 One-electron integral symmetry used in STVInt
 NBasis=    57 RedAO= T EigKep=  1.84D-03  NBF=    27     4     6    20
 NBsUse=    57 1.00D-06 EigRej= -1.00D+00 NBFU=    27     4     6    20
 Precomputing XC quadrature grid using
 IXCGrd= 4 IRadAn=           5 IRanWt=          -1 IRanGd=           0 AccXCQ= 0.00D+00.
 Generated NRdTot=       0 NPtTot=           0 NUsed=           0 NTot=          32
 NSgBfM=    57    57    57    57    57 MxSgAt=    11 MxSgA2=    11.
 Leave Link  302 at Thu Mar  5 13:02:16 2020, MaxMem=  6710886400 cpu:               2.0 elap:               0.1
 (Enter /opt/ohpc/pub/libs/gaussian/g16-A.03/sandybridge/g16/l303.exe)
 DipDrv:  MaxL=1.
 Leave Link  303 at Thu Mar  5 13:02:16 2020, MaxMem=  6710886400 cpu:               0.7 elap:               0.1
 (Enter /opt/ohpc/pub/libs/gaussian/g16-A.03/sandybridge/g16/l401.exe)
 ExpMin= 1.61D-01 ExpMax= 3.05D+03 ExpMxC= 4.57D+02 IAcc=3 IRadAn=         5 AccDes= 0.00D+00
 Harris functional with IExCor=33909 and IRadAn=       5 diagonalized for initial guess.
 HarFok:  IExCor=33909 AccDes= 0.00D+00 IRadAn=         5 IDoV= 1 UseB2=F ITyADJ=14
 ICtDFT=  3500011 ScaDFX=  1.000000  1.000000  1.000000  1.000000
 FoFCou: FMM=F IPFlag=           0 FMFlag=      100000 FMFlg1=           0
         NFxFlg=           0 DoJE=T BraDBF=F KetDBF=T FulRan=T
         wScrn=  0.000000 ICntrl=       500 IOpCl=  0 I1Cent=   200000004 NGrid=           0
         NMat0=    1 NMatS0=      1 NMatT0=    0 NMatD0=    1 NMtDS0=    0 NMtDT0=    0
 Petite list used in FoFCou.
 Harris En= -172.842492504242    
 JPrj=0 DoOrth=F DoCkMO=F.
 Initial guess orbital symmetries:
 Alpha Orbitals:
       Occupied  (A1) (B2) (A1) (B2) (A1) (A1) (A1) (B2) (A1) (A1)
                 (B2) (B2) (B1) (A1) (A1) (B2) (A2) (B1)
       Virtual   (A2) (A1) (B2) (B1) (A1) (B2) (A1) (A1) (B2) (A1)
                 (B2) (B2) (A1) (B1) (B2) (A2) (A1) (B1) (A1) (B2)
                 (A2) (A1) (B1) (B2) (A1) (B2) (B2) (A1) (A1) (B2)
                 (A1) (A1) (A1) (B2) (B2) (A1) (A1) (A1) (B2)
 Beta  Orbitals:
       Occupied  (A1) (B2) (A1) (B2) (A1) (A1) (A1) (B2) (A1) (A1)
                 (B2) (B2) (B1) (A1) (A1) (B2) (A2)
       Virtual   (B1) (A2) (A1) (B2) (B1) (A1) (B2) (A1) (A1) (B2)
                 (A1) (B2) (B2) (A1) (B1) (B2) (A2) (A1) (B1) (A1)
                 (B2) (A2) (A1) (B1) (B2) (A1) (B2) (B2) (A1) (A1)
                 (B2) (A1) (A1) (A1) (B2) (B2) (A1) (A1) (A1) (B2)
 The electronic state of the initial guess is 2-B1.
 Initial guess <Sx>= 0.0000 <Sy>= 0.0000 <Sz>= 0.5000 <S**2>= 0.7500 S= 0.5000
 Leave Link  401 at Thu Mar  5 13:02:17 2020, MaxMem=  6710886400 cpu:               3.0 elap:               0.2
 (Enter /opt/ohpc/pub/libs/gaussian/g16-A.03/sandybridge/g16/l502.exe)
 Keep R1 and R2 ints in memory in symmetry-blocked form, NReq=16815681.
 FoFCou: FMM=F IPFlag=           0 FMFlag=           0 FMFlg1=           0
         NFxFlg=           0 DoJE=F BraDBF=F KetDBF=F FulRan=T
         wScrn=  0.000000 ICntrl=       600 IOpCl=  0 I1Cent=           0 NGrid=           0
         NMat0=    1 NMatS0=   1653 NMatT0=    0 NMatD0=    1 NMtDS0=    0 NMtDT0=    0
 Petite list used in FoFCou.
 UHF open shell SCF:
 Using DIIS extrapolation, IDIIS=    10.
 NGot=  6710886400 LenX=  6710059561 LenY=  6710055871
 Requested convergence on RMS density matrix=1.00D-06 within  32 cycles.
 Requested convergence on MAX density matrix=1.00D-04.
 Requested convergence on             energy=1.00D-04.
 Virtual orbitals will be shifted by   0.500 hartree.
 No special actions if energy rises.
 Dynamic level shift is on during FON iterations.

 Cycle   1  Pass 1  IDiag  1:
 E= -178.736792072935    
 DIIS: error= 6.64D-02 at cycle   1 NSaved=   1.
 NSaved= 1 IEnMin= 1 EnMin= -178.736792072935     IErMin= 1 ErrMin= 6.64D-02
 ErrMax= 6.64D-02  0.00D+00 EMaxC= 1.00D+00 BMatC= 7.86D-01 BMatP= 7.86D-01
 IDIUse=1 WtCom= 1.00D+00 WtEn= 0.00D+00
 Coeff-Com:  0.100D+01
 Coeff:      0.100D+01
 Gap=     0.425 Goal=   None    Shift=    0.500
 T= 1973. Gap= 0.883 NK=0 IS=   19 IE=   57 IFin=   18
          NO(<0.9)=   0  NV(>0.1)=   0     18.00e < EF      0.00e >EF  Err=0.0D+00
 Gap=     0.232 Goal=   None    Shift=    0.500
 T= 1973. Gap= 0.730 NK=0 IS=   18 IE=   57 IFin=   17
          NO(<0.9)=   0  NV(>0.1)=   0     17.00e < EF      0.00e >EF  Err=0.0D+00
 GapD=    0.232 DampG=1.000 DampE=0.500 DampFc=0.5000 IDamp=-1.
 Damping current iteration by 5.00D-01
 RMSDP=1.23D-02 MaxDP=9.97D-02              OVMax= 1.11D-01

 Cycle   2  Pass 1  IDiag  1:
 E= -178.875996666771     Delta-E=       -0.139204593837 Rises=F Damp=T
 DIIS: error= 2.92D-02 at cycle   2 NSaved=   2.
 NSaved= 2 IEnMin= 2 EnMin= -178.875996666771     IErMin= 2 ErrMin= 2.92D-02
 ErrMax= 2.92D-02  0.00D+00 EMaxC= 1.00D+00 BMatC= 1.45D-01 BMatP= 7.86D-01
 IDIUse=1 WtCom= 1.00D+00 WtEn= 0.00D+00
 Coeff-Com: -0.666D+00 0.167D+01
 Coeff:     -0.666D+00 0.167D+01
 Gap=     0.443 Goal=   None    Shift=    0.500
 T= 1849. Gap= 0.926 NK=0 IS=   19 IE=   57 IFin=   18
          NO(<0.9)=   0  NV(>0.1)=   0     18.00e < EF      0.00e >EF  Err=0.0D+00
 Gap=     0.254 Goal=   None    Shift=    0.500
 T= 1849. Gap= 0.746 NK=0 IS=   18 IE=   57 IFin=   17
          NO(<0.9)=   0  NV(>0.1)=   0     17.00e < EF      0.00e >EF  Err=0.0D+00
 GapD=    0.254 DampG=1.000 DampE=0.500 DampFc=0.5000 IDamp=-1.
 Damping current iteration by 5.00D-01
 RMSDP=8.50D-03 MaxDP=7.51D-02 DE=-1.39D-01 OVMax= 1.29D-02

 Cycle   3  Pass 1  IDiag  1:
 E= -178.926531934766     Delta-E=       -0.050535267995 Rises=F Damp=T
 DIIS: error= 1.31D-02 at cycle   3 NSaved=   3.
 NSaved= 3 IEnMin= 3 EnMin= -178.926531934766     IErMin= 3 ErrMin= 1.31D-02
 ErrMax= 1.31D-02  0.00D+00 EMaxC= 1.00D+00 BMatC= 3.15D-02 BMatP= 1.45D-01
 IDIUse=1 WtCom= 1.00D+00 WtEn= 0.00D+00
 Coeff-Com:  0.260D+00-0.169D+01 0.243D+01
 Coeff:      0.260D+00-0.169D+01 0.243D+01
 Gap=     0.425 Goal=   None    Shift=    0.500
 T= 1609. Gap= 0.925 NK=0 IS=   19 IE=   57 IFin=   18
          NO(<0.9)=   0  NV(>0.1)=   0     18.00e < EF      0.00e >EF  Err=0.0D+00
 Gap=     0.250 Goal=   None    Shift=    0.500
 T= 1609. Gap= 0.750 NK=0 IS=   18 IE=   57 IFin=   17
          NO(<0.9)=   0  NV(>0.1)=   0     17.00e < EF      0.00e >EF  Err=0.0D+00
 GapD=    0.250 DampG=1.000 DampE=0.500 DampFc=0.5000 IDamp=-1.
 Damping current iteration by 5.00D-01
 RMSDP=5.36D-03 MaxDP=4.88D-02 DE=-5.05D-02 OVMax= 1.18D-02

 Cycle   4  Pass 1  IDiag  1:
 E= -178.948722601695     Delta-E=       -0.022190666930 Rises=F Damp=T
 DIIS: error= 6.28D-03 at cycle   4 NSaved=   4.
 NSaved= 4 IEnMin= 4 EnMin= -178.948722601695     IErMin= 4 ErrMin= 6.28D-03
 ErrMax= 6.28D-03  0.00D+00 EMaxC= 1.00D+00 BMatC= 7.94D-03 BMatP= 3.15D-02
 IDIUse=1 WtCom= 1.00D+00 WtEn= 0.00D+00
 Coeff-Com:  0.156D+00-0.490D+00-0.660D+00 0.199D+01
 Coeff:      0.156D+00-0.490D+00-0.660D+00 0.199D+01
 Gap=     0.427 Goal=   None    Shift=    0.500
 T= 1127. Gap= 0.927 NK=0 IS=   19 IE=   57 IFin=   18
          NO(<0.9)=   0  NV(>0.1)=   0     18.00e < EF      0.00e >EF  Err=0.0D+00
 Gap=     0.251 Goal=   None    Shift=    0.500
 T= 1127. Gap= 0.751 NK=0 IS=   18 IE=   57 IFin=   17
          NO(<0.9)=   0  NV(>0.1)=   0     17.00e < EF      0.00e >EF  Err=0.0D+00
 GapD=    0.251 DampG=1.000 DampE=1.000 DampFc=1.0000 IDamp=-1.
 RMSDP=3.15D-03 MaxDP=2.93D-02 DE=-2.22D-02 OVMax= 6.09D-03

 Cycle   5  Pass 1  IDiag  1:
 E= -178.969848361016     Delta-E=       -0.021125759320 Rises=F Damp=F
 DIIS: error= 1.66D-03 at cycle   5 NSaved=   5.
 NSaved= 5 IEnMin= 5 EnMin= -178.969848361016     IErMin= 5 ErrMin= 1.66D-03
 ErrMax= 1.66D-03  0.00D+00 EMaxC= 1.00D+00 BMatC= 1.69D-04 BMatP= 7.94D-03
 IDIUse=1 WtCom= 1.00D+00 WtEn= 0.00D+00
 Coeff-Com: -0.447D-01 0.244D+00 0.163D+00-0.985D+00 0.162D+01
 Coeff:     -0.447D-01 0.244D+00 0.163D+00-0.985D+00 0.162D+01
 Gap=     0.427 Goal=   None    Shift=    0.500
 T=  625. Gap= 0.927 NK=0 IS=   19 IE=   57 IFin=   18
          NO(<0.9)=   0  NV(>0.1)=   0     18.00e < EF      0.00e >EF  Err=0.0D+00
 Gap=     0.252 Goal=   None    Shift=    0.500
 T=  625. Gap= 0.752 NK=0 IS=   18 IE=   57 IFin=   17
          NO(<0.9)=   0  NV(>0.1)=   0     17.00e < EF      0.00e >EF  Err=0.0D+00
 GapD=    0.252 DampG=1.000 DampE=1.000 DampFc=1.0000 IDamp=-1.
 RMSDP=3.33D-04 MaxDP=2.88D-03 DE=-2.11D-02 OVMax= 5.92D-03

 Cycle   6  Pass 1  IDiag  1:
 E= -178.969991396882     Delta-E=       -0.000143035866 Rises=F Damp=F
 DIIS: error= 1.25D-03 at cycle   6 NSaved=   6.
 NSaved= 6 IEnMin= 6 EnMin= -178.969991396882     IErMin= 6 ErrMin= 1.25D-03
 ErrMax= 1.25D-03  0.00D+00 EMaxC= 1.00D+00 BMatC= 5.55D-05 BMatP= 1.69D-04
 IDIUse=1 WtCom= 1.00D+00 WtEn= 0.00D+00
 Coeff-Com: -0.101D-01-0.421D-01 0.901D-01 0.778D-01-0.165D+01 0.253D+01
 Coeff:     -0.101D-01-0.421D-01 0.901D-01 0.778D-01-0.165D+01 0.253D+01
 Gap=     0.427 Goal=   None    Shift=    0.500
 T=  127. Gap= 0.928 NK=0 IS=   19 IE=   57 IFin=   18
          NO(<0.9)=   0  NV(>0.1)=   0     18.00e < EF      0.00e >EF  Err=0.0D+00
 Gap=     0.252 Goal=   None    Shift=    0.500
 T=  127. Gap= 0.752 NK=0 IS=   18 IE=   57 IFin=   17
          NO(<0.9)=   0  NV(>0.1)=   0     17.00e < EF      0.00e >EF  Err=0.0D+00
 GapD=    0.252 DampG=1.000 DampE=1.000 DampFc=1.0000 IDamp=-1.
 RMSDP=1.85D-04 MaxDP=2.51D-03 DE=-1.43D-04 OVMax= 4.99D-03

 Cycle   7  Pass 1  IDiag  1:
 E= -178.970058127902     Delta-E=       -0.000066731020 Rises=F Damp=F
 DIIS: error= 9.09D-04 at cycle   7 NSaved=   7.
 NSaved= 7 IEnMin= 7 EnMin= -178.970058127902     IErMin= 7 ErrMin= 9.09D-04
 ErrMax= 9.09D-04  0.00D+00 EMaxC= 1.00D+00 BMatC= 1.94D-05 BMatP= 5.55D-05
 IDIUse=1 WtCom= 1.00D+00 WtEn= 0.00D+00
 Coeff-Com:  0.976D-02-0.186D-01-0.193D+00 0.383D+00-0.194D+00-0.138D+01
 Coeff-Com:  0.240D+01
 Coeff:      0.976D-02-0.186D-01-0.193D+00 0.383D+00-0.194D+00-0.138D+01
 Coeff:      0.240D+01
 Gap=     0.428 Goal=   None    Shift=    0.500
 Gap=     0.253 Goal=   None    Shift=    0.500
 RMSDP=1.03D-04 MaxDP=1.78D-03 DE=-6.67D-05 OVMax= 3.53D-03

 Cycle   8  Pass 1  IDiag  1:
 E= -178.970085348522     Delta-E=       -0.000027220621 Rises=F Damp=F
 DIIS: error= 6.27D-04 at cycle   8 NSaved=   8.
 NSaved= 8 IEnMin= 8 EnMin= -178.970085348522     IErMin= 8 ErrMin= 6.27D-04
 ErrMax= 6.27D-04  0.00D+00 EMaxC= 1.00D+00 BMatC= 7.03D-06 BMatP= 1.94D-05
 IDIUse=1 WtCom= 1.00D+00 WtEn= 0.00D+00
 Coeff-Com:  0.341D-02 0.136D-01-0.130D+00 0.174D+00 0.225D+00-0.943D+00
 Coeff-Com: -0.745D-01 0.173D+01
 Coeff:      0.341D-02 0.136D-01-0.130D+00 0.174D+00 0.225D+00-0.943D+00
 Coeff:     -0.745D-01 0.173D+01
 Gap=     0.428 Goal=   None    Shift=    0.500
 Gap=     0.253 Goal=   None    Shift=    0.500
 RMSDP=5.76D-05 MaxDP=1.13D-03 DE=-2.72D-05 OVMax= 2.37D-03

 Cycle   9  Pass 1  IDiag  1:
 E= -178.970095405000     Delta-E=       -0.000010056478 Rises=F Damp=F
 DIIS: error= 3.98D-04 at cycle   9 NSaved=   9.
 NSaved= 9 IEnMin= 9 EnMin= -178.970095405000     IErMin= 9 ErrMin= 3.98D-04
 ErrMax= 3.98D-04  0.00D+00 EMaxC= 1.00D+00 BMatC= 2.67D-06 BMatP= 7.03D-06
 IDIUse=1 WtCom= 1.00D+00 WtEn= 0.00D+00
 Coeff-Com: -0.428D-02 0.183D-01 0.130D-01-0.673D-01 0.107D+00 0.406D+00
 Coeff-Com: -0.137D+01-0.630D-01 0.196D+01
 Coeff:     -0.428D-02 0.183D-01 0.130D-01-0.673D-01 0.107D+00 0.406D+00
 Coeff:     -0.137D+01-0.630D-01 0.196D+01
 Gap=     0.428 Goal=   None    Shift=    0.500
 Gap=     0.253 Goal=   None    Shift=    0.500
 RMSDP=3.52D-05 MaxDP=6.78D-04 DE=-1.01D-05 OVMax= 1.56D-03

 Cycle  10  Pass 1  IDiag  1:
 E= -178.970099188181     Delta-E=       -0.000003783180 Rises=F Damp=F
 DIIS: error= 2.57D-04 at cycle  10 NSaved=  10.
 NSaved=10 IEnMin=10 EnMin= -178.970099188181     IErMin=10 ErrMin= 2.57D-04
 ErrMax= 2.57D-04  0.00D+00 EMaxC= 1.00D+00 BMatC= 9.79D-07 BMatP= 2.67D-06
 IDIUse=1 WtCom= 1.00D+00 WtEn= 0.00D+00
 Coeff-Com:  0.803D-03-0.304D-02-0.233D-01 0.533D-01-0.115D+00 0.108D+00
 Coeff-Com:  0.290D+00-0.260D+00-0.196D+01 0.291D+01
 Coeff:      0.803D-03-0.304D-02-0.233D-01 0.533D-01-0.115D+00 0.108D+00
 Coeff:      0.290D+00-0.260D+00-0.196D+01 0.291D+01
 Gap=     0.428 Goal=   None    Shift=    0.500
 Gap=     0.253 Goal=   None    Shift=    0.500
 RMSDP=1.96D-05 MaxDP=3.61D-04 DE=-3.78D-06 OVMax= 1.01D-03

 Cycle  11  Pass 1  IDiag  1:
 E= -178.970100484689     Delta-E=       -0.000001296508 Rises=F Damp=F
 DIIS: error= 1.58D-04 at cycle  11 NSaved=  11.
 NSaved=11 IEnMin=11 EnMin= -178.970100484689     IErMin=11 ErrMin= 1.58D-04
 ErrMax= 1.58D-04  0.00D+00 EMaxC= 1.00D+00 BMatC= 3.28D-07 BMatP= 9.79D-07
 IDIUse=1 WtCom= 1.00D+00 WtEn= 0.00D+00
 Coeff-Com:  0.149D-03 0.159D-02-0.429D-02 0.751D-03 0.349D-01-0.108D+00
 Coeff-Com:  0.900D-01 0.289D-01 0.724D+00-0.320D+01 0.344D+01
 Coeff:      0.149D-03 0.159D-02-0.429D-02 0.751D-03 0.349D-01-0.108D+00
 Coeff:      0.900D-01 0.289D-01 0.724D+00-0.320D+01 0.344D+01
 Gap=     0.428 Goal=   None    Shift=    0.500
 Gap=     0.253 Goal=   None    Shift=    0.500
 RMSDP=1.07D-05 MaxDP=1.77D-04 DE=-1.30D-06 OVMax= 6.37D-04

 Cycle  12  Pass 1  IDiag  1:
 E= -178.970100908211     Delta-E=       -0.000000423522 Rises=F Damp=F
 DIIS: error= 9.56D-05 at cycle  12 NSaved=  12.
 NSaved=12 IEnMin=12 EnMin= -178.970100908211     IErMin=12 ErrMin= 9.56D-05
 ErrMax= 9.56D-05  0.00D+00 EMaxC= 1.00D+00 BMatC= 1.10D-07 BMatP= 3.28D-07
 IDIUse=1 WtCom= 1.00D+00 WtEn= 0.00D+00
 Coeff-Com: -0.789D-04-0.887D-03 0.611D-03 0.280D-02-0.207D-01 0.796D-01
 Coeff-Com: -0.834D-01-0.101D+00-0.482D-01 0.143D+01-0.391D+01 0.365D+01
 Coeff:     -0.789D-04-0.887D-03 0.611D-03 0.280D-02-0.207D-01 0.796D-01
 Coeff:     -0.834D-01-0.101D+00-0.482D-01 0.143D+01-0.391D+01 0.365D+01
 Gap=     0.428 Goal=   None    Shift=    0.500
 Gap=     0.253 Goal=   None    Shift=    0.500
 RMSDP=5.76D-06 MaxDP=8.71D-05 DE=-4.24D-07 OVMax= 3.90D-04

 Cycle  13  Pass 1  IDiag  1:
 E= -178.970101044744     Delta-E=       -0.000000136533 Rises=F Damp=F
 DIIS: error= 5.78D-05 at cycle  13 NSaved=  13.
 NSaved=13 IEnMin=13 EnMin= -178.970101044744     IErMin=13 ErrMin= 5.78D-05
 ErrMax= 5.78D-05  0.00D+00 EMaxC= 1.00D+00 BMatC= 4.04D-08 BMatP= 1.10D-07
 IDIUse=1 WtCom= 1.00D+00 WtEn= 0.00D+00
 Coeff-Com: -0.301D-04 0.345D-03-0.365D-02 0.610D-02-0.128D-01 0.331D-01
 Coeff-Com: -0.174D-01-0.539D-01-0.662D-01 0.582D+00-0.616D+00-0.161D+01
 Coeff-Com:  0.276D+01
 Coeff:     -0.301D-04 0.345D-03-0.365D-02 0.610D-02-0.128D-01 0.331D-01
 Coeff:     -0.174D-01-0.539D-01-0.662D-01 0.582D+00-0.616D+00-0.161D+01
 Coeff:      0.276D+01
 Gap=     0.428 Goal=   None    Shift=    0.500
 Gap=     0.253 Goal=   None    Shift=    0.500
 RMSDP=3.10D-06 MaxDP=4.56D-05 DE=-1.37D-07 OVMax= 2.37D-04

 Cycle  14  Pass 1  IDiag  1:
 E= -178.970101090095     Delta-E=       -0.000000045352 Rises=F Damp=F
 DIIS: error= 3.42D-05 at cycle  14 NSaved=  14.
 NSaved=14 IEnMin=14 EnMin= -178.970101090095     IErMin=14 ErrMin= 3.42D-05
 ErrMax= 3.42D-05  0.00D+00 EMaxC= 1.00D+00 BMatC= 1.48D-08 BMatP= 4.04D-08
 IDIUse=1 WtCom= 1.00D+00 WtEn= 0.00D+00
 Coeff-Com:  0.453D-05 0.257D-03-0.162D-02 0.217D-02 0.275D-03-0.124D-01
 Coeff-Com:  0.219D-01 0.710D-03 0.432D-01-0.314D+00 0.659D+00 0.102D+00
 Coeff-Com: -0.307D+01 0.357D+01
 Coeff:      0.453D-05 0.257D-03-0.162D-02 0.217D-02 0.275D-03-0.124D-01
 Coeff:      0.219D-01 0.710D-03 0.432D-01-0.314D+00 0.659D+00 0.102D+00
 Coeff:     -0.307D+01 0.357D+01
 Gap=     0.428 Goal=   None    Shift=    0.500
 Gap=     0.253 Goal=   None    Shift=    0.500
 RMSDP=1.71D-06 MaxDP=2.44D-05 DE=-4.54D-08 OVMax= 1.43D-04

 Cycle  15  Pass 1  IDiag  1:
 E= -178.970101105159     Delta-E=       -0.000000015064 Rises=F Damp=F
 DIIS: error= 1.98D-05 at cycle  15 NSaved=  15.
 NSaved=15 IEnMin=15 EnMin= -178.970101105159     IErMin=15 ErrMin= 1.98D-05
 ErrMax= 1.98D-05  0.00D+00 EMaxC= 1.00D+00 BMatC= 5.41D-09 BMatP= 1.48D-08
 IDIUse=1 WtCom= 1.00D+00 WtEn= 0.00D+00
 Coeff-Com:  0.703D-05-0.122D-03-0.379D-03 0.117D-02-0.299D-02 0.936D-02
 Coeff-Com: -0.624D-02-0.223D-01-0.115D-01 0.221D+00-0.492D+00 0.484D+00
 Coeff-Com:  0.380D+00-0.275D+01 0.319D+01
 Coeff:      0.703D-05-0.122D-03-0.379D-03 0.117D-02-0.299D-02 0.936D-02
 Coeff:     -0.624D-02-0.223D-01-0.115D-01 0.221D+00-0.492D+00 0.484D+00
 Coeff:      0.380D+00-0.275D+01 0.319D+01
 Gap=     0.428 Goal=   None    Shift=    0.500
 Gap=     0.253 Goal=   None    Shift=    0.500
 RMSDP=9.04D-07 MaxDP=1.32D-05 DE=-1.51D-08 OVMax= 8.24D-05

 SCF Done:  E(ULC-wHPBE) =  -178.970101105     A.U. after   15 cycles
            NFock= 15  Conv=0.90D-06     -V/T= 1.9629
 <Sx>= 0.0000 <Sy>= 0.0000 <Sz>= 0.5000 <S**2>= 0.7565 S= 0.5032
 <L.S>= 0.000000000000E+00
 KE= 1.858718391093D+02 PE=-7.387543000150D+02 EE= 2.178996173145D+02
 Annihilation of the first spin contaminant:
 S**2 before annihilation     0.7565,   after     0.7500
 Leave Link  502 at Thu Mar  5 13:02:18 2020, MaxMem=  6710886400 cpu:              26.2 elap:               1.7
 (Enter /opt/ohpc/pub/libs/gaussian/g16-A.03/sandybridge/g16/l508.exe)
 QCSCF skips out because SCF is already converged.
 Leave Link  508 at Thu Mar  5 13:02:18 2020, MaxMem=  6710886400 cpu:               0.1 elap:               0.0
 (Enter /opt/ohpc/pub/libs/gaussian/g16-A.03/sandybridge/g16/l601.exe)
 Copying SCF densities to generalized density rwf, IOpCl= 1 IROHF=0.

 **********************************************************************

            Population analysis using the SCF density.

 **********************************************************************

 Orbital symmetries:
 Alpha Orbitals:
       Occupied  (B2) (A1) (A1) (A1) (B2) (A1) (A1) (B2) (A1) (B2)
                 (A1) (B1) (B2) (A1) (A1) (B2) (A2) (B1)
       Virtual   (A2) (B2) (A1) (B1) (A1) (B2) (A1) (B2) (A1) (A1)
                 (B2) (B2) (A1) (B1) (B2) (A1) (A2) (B1) (A1) (A2)
                 (B2) (A1) (B1) (B2) (A1) (B2) (A1) (B2) (A1) (B2)
                 (A1) (A1) (A1) (B2) (B2) (A1) (A1) (A1) (B2)
 Beta  Orbitals:
       Occupied  (B2) (A1) (A1) (A1) (B2) (A1) (A1) (B2) (A1) (B2)
                 (A1) (B2) (A1) (B1) (A1) (B2) (A2)
       Virtual   (B1) (A2) (B2) (A1) (B1) (A1) (B2) (A1) (B2) (A1)
                 (A1) (B2) (B2) (A1) (B1) (B2) (A1) (A2) (B1) (A1)
                 (B2) (A2) (A1) (B1) (B2) (A1) (B2) (A1) (B2) (A1)
                 (B2) (A1) (A1) (A1) (B2) (B2) (A1) (A1) (A1) (B2)
 The electronic state is 2-B1.
 Alpha  occ. eigenvalues --   -8.93903  -8.93871  -8.88765  -8.87798  -8.87783
 Alpha  occ. eigenvalues --   -1.24433  -1.10401  -1.04358  -0.92012  -0.88933
 Alpha  occ. eigenvalues --   -0.87780  -0.76855  -0.75722  -0.73546  -0.71531
 Alpha  occ. eigenvalues --   -0.69787  -0.59915  -0.58349
 Alpha virt. eigenvalues --   -0.15560  -0.11818  -0.09533  -0.09164  -0.05586
 Alpha virt. eigenvalues --   -0.00011   0.01357   0.04676   0.05405   0.14719
 Alpha virt. eigenvalues --    0.16698   0.28065   0.29120   0.38010   0.38389
 Alpha virt. eigenvalues --    0.44934   0.45290   0.45609   0.49592   0.52976
 Alpha virt. eigenvalues --    0.53142   0.54280   0.55010   0.65431   0.72688
 Alpha virt. eigenvalues --    0.74161   0.78874   0.80480   0.80651   0.85477
 Alpha virt. eigenvalues --    0.86273   0.90227   0.94743   0.97664   1.05965
 Alpha virt. eigenvalues --    1.06331   1.13912   1.34466   1.35556
  Beta  occ. eigenvalues --   -8.93917  -8.93880  -8.88772  -8.87797  -8.87783
  Beta  occ. eigenvalues --   -1.24220  -1.09740  -1.04403  -0.91833  -0.88890
  Beta  occ. eigenvalues --   -0.87833  -0.75824  -0.73624  -0.73621  -0.71602
  Beta  occ. eigenvalues --   -0.69862  -0.59521
  Beta virt. eigenvalues --   -0.34244  -0.13562  -0.11878  -0.09522  -0.07220
  Beta virt. eigenvalues --   -0.05573  -0.00049   0.01313   0.04665   0.05414
  Beta virt. eigenvalues --    0.14758   0.16682   0.27968   0.29241   0.38257
  Beta virt. eigenvalues --    0.38411   0.44970   0.45324   0.46339   0.50012
  Beta virt. eigenvalues --    0.52952   0.53089   0.54621   0.55178   0.65530
  Beta virt. eigenvalues --    0.72901   0.74054   0.78759   0.80466   0.80585
  Beta virt. eigenvalues --    0.85334   0.86348   0.90388   0.94740   0.97654
  Beta virt. eigenvalues --    1.05943   1.06343   1.14036   1.34533   1.35605
          Condensed to atoms (all electrons):
               1          2          3          4          5          6
     1  C    5.269592   0.535698  -0.060068  -0.190282   0.269149   0.177089
     2  C    0.535698   4.846349   0.524718  -0.055751  -0.190282  -0.025004
     3  C   -0.060068   0.524718   4.702592   0.524718  -0.060068   0.010971
     4  C   -0.190282  -0.055751   0.524718   4.846349   0.535698  -0.025004
     5  C    0.269149  -0.190282  -0.060068   0.535698   5.269592   0.177089
     6  H    0.177089  -0.025004   0.010971  -0.025004   0.177089   0.333547
     7  H    0.353204   0.017031  -0.000137   0.004871  -0.023987  -0.004999
     8  H   -0.016618   0.371871  -0.004597   0.005914   0.001732   0.000905
     9  H    0.007737  -0.026487   0.386873  -0.026487   0.007737  -0.000153
    10  H    0.001732   0.005914  -0.004597   0.371871  -0.016618   0.000905
    11  H   -0.023987   0.004871  -0.000137   0.017031   0.353204  -0.004999
               7          8          9         10         11
     1  C    0.353204  -0.016618   0.007737   0.001732  -0.023987
     2  C    0.017031   0.371871  -0.026487   0.005914   0.004871
     3  C   -0.000137  -0.004597   0.386873  -0.004597  -0.000137
     4  C    0.004871   0.005914  -0.026487   0.371871   0.017031
     5  C   -0.023987   0.001732   0.007737  -0.016618   0.353204
     6  H   -0.004999   0.000905  -0.000153   0.000905  -0.004999
     7  H    0.354236  -0.001758  -0.000065  -0.000037   0.000713
     8  H   -0.001758   0.403890  -0.003053  -0.000139  -0.000037
     9  H   -0.000065  -0.003053   0.417684  -0.003053  -0.000065
    10  H   -0.000037  -0.000139  -0.003053   0.403890  -0.001758
    11  H    0.000713  -0.000037  -0.000065  -0.001758   0.354236
          Atomic-Atomic Spin Densities.
               1          2          3          4          5          6
     1  C    0.323230  -0.045115  -0.031653  -0.012037   0.061414  -0.000651
     2  C   -0.045115  -0.045819   0.048845   0.000280  -0.012037  -0.000209
     3  C   -0.031653   0.048845   0.493257   0.048845  -0.031653   0.000076
     4  C   -0.012037   0.000280   0.048845  -0.045819  -0.045115  -0.000209
     5  C    0.061414  -0.012037  -0.031653  -0.045115   0.323230  -0.000651
     6  H   -0.000651  -0.000209   0.000076  -0.000209  -0.000651  -0.003337
     7  H    0.000689  -0.000668   0.000038   0.000001  -0.000250  -0.000314
     8  H   -0.000442  -0.000084  -0.000064  -0.000069   0.000023   0.000004
     9  H    0.000081  -0.001055   0.002083  -0.001055   0.000081  -0.000005
    10  H    0.000023  -0.000069  -0.000064  -0.000084  -0.000442   0.000004
    11  H   -0.000250   0.000001   0.000038  -0.000668   0.000689  -0.000314
               7          8          9         10         11
     1  C    0.000689  -0.000442   0.000081   0.000023  -0.000250
     2  C   -0.000668  -0.000084  -0.001055  -0.000069   0.000001
     3  C    0.000038  -0.000064   0.002083  -0.000064   0.000038
     4  C    0.000001  -0.000069  -0.001055  -0.000084  -0.000668
     5  C   -0.000250   0.000023   0.000081  -0.000442   0.000689
     6  H   -0.000314   0.000004  -0.000005   0.000004  -0.000314
     7  H   -0.000817   0.000007  -0.000001   0.000000  -0.000018
     8  H    0.000007   0.000927  -0.000047  -0.000001   0.000000
     9  H   -0.000001  -0.000047  -0.000736  -0.000047  -0.000001
    10  H    0.000000  -0.000001  -0.000047   0.000927   0.000007
    11  H   -0.000018   0.000000  -0.000001   0.000007  -0.000817
 Mulliken charges and spin densities:
               1          2
     1  C   -0.323247   0.295289
     2  C   -0.008928  -0.055931
     3  C   -0.020270   0.529747
     4  C   -0.008928  -0.055931
     5  C   -0.323247   0.295289
     6  H    0.359652  -0.005604
     7  H    0.300928  -0.001333
     8  H    0.241890   0.000255
     9  H    0.239333  -0.000700
    10  H    0.241890   0.000255
    11  H    0.300928  -0.001333
 Sum of Mulliken charges =   1.00000   1.00000
 Mulliken charges and spin densities with hydrogens summed into heavy atoms:
               1          2
     1  C    0.337333   0.288351
     2  C    0.232962  -0.055676
     3  C    0.219063   0.529046
     4  C    0.232962  -0.055676
     5  C   -0.022319   0.293955
 Electronic spatial extent (au):  <R**2>=            334.9853
 Charge=              1.0000 electrons
 Dipole moment (field-independent basis, Debye):
    X=             -0.0000    Y=             -0.0000    Z=             -2.1145  Tot=              2.1145
 Quadrupole moment (field-independent basis, Debye-Ang):
   XX=            -36.8800   YY=            -25.8386   ZZ=            -20.9187
   XY=              0.0000   XZ=              0.0000   YZ=              0.0000
 Traceless Quadrupole moment (field-independent basis, Debye-Ang):
   XX=             -9.0009   YY=              2.0405   ZZ=              6.9604
   XY=              0.0000   XZ=              0.0000   YZ=              0.0000
 Octapole moment (field-independent basis, Debye-Ang**2):
  XXX=              0.0000  YYY=              0.0000  ZZZ=             -8.4731  XYY=              0.0000
  XXY=             -0.0000  XXZ=              0.7738  XZZ=              0.0000  YZZ=              0.0000
  YYZ=             -3.0609  XYZ=             -0.0000
 Hexadecapole moment (field-independent basis, Debye-Ang**3):
 XXXX=            -42.3343 YYYY=           -209.8252 ZZZZ=           -185.3724 XXXY=             -0.0000
 XXXZ=             -0.0000 YYYX=             -0.0000 YYYZ=             -0.0000 ZZZX=             -0.0000
 ZZZY=              0.0000 XXYY=            -52.9703 XXZZ=            -48.5114 YYZZ=            -64.0837
 XXYZ=              0.0000 YYXZ=             -0.0000 ZZXY=             -0.0000
 N-N= 1.560127424860D+02 E-N=-7.387542882838D+02  KE= 1.858718391093D+02
 Symmetry A1   KE= 1.079093895986D+02
 Symmetry A2   KE= 2.124558155566D+00
 Symmetry B1   KE= 2.654877699879D+00
 Symmetry B2   KE= 7.318301365526D+01
 Symmetry A1   SP= 2.230530505883D-15
 Symmetry A2   SP=-8.391724815038D-16
 Symmetry B1   SP= 1.000000000000D+00
 Symmetry B2   SP=-8.047023486603D-15
                          Isotropic Fermi Contact Couplings
        Atom                 a.u.       MegaHertz       Gauss      10(-4) cm-1
     1  C(13)              0.00735       8.26630       2.94962       2.75734
     2  C(13)             -0.00149      -1.67493      -0.59766      -0.55870
     3  C(13)              0.01222      13.74192       4.90346       4.58381
     4  C(13)             -0.00149      -1.67493      -0.59766      -0.55870
     5  C(13)              0.00735       8.26630       2.94962       2.75734
     6  H(1)              -0.00175      -7.83014      -2.79399      -2.61185
     7  H(1)              -0.00070      -3.13760      -1.11957      -1.04659
     8  H(1)               0.00022       0.96227       0.34336       0.32098
     9  H(1)              -0.00130      -5.79427      -2.06754      -1.93276
    10  H(1)               0.00022       0.96227       0.34336       0.32098
    11  H(1)              -0.00070      -3.13760      -1.11957      -1.04659
 --------------------------------------------------------
       Center         ----  Spin Dipole Couplings  ----
                      3XX-RR        3YY-RR        3ZZ-RR
 --------------------------------------------------------
     1   Atom        0.249616     -0.118784     -0.130831
     2   Atom       -0.029610      0.013996      0.015613
     3   Atom        0.484896     -0.244791     -0.240106
     4   Atom       -0.029610      0.013996      0.015613
     5   Atom        0.249616     -0.118784     -0.130831
     6   Atom        0.005963     -0.003840     -0.002123
     7   Atom       -0.000050      0.001876     -0.001827
     8   Atom       -0.007271      0.009404     -0.002133
     9   Atom        0.001202     -0.032105      0.030902
    10   Atom       -0.007271      0.009404     -0.002133
    11   Atom       -0.000050      0.001876     -0.001827
 --------------------------------------------------------
                        XY            XZ            YZ
 --------------------------------------------------------
     1   Atom       -0.000000     -0.000000     -0.003010
     2   Atom        0.000000      0.000000     -0.012618
     3   Atom       -0.000000     -0.000000      0.000000
     4   Atom       -0.000000     -0.000000      0.012618
     5   Atom       -0.000000      0.000000      0.003010
     6   Atom       -0.000000      0.000000     -0.000000
     7   Atom       -0.000000      0.000000     -0.018945
     8   Atom        0.000000      0.000000     -0.000237
     9   Atom       -0.000000     -0.000000      0.000000
    10   Atom        0.000000     -0.000000      0.000237
    11   Atom       -0.000000     -0.000000      0.018945
 --------------------------------------------------------


 ---------------------------------------------------------------------------------
              Anisotropic Spin Dipole Couplings in Principal Axis System
 ---------------------------------------------------------------------------------

       Atom             a.u.   MegaHertz   Gauss  10(-4) cm-1        Axes

              Baa    -0.1315   -17.652    -6.299    -5.888  0.0000  0.2296  0.9733
     1 C(13)  Bbb    -0.1181   -15.844    -5.654    -5.285  0.0000  0.9733 -0.2296
              Bcc     0.2496    33.496    11.952    11.173  1.0000 -0.0000  0.0000
 
              Baa    -0.0296    -3.973    -1.418    -1.325  1.0000  0.0000  0.0000
     2 C(13)  Bbb     0.0022     0.290     0.103     0.097 -0.0000  0.7294  0.6841
              Bcc     0.0274     3.683     1.314     1.229  0.0000 -0.6841  0.7294
 
              Baa    -0.2448   -32.849   -11.721   -10.957  0.0000  1.0000  0.0000
     3 C(13)  Bbb    -0.2401   -32.220   -11.497   -10.747  0.0000  0.0000  1.0000
              Bcc     0.4849    65.068    23.218    21.704  1.0000 -0.0000  0.0000
 
              Baa    -0.0296    -3.973    -1.418    -1.325  1.0000  0.0000  0.0000
     4 C(13)  Bbb     0.0022     0.290     0.103     0.097  0.0000  0.7294 -0.6841
              Bcc     0.0274     3.683     1.314     1.229 -0.0000  0.6841  0.7294
 
              Baa    -0.1315   -17.652    -6.299    -5.888 -0.0000 -0.2296  0.9733
     5 C(13)  Bbb    -0.1181   -15.844    -5.654    -5.285  0.0000  0.9733  0.2296
              Bcc     0.2496    33.496    11.952    11.173  1.0000 -0.0000  0.0000
 
              Baa    -0.0038    -2.049    -0.731    -0.683  0.0000  1.0000  0.0000
     6 H(1)   Bbb    -0.0021    -1.133    -0.404    -0.378 -0.0000 -0.0000  1.0000
              Bcc     0.0060     3.182     1.135     1.061  1.0000 -0.0000  0.0000
 
              Baa    -0.0190   -10.143    -3.619    -3.383 -0.0000  0.6718  0.7407
     7 H(1)   Bbb    -0.0000    -0.027    -0.009    -0.009  1.0000  0.0000 -0.0000
              Bcc     0.0191    10.170     3.629     3.392 -0.0000  0.7407 -0.6718
 
              Baa    -0.0073    -3.879    -1.384    -1.294  1.0000 -0.0000 -0.0000
     8 H(1)   Bbb    -0.0021    -1.141    -0.407    -0.381  0.0000  0.0206  0.9998
              Bcc     0.0094     5.020     1.791     1.675  0.0000  0.9998 -0.0206
 
              Baa    -0.0321   -17.130    -6.112    -5.714  0.0000  1.0000 -0.0000
     9 H(1)   Bbb     0.0012     0.642     0.229     0.214  1.0000 -0.0000  0.0000
              Bcc     0.0309    16.488     5.883     5.500  0.0000  0.0000  1.0000
 
              Baa    -0.0073    -3.879    -1.384    -1.294  1.0000 -0.0000  0.0000
    10 H(1)   Bbb    -0.0021    -1.141    -0.407    -0.381 -0.0000 -0.0206  0.9998
              Bcc     0.0094     5.020     1.791     1.675  0.0000  0.9998  0.0206
 
              Baa    -0.0190   -10.143    -3.619    -3.383  0.0000 -0.6718  0.7407
    11 H(1)   Bbb    -0.0000    -0.027    -0.009    -0.009  1.0000  0.0000  0.0000
              Bcc     0.0191    10.170     3.629     3.392 -0.0000  0.7407  0.6718
 

 ---------------------------------------------------------------------------------

 No NMR shielding tensors so no spin-rotation constants.
 Leave Link  601 at Thu Mar  5 13:02:19 2020, MaxMem=  6710886400 cpu:               3.0 elap:               0.2
 (Enter /opt/ohpc/pub/libs/gaussian/g16-A.03/sandybridge/g16/l9999.exe)

 Test job not archived.
 1\1\GINC-CNODE212\SP\ULC-wHPBE\6-31G\C5H6(1+,2)\SMGO234\05-Mar-2020\0\
 \#P uLC-wHPBE/6-31G iop(3/130=0066200000, 3/131=0066200000, 3/119=0933
 800000, 3/120=0933800000) scf=(conver=6,fermi,ndamp=35,noincfock,novar
 acc,vshift=500,xqc)\\H6 C5\\1,2\C,0,0.,0.878804,-0.931542\C,0,0.,1.128
 157,0.423457\C,0,0.,0.,1.240879\C,0,0.,-1.128157,0.423457\C,0,0.,-0.87
 8804,-0.931542\H,0,0.,0.,-1.732269\H,0,0.,1.6083,-1.734053\H,0,0.,2.15
 6626,0.76567\H,0,0.,0.,2.320778\H,0,0.,-2.156626,0.76567\H,0,0.,-1.608
 3,-1.734053\\Version=EM64L-G16RevA.03\State=2-B1\HF=-178.9701011\S2=0.
 756503\S2-1=0.\S2A=0.750023\RMSD=9.042e-07\Dipole=0.,0.,-0.8319079\Qua
 drupole=-6.6919415,1.5170638,5.1748777,0.,0.,0.\PG=C02V [C2(H1C1H1),SG
 V(C4H4)]\\@


 THE NUMBERS ARE MEANINGLESS, BUT THE TRENDS ARE IMPORTANT.
     -- LARRY BURGGRAF
 Job cpu time:       0 days  0 hours  0 minutes 52.7 seconds.
 Elapsed time:       0 days  0 hours  0 minutes  3.6 seconds.
 File lengths (MBytes):  RWF=    272 Int=      0 D2E=      0 Chk=     32 Scr=     32
 Normal termination of Gaussian 16 at Thu Mar  5 13:02:19 2020.
