 Entering Gaussian System, Link 0=g16
 Input=a1b_tune_c6.gjf
 Output=a1b_tune_c6.log
 Initial command:
 /opt/ohpc/pub/libs/gaussian/g16-A.03/sandybridge/g16/l1.exe "/scratch/smgo234/Ocelot/test/a1b/tuning_a1b_acycle3/Gau-90663.inp" -scrdir="/scratch/smgo234/Ocelot/test/a1b/tuning_a1b_acycle3/"
 Entering Link 1 = /opt/ohpc/pub/libs/gaussian/g16-A.03/sandybridge/g16/l1.exe PID=     90664.
  
 Copyright (c) 1988,1990,1992,1993,1995,1998,2003,2009,2016,
            Gaussian, Inc.  All Rights Reserved.
  
 This is part of the Gaussian(R) 16 program.  It is based on
 the Gaussian(R) 09 system (copyright 2009, Gaussian, Inc.),
 the Gaussian(R) 03 system (copyright 2003, Gaussian, Inc.),
 the Gaussian(R) 98 system (copyright 1998, Gaussian, Inc.),
 the Gaussian(R) 94 system (copyright 1995, Gaussian, Inc.),
 the Gaussian 92(TM) system (copyright 1992, Gaussian, Inc.),
 the Gaussian 90(TM) system (copyright 1990, Gaussian, Inc.),
 the Gaussian 88(TM) system (copyright 1988, Gaussian, Inc.),
 the Gaussian 86(TM) system (copyright 1986, Carnegie Mellon
 University), and the Gaussian 82(TM) system (copyright 1983,
 Carnegie Mellon University). Gaussian is a federally registered
 trademark of Gaussian, Inc.
  
 This software contains proprietary and confidential information,
 including trade secrets, belonging to Gaussian, Inc.
  
 This software is provided under written license and may be
 used, copied, transmitted, or stored only in accord with that
 written license.
  
 The following legend is applicable only to US Government
 contracts under FAR:
  
                    RESTRICTED RIGHTS LEGEND
  
 Use, reproduction and disclosure by the US Government is
 subject to restrictions as set forth in subparagraphs (a)
 and (c) of the Commercial Computer Software - Restricted
 Rights clause in FAR 52.227-19.
  
 Gaussian, Inc.
 340 Quinnipiac St., Bldg. 40, Wallingford CT 06492
  
  
 ---------------------------------------------------------------
 Warning -- This program may not be used in any manner that
 competes with the business of Gaussian, Inc. or will provide
 assistance to any competitor of Gaussian, Inc.  The licensee
 of this program is prohibited from giving any competitor of
 Gaussian, Inc. access to this program.  By using this program,
 the user acknowledges that Gaussian, Inc. is engaged in the
 business of creating and licensing software in the field of
 computational chemistry and represents and warrants to the
 licensee that it is not a competitor of Gaussian, Inc. and that
 it will not use this program in any manner prohibited above.
 ---------------------------------------------------------------
  

 Cite this work as:
 Gaussian 16, Revision A.03,
 M. J. Frisch, G. W. Trucks, H. B. Schlegel, G. E. Scuseria, 
 M. A. Robb, J. R. Cheeseman, G. Scalmani, V. Barone, 
 G. A. Petersson, H. Nakatsuji, X. Li, M. Caricato, A. V. Marenich, 
 J. Bloino, B. G. Janesko, R. Gomperts, B. Mennucci, H. P. Hratchian, 
 J. V. Ortiz, A. F. Izmaylov, J. L. Sonnenberg, D. Williams-Young, 
 F. Ding, F. Lipparini, F. Egidi, J. Goings, B. Peng, A. Petrone, 
 T. Henderson, D. Ranasinghe, V. G. Zakrzewski, J. Gao, N. Rega, 
 G. Zheng, W. Liang, M. Hada, M. Ehara, K. Toyota, R. Fukuda, 
 J. Hasegawa, M. Ishida, T. Nakajima, Y. Honda, O. Kitao, H. Nakai, 
 T. Vreven, K. Throssell, J. A. Montgomery, Jr., J. E. Peralta, 
 F. Ogliaro, M. J. Bearpark, J. J. Heyd, E. N. Brothers, K. N. Kudin, 
 V. N. Staroverov, T. A. Keith, R. Kobayashi, J. Normand, 
 K. Raghavachari, A. P. Rendell, J. C. Burant, S. S. Iyengar, 
 J. Tomasi, M. Cossi, J. M. Millam, M. Klene, C. Adamo, R. Cammi, 
 J. W. Ochterski, R. L. Martin, K. Morokuma, O. Farkas, 
 J. B. Foresman, and D. J. Fox, Gaussian, Inc., Wallingford CT, 2016.
 
 ******************************************
 Gaussian 16:  EM64L-G16RevA.03 25-Dec-2016
                 5-Mar-2020 
 ******************************************
 %mem=50GB
 %nproc=16
 Will use up to   16 processors via shared memory.
 ----------------------------------------------------------------------
 #P uLC-wHPBE/6-31G iop(3/130=0113900000, 3/131=0113900000, 3/119=08861
 00000, 3/120=0886100000) scf=(conver=6,fermi,ndamp=35,noincfock,novara
 cc,vshift=500,xqc)
 ----------------------------------------------------------------------
 1/38=1,172=1/1;
 2/12=2,17=6,18=5,40=1/2;
 3/5=1,6=6,11=2,25=1,30=1,74=-71,116=2,119=886100000,120=886100000,130=113900000,131=113900000/1,2,3;
 4//1;
 5/5=100002,6=6,8=3,10=500,13=1,18=-1,22=13,38=1,93=35/2,8;
 6/7=2,8=2,9=2,10=2,28=1/1;
 99/5=1,9=1/99;
 Leave Link    1 at Thu Mar  5 13:03:06 2020, MaxMem=  6710886400 cpu:              15.0 elap:               1.0
 (Enter /opt/ohpc/pub/libs/gaussian/g16-A.03/sandybridge/g16/l101.exe)
 -----
 H6 C5
 -----
 Symbolic Z-matrix:
 Charge =  1 Multiplicity = 2
 C                     0.        0.8788   -0.93154 
 C                     0.        1.12816   0.42346 
 C                     0.        0.        1.24088 
 C                     0.       -1.12816   0.42346 
 C                     0.       -0.8788   -0.93154 
 H                     0.        0.       -1.73227 
 H                     0.        1.6083   -1.73405 
 H                     0.        2.15663   0.76567 
 H                     0.        0.        2.32078 
 H                     0.       -2.15663   0.76567 
 H                     0.       -1.6083   -1.73405 
 
 ITRead=  0  0  0  0  0  0  0  0  0  0  0
 MicOpt= -1 -1 -1 -1 -1 -1 -1 -1 -1 -1 -1
 NAtoms=     11 NQM=       11 NQMF=       0 NMMI=      0 NMMIF=      0
                NMic=       0 NMicF=      0.
                    Isotopes and Nuclear Properties:
 (Nuclear quadrupole moments (NQMom) in fm**2, nuclear magnetic moments (NMagM)
  in nuclear magnetons)

  Atom         1           2           3           4           5           6           7           8           9          10
 IAtWgt=          12          12          12          12          12           1           1           1           1           1
 AtmWgt=  12.0000000  12.0000000  12.0000000  12.0000000  12.0000000   1.0078250   1.0078250   1.0078250   1.0078250   1.0078250
 NucSpn=           0           0           0           0           0           1           1           1           1           1
 AtZEff=  -0.0000000  -0.0000000  -0.0000000  -0.0000000  -0.0000000  -0.0000000  -0.0000000  -0.0000000  -0.0000000  -0.0000000
 NQMom=    0.0000000   0.0000000   0.0000000   0.0000000   0.0000000   0.0000000   0.0000000   0.0000000   0.0000000   0.0000000
 NMagM=    0.0000000   0.0000000   0.0000000   0.0000000   0.0000000   2.7928460   2.7928460   2.7928460   2.7928460   2.7928460
 AtZNuc=   6.0000000   6.0000000   6.0000000   6.0000000   6.0000000   1.0000000   1.0000000   1.0000000   1.0000000   1.0000000

  Atom        11
 IAtWgt=           1
 AtmWgt=   1.0078250
 NucSpn=           1
 AtZEff=  -0.0000000
 NQMom=    0.0000000
 NMagM=    2.7928460
 AtZNuc=   1.0000000
 Leave Link  101 at Thu Mar  5 13:03:06 2020, MaxMem=  6710886400 cpu:               3.4 elap:               0.2
 (Enter /opt/ohpc/pub/libs/gaussian/g16-A.03/sandybridge/g16/l202.exe)
                          Input orientation:                          
 ---------------------------------------------------------------------
 Center     Atomic      Atomic             Coordinates (Angstroms)
 Number     Number       Type             X           Y           Z
 ---------------------------------------------------------------------
      1          6           0        0.000000    0.878804   -0.931542
      2          6           0        0.000000    1.128157    0.423457
      3          6           0        0.000000    0.000000    1.240879
      4          6           0        0.000000   -1.128157    0.423457
      5          6           0        0.000000   -0.878804   -0.931542
      6          1           0        0.000000    0.000000   -1.732269
      7          1           0        0.000000    1.608300   -1.734053
      8          1           0        0.000000    2.156626    0.765670
      9          1           0        0.000000    0.000000    2.320778
     10          1           0        0.000000   -2.156626    0.765670
     11          1           0        0.000000   -1.608300   -1.734053
 ---------------------------------------------------------------------
                    Distance matrix (angstroms):
                    1          2          3          4          5
     1  C    0.000000
     2  C    1.377752   0.000000
     3  C    2.343440   1.393168   0.000000
     4  C    2.421552   2.256314   1.393168   0.000000
     5  C    1.757608   2.421552   2.343440   1.377752   0.000000
     6  H    1.188890   2.433083   2.973148   2.433083   1.188890
     7  H    1.084522   2.210291   3.381841   3.484687   2.613371
     8  H    2.124466   1.083909   2.208361   3.302561   3.477695
     9  H    3.368959   2.207389   1.079899   2.207389   3.368959
    10  H    3.477695   3.302561   2.208361   1.083909   2.124466
    11  H    2.613371   3.484687   3.381841   2.210291   1.084522
                    6          7          8          9         10
     6  H    0.000000
     7  H    1.608301   0.000000
     8  H    3.300111   2.559155   0.000000
     9  H    4.053047   4.362142   2.658834   0.000000
    10  H    3.300111   4.519213   4.313252   2.658834   0.000000
    11  H    1.608301   3.216600   4.519213   4.362142   2.559155
                   11
    11  H    0.000000
 Stoichiometry    C5H6(1+,2)
 Framework group  C2V[C2(HCH),SGV(C4H4)]
 Deg. of freedom    10
 Full point group                 C2V     NOp   4
 Largest Abelian subgroup         C2V     NOp   4
 Largest concise Abelian subgroup C2      NOp   2
                         Standard orientation:                         
 ---------------------------------------------------------------------
 Center     Atomic      Atomic             Coordinates (Angstroms)
 Number     Number       Type             X           Y           Z
 ---------------------------------------------------------------------
      1          6           0        0.000000    0.878804   -0.931542
      2          6           0        0.000000    1.128157    0.423457
      3          6           0        0.000000   -0.000000    1.240879
      4          6           0       -0.000000   -1.128157    0.423457
      5          6           0       -0.000000   -0.878804   -0.931542
      6          1           0       -0.000000    0.000000   -1.732269
      7          1           0        0.000000    1.608300   -1.734053
      8          1           0        0.000000    2.156626    0.765670
      9          1           0        0.000000   -0.000000    2.320778
     10          1           0       -0.000000   -2.156626    0.765670
     11          1           0       -0.000000   -1.608300   -1.734053
 ---------------------------------------------------------------------
 Rotational constants (GHZ):           8.5259551           7.9375455           4.1106177
 Leave Link  202 at Thu Mar  5 13:03:06 2020, MaxMem=  6710886400 cpu:               1.1 elap:               0.1
 (Enter /opt/ohpc/pub/libs/gaussian/g16-A.03/sandybridge/g16/l301.exe)
 Standard basis: 6-31G (6D, 7F)
 Ernie: Thresh=  0.10000D-02 Tol=  0.10000D-05 Strict=F.
 There are    27 symmetry adapted cartesian basis functions of A1  symmetry.
 There are     4 symmetry adapted cartesian basis functions of A2  symmetry.
 There are     6 symmetry adapted cartesian basis functions of B1  symmetry.
 There are    20 symmetry adapted cartesian basis functions of B2  symmetry.
 There are    27 symmetry adapted basis functions of A1  symmetry.
 There are     4 symmetry adapted basis functions of A2  symmetry.
 There are     6 symmetry adapted basis functions of B1  symmetry.
 There are    20 symmetry adapted basis functions of B2  symmetry.
    57 basis functions,   134 primitive gaussians,    57 cartesian basis functions
    18 alpha electrons       17 beta electrons
       nuclear repulsion energy       156.0127424860 Hartrees.
 IExCor=33909 DFT=T Ex+Corr=LC-wHPBE ExCW=0 ScaHFX=  1.000000
 ScaDFX=  1.000000  1.000000  1.000000  1.000000 ScalE2=  1.000000  1.000000
 IRadAn=      5 IRanWt=     -1 IRanGd=            0 ICorTp=0 IEmpDi=  4
 HFx  wShort=  0.000000 wLong=  0.400000 cFull=  0.000000 cShort=  0.000000 cLong=  0.886100
 DFx  wShort=  0.000000 wLong=  0.400000 cFull=  0.000000 cShort=  1.000000 cLong=  0.886100
 NAtoms=   11 NActive=   11 NUniq=    7 SFac= 2.47D+00 NAtFMM=   60 NAOKFM=F Big=F
 Integral buffers will be    131072 words long.
 Raffenetti 2 integral format.
 Two-electron integral symmetry is turned on.
 Leave Link  301 at Thu Mar  5 13:03:06 2020, MaxMem=  6710886400 cpu:               0.9 elap:               0.1
 (Enter /opt/ohpc/pub/libs/gaussian/g16-A.03/sandybridge/g16/l302.exe)
 NPDir=0 NMtPBC=     1 NCelOv=     1 NCel=       1 NClECP=     1 NCelD=      1
         NCelK=      1 NCelE2=     1 NClLst=     1 CellRange=     0.0.
 One-electron integrals computed using PRISM.
 One-electron integral symmetry used in STVInt
 NBasis=    57 RedAO= T EigKep=  1.84D-03  NBF=    27     4     6    20
 NBsUse=    57 1.00D-06 EigRej= -1.00D+00 NBFU=    27     4     6    20
 Precomputing XC quadrature grid using
 IXCGrd= 4 IRadAn=           5 IRanWt=          -1 IRanGd=           0 AccXCQ= 0.00D+00.
 Generated NRdTot=       0 NPtTot=           0 NUsed=           0 NTot=          32
 NSgBfM=    57    57    57    57    57 MxSgAt=    11 MxSgA2=    11.
 Leave Link  302 at Thu Mar  5 13:03:06 2020, MaxMem=  6710886400 cpu:               1.9 elap:               0.1
 (Enter /opt/ohpc/pub/libs/gaussian/g16-A.03/sandybridge/g16/l303.exe)
 DipDrv:  MaxL=1.
 Leave Link  303 at Thu Mar  5 13:03:06 2020, MaxMem=  6710886400 cpu:               0.4 elap:               0.0
 (Enter /opt/ohpc/pub/libs/gaussian/g16-A.03/sandybridge/g16/l401.exe)
 ExpMin= 1.61D-01 ExpMax= 3.05D+03 ExpMxC= 4.57D+02 IAcc=3 IRadAn=         5 AccDes= 0.00D+00
 Harris functional with IExCor=33909 and IRadAn=       5 diagonalized for initial guess.
 HarFok:  IExCor=33909 AccDes= 0.00D+00 IRadAn=         5 IDoV= 1 UseB2=F ITyADJ=14
 ICtDFT=  3500011 ScaDFX=  1.000000  1.000000  1.000000  1.000000
 FoFCou: FMM=F IPFlag=           0 FMFlag=      100000 FMFlg1=           0
         NFxFlg=           0 DoJE=T BraDBF=F KetDBF=T FulRan=T
         wScrn=  0.000000 ICntrl=       500 IOpCl=  0 I1Cent=   200000004 NGrid=           0
         NMat0=    1 NMatS0=      1 NMatT0=    0 NMatD0=    1 NMtDS0=    0 NMtDT0=    0
 Petite list used in FoFCou.
 Harris En= -192.712203571422    
 JPrj=0 DoOrth=F DoCkMO=F.
 Initial guess orbital symmetries:
 Alpha Orbitals:
       Occupied  (A1) (B2) (A1) (B2) (A1) (A1) (A1) (B2) (A1) (B2)
                 (A1) (B2) (A1) (B2) (A1) (B1) (A2) (B1)
       Virtual   (A2) (B2) (B1) (A1) (A1) (B2) (A1) (B2) (A1) (B2)
                 (A1) (B2) (A1) (B2) (B1) (A1) (A2) (B1) (B2) (A1)
                 (A1) (A2) (B1) (B2) (B2) (A1) (B2) (A1) (A1) (B2)
                 (A1) (A1) (A1) (B2) (A1) (B2) (A1) (A1) (B2)
 Beta  Orbitals:
       Occupied  (A1) (B2) (A1) (B2) (A1) (A1) (A1) (B2) (A1) (B2)
                 (A1) (B2) (A1) (B2) (A1) (B1) (A2)
       Virtual   (B1) (A2) (B2) (B1) (A1) (A1) (B2) (A1) (B2) (A1)
                 (B2) (A1) (B2) (A1) (B2) (B1) (A1) (A2) (B1) (B2)
                 (A1) (A1) (A2) (B1) (B2) (B2) (A1) (B2) (A1) (A1)
                 (B2) (A1) (A1) (A1) (B2) (A1) (B2) (A1) (A1) (B2)
 The electronic state of the initial guess is 2-B1.
 Initial guess <Sx>= 0.0000 <Sy>= 0.0000 <Sz>= 0.5000 <S**2>= 0.7500 S= 0.5000
 Leave Link  401 at Thu Mar  5 13:03:07 2020, MaxMem=  6710886400 cpu:               3.0 elap:               0.2
 (Enter /opt/ohpc/pub/libs/gaussian/g16-A.03/sandybridge/g16/l502.exe)
 Keep R1 and R2 ints in memory in symmetry-blocked form, NReq=16815681.
 FoFCou: FMM=F IPFlag=           0 FMFlag=           0 FMFlg1=           0
         NFxFlg=           0 DoJE=F BraDBF=F KetDBF=F FulRan=T
         wScrn=  0.000000 ICntrl=       600 IOpCl=  0 I1Cent=           0 NGrid=           0
         NMat0=    1 NMatS0=   1653 NMatT0=    0 NMatD0=    1 NMtDS0=    0 NMtDT0=    0
 Petite list used in FoFCou.
 UHF open shell SCF:
 Using DIIS extrapolation, IDIIS=    10.
 NGot=  6710886400 LenX=  6710059561 LenY=  6710055871
 Requested convergence on RMS density matrix=1.00D-06 within  32 cycles.
 Requested convergence on MAX density matrix=1.00D-04.
 Requested convergence on             energy=1.00D-04.
 Virtual orbitals will be shifted by   0.500 hartree.
 No special actions if energy rises.
 Dynamic level shift is on during FON iterations.

 Cycle   1  Pass 1  IDiag  1:
 E= -198.694228051139    
 DIIS: error= 4.90D-02 at cycle   1 NSaved=   1.
 NSaved= 1 IEnMin= 1 EnMin= -198.694228051139     IErMin= 1 ErrMin= 4.90D-02
 ErrMax= 4.90D-02  0.00D+00 EMaxC= 1.00D+00 BMatC= 1.97D-01 BMatP= 1.97D-01
 IDIUse=1 WtCom= 1.00D+00 WtEn= 0.00D+00
 Coeff-Com:  0.100D+01
 Coeff:      0.100D+01
 Gap=     0.363 Goal=   None    Shift=    0.500
 T= 1791. Gap= 0.835 NK=0 IS=   19 IE=   57 IFin=   18
          NO(<0.9)=   0  NV(>0.1)=   0     18.00e < EF      0.00e >EF  Err=0.0D+00
 Gap=     0.238 Goal=   None    Shift=    0.500
 T= 1791. Gap= 0.740 NK=0 IS=   18 IE=   57 IFin=   17
          NO(<0.9)=   0  NV(>0.1)=   0     17.00e < EF      0.00e >EF  Err=0.0D+00
 GapD=    0.238 DampG=1.000 DampE=0.500 DampFc=0.5000 IDamp=-1.
 Damping current iteration by 5.00D-01
 RMSDP=6.99D-03 MaxDP=5.38D-02              OVMax= 1.03D-01

 Cycle   2  Pass 1  IDiag  1:
 E= -198.731543560590     Delta-E=       -0.037315509450 Rises=F Damp=T
 DIIS: error= 2.44D-02 at cycle   2 NSaved=   2.
 NSaved= 2 IEnMin= 2 EnMin= -198.731543560590     IErMin= 2 ErrMin= 2.44D-02
 ErrMax= 2.44D-02  0.00D+00 EMaxC= 1.00D+00 BMatC= 3.68D-02 BMatP= 1.97D-01
 IDIUse=1 WtCom= 1.00D+00 WtEn= 0.00D+00
 Coeff-Com: -0.576D+00 0.158D+01
 Coeff:     -0.576D+00 0.158D+01
 Gap=     0.429 Goal=   None    Shift=    0.500
 T= 1681. Gap= 0.915 NK=4 IS=   19 IE=   23 IFin=   18
          NO(<0.9)=   0  NV(>0.1)=   0     18.00e < EF      0.00e >EF  Err=0.0D+00
 Gap=     0.267 Goal=   None    Shift=    0.500
 T= 1681. Gap= 0.765 NK=4 IS=   18 IE=   23 IFin=   17
          NO(<0.9)=   0  NV(>0.1)=   0     17.00e < EF      0.00e >EF  Err=0.0D+00
 GapD=    0.267 DampG=1.000 DampE=0.500 DampFc=0.5000 IDamp=-1.
 Damping current iteration by 5.00D-01
 RMSDP=4.40D-03 MaxDP=3.40D-02 DE=-3.73D-02 OVMax= 1.86D-02

 Cycle   3  Pass 1  IDiag  1:
 E= -198.745394014033     Delta-E=       -0.013850453443 Rises=F Damp=T
 DIIS: error= 1.46D-02 at cycle   3 NSaved=   3.
 NSaved= 3 IEnMin= 3 EnMin= -198.745394014033     IErMin= 3 ErrMin= 1.46D-02
 ErrMax= 1.46D-02  0.00D+00 EMaxC= 1.00D+00 BMatC= 9.29D-03 BMatP= 3.68D-02
 IDIUse=1 WtCom= 1.00D+00 WtEn= 0.00D+00
 Coeff-Com:  0.330D+00-0.188D+01 0.255D+01
 Coeff:      0.330D+00-0.188D+01 0.255D+01
 Gap=     0.419 Goal=   None    Shift=    0.500
 T= 1483. Gap= 0.920 NK=0 IS=   19 IE=   57 IFin=   18
          NO(<0.9)=   0  NV(>0.1)=   0     18.00e < EF      0.00e >EF  Err=0.0D+00
 Gap=     0.272 Goal=   None    Shift=    0.500
 T= 1483. Gap= 0.772 NK=0 IS=   18 IE=   57 IFin=   17
          NO(<0.9)=   0  NV(>0.1)=   0     17.00e < EF      0.00e >EF  Err=0.0D+00
 GapD=    0.272 DampG=1.000 DampE=0.500 DampFc=0.5000 IDamp=-1.
 Damping current iteration by 5.00D-01
 RMSDP=2.57D-03 MaxDP=2.06D-02 DE=-1.39D-02 OVMax= 1.77D-02

 Cycle   4  Pass 1  IDiag  1:
 E= -198.752196888548     Delta-E=       -0.006802874514 Rises=F Damp=T
 DIIS: error= 9.69D-03 at cycle   4 NSaved=   4.
 NSaved= 4 IEnMin= 4 EnMin= -198.752196888548     IErMin= 4 ErrMin= 9.69D-03
 ErrMax= 9.69D-03  0.00D+00 EMaxC= 1.00D+00 BMatC= 3.34D-03 BMatP= 9.29D-03
 IDIUse=1 WtCom= 1.00D+00 WtEn= 0.00D+00
 Coeff-Com:  0.951D-02 0.860D+00-0.387D+01 0.400D+01
 Coeff:      0.951D-02 0.860D+00-0.387D+01 0.400D+01
 Gap=     0.425 Goal=   None    Shift=    0.500
 T= 1127. Gap= 0.925 NK=0 IS=   19 IE=   57 IFin=   18
          NO(<0.9)=   0  NV(>0.1)=   0     18.00e < EF      0.00e >EF  Err=0.0D+00
 Gap=     0.278 Goal=   None    Shift=    0.500
 T= 1127. Gap= 0.778 NK=0 IS=   18 IE=   57 IFin=   17
          NO(<0.9)=   0  NV(>0.1)=   0     17.00e < EF      0.00e >EF  Err=0.0D+00
 GapD=    0.278 DampG=1.000 DampE=1.000 DampFc=1.0000 IDamp=-1.
 RMSDP=1.67D-03 MaxDP=1.73D-02 DE=-6.80D-03 OVMax= 1.75D-02

 Cycle   5  Pass 1  IDiag  1:
 E= -198.760521932459     Delta-E=       -0.008325043912 Rises=F Damp=F
 DIIS: error= 4.78D-03 at cycle   5 NSaved=   5.
 NSaved= 5 IEnMin= 5 EnMin= -198.760521932459     IErMin= 5 ErrMin= 4.78D-03
 ErrMax= 4.78D-03  0.00D+00 EMaxC= 1.00D+00 BMatC= 5.63D-04 BMatP= 3.34D-03
 IDIUse=1 WtCom= 1.00D+00 WtEn= 0.00D+00
 Coeff-Com: -0.198D+00 0.970D+00-0.704D+00-0.105D+01 0.199D+01
 Coeff:     -0.198D+00 0.970D+00-0.704D+00-0.105D+01 0.199D+01
 Gap=     0.429 Goal=   None    Shift=    0.500
 T=  818. Gap= 0.929 NK=0 IS=   19 IE=   57 IFin=   18
          NO(<0.9)=   0  NV(>0.1)=   0     18.00e < EF      0.00e >EF  Err=0.0D+00
 Gap=     0.283 Goal=   None    Shift=    0.500
 T=  818. Gap= 0.783 NK=0 IS=   18 IE=   57 IFin=   17
          NO(<0.9)=   0  NV(>0.1)=   0     17.00e < EF      0.00e >EF  Err=0.0D+00
 GapD=    0.283 DampG=1.000 DampE=1.000 DampFc=1.0000 IDamp=-1.
 RMSDP=5.05D-04 MaxDP=8.14D-03 DE=-8.33D-03 OVMax= 1.80D-02

 Cycle   6  Pass 1  IDiag  1:
 E= -198.761367518161     Delta-E=       -0.000845585702 Rises=F Damp=F
 DIIS: error= 3.73D-03 at cycle   6 NSaved=   6.
 NSaved= 6 IEnMin= 6 EnMin= -198.761367518161     IErMin= 6 ErrMin= 3.73D-03
 ErrMax= 3.73D-03  0.00D+00 EMaxC= 1.00D+00 BMatC= 2.66D-04 BMatP= 5.63D-04
 IDIUse=1 WtCom= 1.00D+00 WtEn= 0.00D+00
 Coeff-Com:  0.680D-02-0.311D+00 0.866D+00-0.540D+00-0.173D+01 0.271D+01
 Coeff:      0.680D-02-0.311D+00 0.866D+00-0.540D+00-0.173D+01 0.271D+01
 Gap=     0.432 Goal=   None    Shift=    0.500
 T=  537. Gap= 0.932 NK=0 IS=   19 IE=   57 IFin=   18
          NO(<0.9)=   0  NV(>0.1)=   0     18.00e < EF      0.00e >EF  Err=0.0D+00
 Gap=     0.285 Goal=   None    Shift=    0.500
 T=  537. Gap= 0.785 NK=0 IS=   18 IE=   57 IFin=   17
          NO(<0.9)=   0  NV(>0.1)=   0     17.00e < EF      0.00e >EF  Err=0.0D+00
 GapD=    0.285 DampG=1.000 DampE=1.000 DampFc=1.0000 IDamp=-1.
 RMSDP=4.13D-04 MaxDP=6.60D-03 DE=-8.46D-04 OVMax= 1.64D-02

 Cycle   7  Pass 1  IDiag  1:
 E= -198.761858779700     Delta-E=       -0.000491261539 Rises=F Damp=F
 DIIS: error= 2.77D-03 at cycle   7 NSaved=   7.
 NSaved= 7 IEnMin= 7 EnMin= -198.761858779700     IErMin= 7 ErrMin= 2.77D-03
 ErrMax= 2.77D-03  0.00D+00 EMaxC= 1.00D+00 BMatC= 1.24D-04 BMatP= 2.66D-04
 IDIUse=1 WtCom= 1.00D+00 WtEn= 0.00D+00
 Coeff-Com:  0.176D-01-0.506D-01-0.207D+00 0.481D+00-0.252D+00-0.141D+01
 Coeff-Com:  0.242D+01
 Coeff:      0.176D-01-0.506D-01-0.207D+00 0.481D+00-0.252D+00-0.141D+01
 Coeff:      0.242D+01
 Gap=     0.433 Goal=   None    Shift=    0.500
 T=  249. Gap= 0.933 NK=0 IS=   19 IE=   57 IFin=   18
          NO(<0.9)=   0  NV(>0.1)=   0     18.00e < EF      0.00e >EF  Err=0.0D+00
 Gap=     0.287 Goal=   None    Shift=    0.500
 T=  249. Gap= 0.787 NK=0 IS=   18 IE=   57 IFin=   17
          NO(<0.9)=   0  NV(>0.1)=   0     17.00e < EF      0.00e >EF  Err=0.0D+00
 GapD=    0.287 DampG=1.000 DampE=1.000 DampFc=1.0000 IDamp=-1.
 RMSDP=2.90D-04 MaxDP=4.35D-03 DE=-4.91D-04 OVMax= 1.25D-02

 Cycle   8  Pass 1  IDiag  1:
 E= -198.762090825627     Delta-E=       -0.000232045927 Rises=F Damp=F
 DIIS: error= 2.02D-03 at cycle   8 NSaved=   8.
 NSaved= 8 IEnMin= 8 EnMin= -198.762090825627     IErMin= 8 ErrMin= 2.02D-03
 ErrMax= 2.02D-03  0.00D+00 EMaxC= 1.00D+00 BMatC= 6.30D-05 BMatP= 1.24D-04
 IDIUse=1 WtCom= 1.00D+00 WtEn= 0.00D+00
 Coeff-Com: -0.182D-01 0.317D+00-0.850D+00 0.554D+00 0.140D+01-0.275D+01
 Coeff-Com: -0.555D-01 0.239D+01
 Coeff:     -0.182D-01 0.317D+00-0.850D+00 0.554D+00 0.140D+01-0.275D+01
 Coeff:     -0.555D-01 0.239D+01
 Gap=     0.434 Goal=   None    Shift=    0.500
 T=   81. Gap= 0.934 NK=0 IS=   19 IE=   57 IFin=   18
          NO(<0.9)=   0  NV(>0.1)=   0     18.00e < EF      0.00e >EF  Err=0.0D+00
 Gap=     0.288 Goal=   None    Shift=    0.500
 T=   81. Gap= 0.788 NK=0 IS=   18 IE=   57 IFin=   17
          NO(<0.9)=   0  NV(>0.1)=   0     17.00e < EF      0.00e >EF  Err=0.0D+00
 GapD=    0.288 DampG=1.000 DampE=1.000 DampFc=1.0000 IDamp=-1.
 RMSDP=2.41D-04 MaxDP=3.50D-03 DE=-2.32D-04 OVMax= 1.09D-02

 Cycle   9  Pass 1  IDiag  1:
 E= -198.762220881563     Delta-E=       -0.000130055936 Rises=F Damp=F
 DIIS: error= 1.38D-03 at cycle   9 NSaved=   9.
 NSaved= 9 IEnMin= 9 EnMin= -198.762220881563     IErMin= 9 ErrMin= 1.38D-03
 ErrMax= 1.38D-03  0.00D+00 EMaxC= 1.00D+00 BMatC= 2.88D-05 BMatP= 6.30D-05
 IDIUse=1 WtCom= 1.00D+00 WtEn= 0.00D+00
 Coeff-Com:  0.527D-02-0.190D+00 0.700D+00-0.670D+00-0.645D+00 0.236D+01
 Coeff-Com: -0.121D+01-0.350D+01 0.415D+01
 Coeff:      0.527D-02-0.190D+00 0.700D+00-0.670D+00-0.645D+00 0.236D+01
 Coeff:     -0.121D+01-0.350D+01 0.415D+01
 Gap=     0.434 Goal=   None    Shift=    0.500
 Gap=     0.288 Goal=   None    Shift=    0.500
 GapD=    0.288 DampG=1.000 DampE=1.000 DampFc=1.0000 IDamp=-1.
 RMSDP=1.99D-04 MaxDP=3.16D-03 DE=-1.30D-04 OVMax= 9.54D-03

 Cycle  10  Pass 1  IDiag  1:
 E= -198.762291286127     Delta-E=       -0.000070404564 Rises=F Damp=F
 DIIS: error= 8.47D-04 at cycle  10 NSaved=  10.
 NSaved=10 IEnMin=10 EnMin= -198.762291286127     IErMin=10 ErrMin= 8.47D-04
 ErrMax= 8.47D-04  0.00D+00 EMaxC= 1.00D+00 BMatC= 1.18D-05 BMatP= 2.88D-05
 IDIUse=1 WtCom= 1.00D+00 WtEn= 0.00D+00
 Coeff-Com:  0.314D-02 0.556D-02-0.482D-01 0.561D-01 0.429D-01-0.222D+00
 Coeff-Com:  0.356D+00 0.922D-01-0.190D+01 0.262D+01
 Coeff:      0.314D-02 0.556D-02-0.482D-01 0.561D-01 0.429D-01-0.222D+00
 Coeff:      0.356D+00 0.922D-01-0.190D+01 0.262D+01
 Gap=     0.434 Goal=   None    Shift=    0.500
 Gap=     0.288 Goal=   None    Shift=    0.500
 RMSDP=1.19D-04 MaxDP=1.96D-03 DE=-7.04D-05 OVMax= 5.96D-03

 Cycle  11  Pass 1  IDiag  1:
 E= -198.762318111960     Delta-E=       -0.000026825833 Rises=F Damp=F
 DIIS: error= 5.18D-04 at cycle  11 NSaved=  11.
 NSaved=11 IEnMin=11 EnMin= -198.762318111960     IErMin=11 ErrMin= 5.18D-04
 ErrMax= 5.18D-04  0.00D+00 EMaxC= 1.00D+00 BMatC= 5.20D-06 BMatP= 1.18D-05
 IDIUse=1 WtCom= 1.00D+00 WtEn= 0.00D+00
 Coeff-Com:  0.422D-05-0.446D-01 0.203D+00-0.227D+00-0.844D-01 0.643D+00
 Coeff-Com: -0.669D+00-0.853D+00 0.354D+01-0.648D+01 0.497D+01
 Coeff:      0.422D-05-0.446D-01 0.203D+00-0.227D+00-0.844D-01 0.643D+00
 Coeff:     -0.669D+00-0.853D+00 0.354D+01-0.648D+01 0.497D+01
 Gap=     0.434 Goal=   None    Shift=    0.500
 Gap=     0.288 Goal=   None    Shift=    0.500
 RMSDP=8.12D-05 MaxDP=1.27D-03 DE=-2.68D-05 OVMax= 4.13D-03

 Cycle  12  Pass 1  IDiag  1:
 E= -198.762329662880     Delta-E=       -0.000011550920 Rises=F Damp=F
 DIIS: error= 2.98D-04 at cycle  12 NSaved=  12.
 NSaved=12 IEnMin=12 EnMin= -198.762329662880     IErMin=12 ErrMin= 2.98D-04
 ErrMax= 2.98D-04  0.00D+00 EMaxC= 1.00D+00 BMatC= 1.94D-06 BMatP= 5.20D-06
 IDIUse=1 WtCom= 1.00D+00 WtEn= 0.00D+00
 Coeff-Com:  0.917D-03-0.276D-01 0.102D+00-0.976D-01-0.832D-01 0.312D+00
 Coeff-Com: -0.824D-01-0.580D+00 0.469D+00 0.741D+00-0.265D+01 0.289D+01
 Coeff:      0.917D-03-0.276D-01 0.102D+00-0.976D-01-0.832D-01 0.312D+00
 Coeff:     -0.824D-01-0.580D+00 0.469D+00 0.741D+00-0.265D+01 0.289D+01
 Gap=     0.435 Goal=   None    Shift=    0.500
 Gap=     0.289 Goal=   None    Shift=    0.500
 RMSDP=4.91D-05 MaxDP=7.47D-04 DE=-1.16D-05 OVMax= 2.49D-03

 Cycle  13  Pass 1  IDiag  1:
 E= -198.762333805119     Delta-E=       -0.000004142239 Rises=F Damp=F
 DIIS: error= 1.67D-04 at cycle  13 NSaved=  13.
 NSaved=13 IEnMin=13 EnMin= -198.762333805119     IErMin=13 ErrMin= 1.67D-04
 ErrMax= 1.67D-04  0.00D+00 EMaxC= 1.00D+00 BMatC= 7.08D-07 BMatP= 1.94D-06
 IDIUse=1 WtCom= 1.00D+00 WtEn= 0.00D+00
 Coeff-Com:  0.415D-03 0.484D-03 0.439D-02-0.131D-01 0.310D-01-0.297D-02
 Coeff-Com: -0.124D+00 0.894D-01 0.621D+00-0.208D+01 0.358D+01-0.528D+01
 Coeff-Com:  0.417D+01
 Coeff:      0.415D-03 0.484D-03 0.439D-02-0.131D-01 0.310D-01-0.297D-02
 Coeff:     -0.124D+00 0.894D-01 0.621D+00-0.208D+01 0.358D+01-0.528D+01
 Coeff:      0.417D+01
 Gap=     0.435 Goal=   None    Shift=    0.500
 Gap=     0.289 Goal=   None    Shift=    0.500
 RMSDP=2.95D-05 MaxDP=4.51D-04 DE=-4.14D-06 OVMax= 1.51D-03

 Cycle  14  Pass 1  IDiag  1:
 E= -198.762335257565     Delta-E=       -0.000001452446 Rises=F Damp=F
 DIIS: error= 8.87D-05 at cycle  14 NSaved=  14.
 NSaved=14 IEnMin=14 EnMin= -198.762335257565     IErMin=14 ErrMin= 8.87D-05
 ErrMax= 8.87D-05  0.00D+00 EMaxC= 1.00D+00 BMatC= 2.61D-07 BMatP= 7.08D-07
 IDIUse=1 WtCom= 1.00D+00 WtEn= 0.00D+00
 Coeff-Com:  0.464D-03-0.999D-02 0.395D-01-0.417D-01-0.216D-01 0.106D+00
 Coeff-Com: -0.423D-01-0.199D+00 0.373D+00-0.348D+00-0.330D+00 0.181D+01
 Coeff-Com: -0.358D+01 0.325D+01
 Coeff:      0.464D-03-0.999D-02 0.395D-01-0.417D-01-0.216D-01 0.106D+00
 Coeff:     -0.423D-01-0.199D+00 0.373D+00-0.348D+00-0.330D+00 0.181D+01
 Coeff:     -0.358D+01 0.325D+01
 Gap=     0.435 Goal=   None    Shift=    0.500
 Gap=     0.289 Goal=   None    Shift=    0.500
 RMSDP=1.68D-05 MaxDP=2.52D-04 DE=-1.45D-06 OVMax= 8.66D-04

 Cycle  15  Pass 1  IDiag  1:
 E= -198.762335730607     Delta-E=       -0.000000473042 Rises=F Damp=F
 DIIS: error= 4.65D-05 at cycle  15 NSaved=  15.
 NSaved=15 IEnMin=15 EnMin= -198.762335730607     IErMin=15 ErrMin= 4.65D-05
 ErrMax= 4.65D-05  0.00D+00 EMaxC= 1.00D+00 BMatC= 8.80D-08 BMatP= 2.61D-07
 IDIUse=1 WtCom= 1.00D+00 WtEn= 0.00D+00
 Coeff-Com: -0.191D-03 0.366D-02-0.141D-01 0.150D-01 0.862D-02-0.385D-01
 Coeff-Com:  0.116D-01 0.837D-01-0.131D+00 0.780D-01 0.295D+00-0.140D+01
 Coeff-Com:  0.310D+01-0.494D+01 0.394D+01
 Coeff:     -0.191D-03 0.366D-02-0.141D-01 0.150D-01 0.862D-02-0.385D-01
 Coeff:      0.116D-01 0.837D-01-0.131D+00 0.780D-01 0.295D+00-0.140D+01
 Coeff:      0.310D+01-0.494D+01 0.394D+01
 Gap=     0.435 Goal=   None    Shift=    0.500
 Gap=     0.289 Goal=   None    Shift=    0.500
 RMSDP=9.07D-06 MaxDP=1.30D-04 DE=-4.73D-07 OVMax= 4.72D-04

 Cycle  16  Pass 1  IDiag  1:
 E= -198.762335873263     Delta-E=       -0.000000142656 Rises=F Damp=F
 DIIS: error= 2.70D-05 at cycle  16 NSaved=  16.
 NSaved=16 IEnMin=16 EnMin= -198.762335873263     IErMin=16 ErrMin= 2.70D-05
 ErrMax= 2.70D-05  0.00D+00 EMaxC= 1.00D+00 BMatC= 2.92D-08 BMatP= 8.80D-08
 IDIUse=1 WtCom= 1.00D+00 WtEn= 0.00D+00
 Coeff-Com:  0.711D-04-0.834D-03 0.534D-02-0.773D-02 0.434D-02 0.243D-02
 Coeff-Com: -0.192D-03-0.268D-01 0.102D+00-0.215D+00 0.191D+00 0.936D-01
 Coeff-Com: -0.874D+00 0.233D+01-0.409D+01 0.349D+01
 Coeff:      0.711D-04-0.834D-03 0.534D-02-0.773D-02 0.434D-02 0.243D-02
 Coeff:     -0.192D-03-0.268D-01 0.102D+00-0.215D+00 0.191D+00 0.936D-01
 Coeff:     -0.874D+00 0.233D+01-0.409D+01 0.349D+01
 Gap=     0.435 Goal=   None    Shift=    0.500
 Gap=     0.289 Goal=   None    Shift=    0.500
 RMSDP=4.78D-06 MaxDP=6.49D-05 DE=-1.43D-07 OVMax= 2.50D-04

 Cycle  17  Pass 1  IDiag  1:
 E= -198.762335915129     Delta-E=       -0.000000041866 Rises=F Damp=F
 DIIS: error= 1.58D-05 at cycle  17 NSaved=  17.
 NSaved=17 IEnMin=17 EnMin= -198.762335915129     IErMin=17 ErrMin= 1.58D-05
 ErrMax= 1.58D-05  0.00D+00 EMaxC= 1.00D+00 BMatC= 9.25D-09 BMatP= 2.92D-08
 IDIUse=1 WtCom= 1.00D+00 WtEn= 0.00D+00
 Coeff-Com: -0.245D-04 0.794D-03-0.432D-02 0.568D-02-0.903D-03-0.809D-02
 Coeff-Com:  0.723D-02 0.205D-01-0.654D-01 0.110D+00-0.568D-01-0.201D+00
 Coeff-Com:  0.742D+00-0.170D+01 0.297D+01-0.446D+01 0.364D+01
 Coeff:     -0.245D-04 0.794D-03-0.432D-02 0.568D-02-0.903D-03-0.809D-02
 Coeff:      0.723D-02 0.205D-01-0.654D-01 0.110D+00-0.568D-01-0.201D+00
 Coeff:      0.742D+00-0.170D+01 0.297D+01-0.446D+01 0.364D+01
 Gap=     0.435 Goal=   None    Shift=    0.500
 Gap=     0.289 Goal=   None    Shift=    0.500
 RMSDP=2.46D-06 MaxDP=3.29D-05 DE=-4.19D-08 OVMax= 1.29D-04

 Cycle  18  Pass 1  IDiag  1:
 E= -198.762335927188     Delta-E=       -0.000000012059 Rises=F Damp=F
 DIIS: error= 9.15D-06 at cycle  18 NSaved=  18.
 NSaved=18 IEnMin=18 EnMin= -198.762335927188     IErMin=18 ErrMin= 9.15D-06
 ErrMax= 9.15D-06  0.00D+00 EMaxC= 1.00D+00 BMatC= 2.87D-09 BMatP= 9.25D-09
 IDIUse=1 WtCom= 1.00D+00 WtEn= 0.00D+00
 Coeff-Com: -0.220D-04 0.362D-03-0.764D-03 0.235D-03 0.263D-02-0.633D-02
 Coeff-Com:  0.401D-02 0.314D-02 0.290D-02-0.253D-01 0.464D-01-0.537D-01
 Coeff-Com:  0.504D-02 0.172D+00-0.633D+00 0.165D+01-0.350D+01 0.333D+01
 Coeff:     -0.220D-04 0.362D-03-0.764D-03 0.235D-03 0.263D-02-0.633D-02
 Coeff:      0.401D-02 0.314D-02 0.290D-02-0.253D-01 0.464D-01-0.537D-01
 Coeff:      0.504D-02 0.172D+00-0.633D+00 0.165D+01-0.350D+01 0.333D+01
 Gap=     0.435 Goal=   None    Shift=    0.500
 Gap=     0.289 Goal=   None    Shift=    0.500
 RMSDP=1.24D-06 MaxDP=1.71D-05 DE=-1.21D-08 OVMax= 6.55D-05

 Cycle  19  Pass 1  IDiag  1:
 E= -198.762335930667     Delta-E=       -0.000000003479 Rises=F Damp=F
 DIIS: error= 5.32D-06 at cycle  19 NSaved=  19.
 NSaved=19 IEnMin=19 EnMin= -198.762335930667     IErMin=19 ErrMin= 5.32D-06
 ErrMax= 5.32D-06  0.00D+00 EMaxC= 1.00D+00 BMatC= 8.52D-10 BMatP= 2.87D-09
 IDIUse=1 WtCom= 1.00D+00 WtEn= 0.00D+00
 Coeff-Com: -0.129D-04 0.276D-03-0.102D-02 0.106D-02 0.677D-03-0.338D-02
 Coeff-Com:  0.297D-02 0.382D-02-0.113D-01 0.145D-01-0.669D-02-0.127D-01
 Coeff-Com:  0.365D-01-0.692D-01 0.130D+00-0.429D+00 0.121D+01-0.279D+01
 Coeff-Com:  0.292D+01
 Coeff:     -0.129D-04 0.276D-03-0.102D-02 0.106D-02 0.677D-03-0.338D-02
 Coeff:      0.297D-02 0.382D-02-0.113D-01 0.145D-01-0.669D-02-0.127D-01
 Coeff:      0.365D-01-0.692D-01 0.130D+00-0.429D+00 0.121D+01-0.279D+01
 Coeff:      0.292D+01
 Gap=     0.435 Goal=   None    Shift=    0.500
 Gap=     0.289 Goal=   None    Shift=    0.500
 RMSDP=6.47D-07 MaxDP=8.97D-06 DE=-3.48D-09 OVMax= 3.41D-05

 SCF Done:  E(ULC-wHPBE) =  -198.762335931     A.U. after   19 cycles
            NFock= 19  Conv=0.65D-06     -V/T= 2.0294
 <Sx>= 0.0000 <Sy>= 0.0000 <Sz>= 0.5000 <S**2>= 0.8404 S= 0.5442
 <L.S>= 0.000000000000E+00
 KE= 1.930938631050D+02 PE=-7.530127061204D+02 EE= 2.051437645987D+02
 Annihilation of the first spin contaminant:
 S**2 before annihilation     0.8404,   after     0.7546
 Leave Link  502 at Thu Mar  5 13:03:09 2020, MaxMem=  6710886400 cpu:              31.9 elap:               2.0
 (Enter /opt/ohpc/pub/libs/gaussian/g16-A.03/sandybridge/g16/l508.exe)
 QCSCF skips out because SCF is already converged.
 Leave Link  508 at Thu Mar  5 13:03:09 2020, MaxMem=  6710886400 cpu:               0.2 elap:               0.0
 (Enter /opt/ohpc/pub/libs/gaussian/g16-A.03/sandybridge/g16/l601.exe)
 Copying SCF densities to generalized density rwf, IOpCl= 1 IROHF=0.

 **********************************************************************

            Population analysis using the SCF density.

 **********************************************************************

 Orbital symmetries:
 Alpha Orbitals:
       Occupied  (B2) (A1) (A1) (B2) (A1) (A1) (A1) (B2) (A1) (B2)
                 (A1) (B2) (A1) (A1) (B1) (B2) (A2) (B1)
       Virtual   (A2) (B2) (B1) (A1) (A1) (B2) (A1) (A1) (B2) (A1)
                 (B2) (A1) (B2) (B1) (B2) (B1) (A2) (A1) (A1) (B2)
                 (A1) (A2) (B1) (B2) (B2) (A1) (A1) (A1) (B2) (A1)
                 (B2) (A1) (A1) (B2) (A1) (B2) (A1) (A1) (B2)
 Beta  Orbitals:
       Occupied  (B2) (A1) (B2) (A1) (A1) (A1) (A1) (B2) (A1) (B2)
                 (A1) (B2) (A1) (A1) (B2) (B1) (A2)
       Virtual   (B1) (B2) (A2) (A1) (B1) (A1) (B2) (A1) (B2) (A1)
                 (A1) (B2) (A1) (B2) (B2) (B1) (A2) (A1) (B1) (A1)
                 (B2) (A1) (A2) (B1) (B2) (B2) (A1) (A1) (B2) (A1)
                 (B2) (A1) (A1) (A1) (B2) (A1) (B2) (A1) (A1) (B2)
 The electronic state is 2-B1.
 Alpha  occ. eigenvalues --  -10.53247 -10.53244 -10.48085 -10.47321 -10.47320
 Alpha  occ. eigenvalues --   -1.39666  -1.26587  -1.21635  -1.07581  -1.05303
 Alpha  occ. eigenvalues --   -1.00457  -0.90478  -0.88226  -0.87130  -0.85923
 Alpha  occ. eigenvalues --   -0.84760  -0.70812  -0.69849
 Alpha virt. eigenvalues --   -0.26393  -0.25807  -0.19177  -0.18492  -0.11503
 Alpha virt. eigenvalues --   -0.06786  -0.04712  -0.02304  -0.02241   0.08421
 Alpha virt. eigenvalues --    0.08722   0.18970   0.19211   0.27491   0.28449
 Alpha virt. eigenvalues --    0.35259   0.35747   0.36522   0.38434   0.39305
 Alpha virt. eigenvalues --    0.39640   0.43334   0.44812   0.52262   0.59222
 Alpha virt. eigenvalues --    0.61528   0.62536   0.65168   0.65253   0.71153
 Alpha virt. eigenvalues --    0.71418   0.75705   0.79875   0.86569   0.94632
 Alpha virt. eigenvalues --    0.95490   1.01399   1.22910   1.24426
  Beta  occ. eigenvalues --  -10.52564 -10.52559 -10.47721 -10.47720 -10.47056
  Beta  occ. eigenvalues --   -1.38270  -1.24498  -1.21464  -1.06426  -1.04529
  Beta  occ. eigenvalues --   -1.00229  -0.90222  -0.87968  -0.86563  -0.84637
  Beta  occ. eigenvalues --   -0.80911  -0.69370
  Beta virt. eigenvalues --   -0.40512  -0.24093  -0.23118  -0.18270  -0.15520
  Beta virt. eigenvalues --   -0.11052  -0.06502  -0.04529  -0.02362  -0.01611
  Beta virt. eigenvalues --    0.08920   0.09039   0.19370   0.19573   0.28883
  Beta virt. eigenvalues --    0.30117   0.36906   0.37127   0.38366   0.38768
  Beta virt. eigenvalues --    0.39615   0.40827   0.43826   0.46503   0.52881
  Beta virt. eigenvalues --    0.59667   0.62480   0.63016   0.65116   0.65633
  Beta virt. eigenvalues --    0.71680   0.71908   0.76537   0.80748   0.86472
  Beta virt. eigenvalues --    0.95087   0.96049   1.02676   1.23879   1.25313
          Condensed to atoms (all electrons):
               1          2          3          4          5          6
     1  C    5.384229   0.490065  -0.042615  -0.121747   0.175233   0.161668
     2  C    0.490065   4.981544   0.448217  -0.024713  -0.121747  -0.021583
     3  C   -0.042615   0.448217   4.911916   0.448217  -0.042615   0.007637
     4  C   -0.121747  -0.024713   0.448217   4.981544   0.490065  -0.021583
     5  C    0.175233  -0.121747  -0.042615   0.490065   5.384229   0.161668
     6  H    0.161668  -0.021583   0.007637  -0.021583   0.161668   0.345321
     7  H    0.335043   0.005231  -0.000557   0.002971  -0.014146  -0.010148
     8  H   -0.022158   0.359889  -0.010951   0.003580   0.000608   0.000274
     9  H    0.004471  -0.024548   0.361967  -0.024548   0.004471  -0.000019
    10  H    0.000608   0.003580  -0.010951   0.359889  -0.022158   0.000274
    11  H   -0.014146   0.002971  -0.000557   0.005231   0.335043  -0.010148
               7          8          9         10         11
     1  C    0.335043  -0.022158   0.004471   0.000608  -0.014146
     2  C    0.005231   0.359889  -0.024548   0.003580   0.002971
     3  C   -0.000557  -0.010951   0.361967  -0.010951  -0.000557
     4  C    0.002971   0.003580  -0.024548   0.359889   0.005231
     5  C   -0.014146   0.000608   0.004471  -0.022158   0.335043
     6  H   -0.010148   0.000274  -0.000019   0.000274  -0.010148
     7  H    0.333297   0.000289  -0.000045  -0.000013   0.000364
     8  H    0.000289   0.371525  -0.000930  -0.000069  -0.000013
     9  H   -0.000045  -0.000930   0.389304  -0.000930  -0.000045
    10  H   -0.000013  -0.000069  -0.000930   0.371525   0.000289
    11  H    0.000364  -0.000013  -0.000045   0.000289   0.333297
          Atomic-Atomic Spin Densities.
               1          2          3          4          5          6
     1  C    0.567120  -0.040649  -0.022033  -0.009611   0.016893  -0.004726
     2  C   -0.040649  -0.327153   0.027277   0.001028  -0.009611   0.000483
     3  C   -0.022033   0.027277   0.767293   0.027277  -0.022033   0.000185
     4  C   -0.009611   0.001028   0.027277  -0.327153  -0.040649   0.000483
     5  C    0.016893  -0.009611  -0.022033  -0.040649   0.567120  -0.004726
     6  H   -0.004726   0.000483   0.000185   0.000483  -0.004726  -0.017648
     7  H   -0.003646  -0.000614   0.000136  -0.000126   0.000149  -0.000083
     8  H   -0.000397   0.002354  -0.001077  -0.000154   0.000087   0.000030
     9  H   -0.000008   0.000031  -0.001817   0.000031  -0.000008  -0.000002
    10  H    0.000087  -0.000154  -0.001077   0.002354  -0.000397   0.000030
    11  H    0.000149  -0.000126   0.000136  -0.000614  -0.003646  -0.000083
               7          8          9         10         11
     1  C   -0.003646  -0.000397  -0.000008   0.000087   0.000149
     2  C   -0.000614   0.002354   0.000031  -0.000154  -0.000126
     3  C    0.000136  -0.001077  -0.001817  -0.001077   0.000136
     4  C   -0.000126  -0.000154   0.000031   0.002354  -0.000614
     5  C    0.000149   0.000087  -0.000008  -0.000397  -0.003646
     6  H   -0.000083   0.000030  -0.000002   0.000030  -0.000083
     7  H   -0.020854   0.000043   0.000004  -0.000000  -0.000081
     8  H    0.000043   0.010140   0.000004  -0.000000  -0.000000
     9  H    0.000004   0.000004  -0.030464   0.000004   0.000004
    10  H   -0.000000  -0.000000   0.000004   0.010140   0.000043
    11  H   -0.000081  -0.000000   0.000004   0.000043  -0.020854
 Mulliken charges and spin densities:
               1          2
     1  C   -0.350652   0.503180
     2  C   -0.098906  -0.347135
     3  C   -0.069709   0.774267
     4  C   -0.098906  -0.347135
     5  C   -0.350652   0.503180
     6  H    0.386636  -0.026055
     7  H    0.347714  -0.025072
     8  H    0.297955   0.011030
     9  H    0.290852  -0.032219
    10  H    0.297955   0.011030
    11  H    0.347714  -0.025072
 Sum of Mulliken charges =   1.00000   1.00000
 Mulliken charges and spin densities with hydrogens summed into heavy atoms:
               1          2
     1  C    0.383698   0.452054
     2  C    0.199049  -0.336105
     3  C    0.221143   0.742048
     4  C    0.199049  -0.336105
     5  C   -0.002938   0.478109
 Electronic spatial extent (au):  <R**2>=            317.1992
 Charge=              1.0000 electrons
 Dipole moment (field-independent basis, Debye):
    X=             -0.0000    Y=             -0.0000    Z=             -2.0729  Tot=              2.0729
 Quadrupole moment (field-independent basis, Debye-Ang):
   XX=            -30.5923   YY=            -16.7085   ZZ=            -12.4136
   XY=              0.0000   XZ=              0.0000   YZ=              0.0000
 Traceless Quadrupole moment (field-independent basis, Debye-Ang):
   XX=            -10.6875   YY=              3.1963   ZZ=              7.4912
   XY=              0.0000   XZ=              0.0000   YZ=              0.0000
 Octapole moment (field-independent basis, Debye-Ang**2):
  XXX=              0.0000  YYY=              0.0000  ZZZ=             -7.6660  XYY=             -0.0000
  XXY=              0.0000  XXZ=              0.6185  XZZ=              0.0000  YZZ=             -0.0000
  YYZ=             -2.6835  XYZ=             -0.0000
 Hexadecapole moment (field-independent basis, Debye-Ang**3):
 XXXX=            -29.8261 YYYY=           -137.4022 ZZZZ=           -118.4970 XXXY=             -0.0000
 XXXZ=             -0.0000 YYYX=             -0.0000 YYYZ=             -0.0000 ZZZX=              0.0000
 ZZZY=             -0.0000 XXYY=            -40.9277 XXZZ=            -37.5851 YYZZ=            -40.4164
 XXYZ=             -0.0000 YYXZ=             -0.0000 ZZXY=             -0.0000
 N-N= 1.560127424860D+02 E-N=-7.530127118341D+02  KE= 1.930938631050D+02
 Symmetry A1   KE= 1.115322258762D+02
 Symmetry A2   KE= 2.584408352722D+00
 Symmetry B1   KE= 3.337745927756D+00
 Symmetry B2   KE= 7.563948294831D+01
 Symmetry A1   SP= 1.589376052711D-14
 Symmetry A2   SP=-3.758928932007D-15
 Symmetry B1   SP= 1.000000000000D+00
 Symmetry B2   SP=-2.406996585554D-16
                          Isotropic Fermi Contact Couplings
        Atom                 a.u.       MegaHertz       Gauss      10(-4) cm-1
     1  C(13)              0.08444      94.92239      33.87067      31.66270
     2  C(13)             -0.06199     -69.68933     -24.86689     -23.24586
     3  C(13)              0.11992     134.80750      48.10267      44.96694
     4  C(13)             -0.06199     -69.68933     -24.86689     -23.24586
     5  C(13)              0.08444      94.92239      33.87067      31.66270
     6  H(1)              -0.01008     -45.05543     -16.07690     -15.02887
     7  H(1)              -0.01115     -49.85070     -17.78797     -16.62840
     8  H(1)               0.00463      20.69717       7.38526       6.90383
     9  H(1)              -0.01514     -67.69558     -24.15547     -22.58081
    10  H(1)               0.00463      20.69717       7.38526       6.90383
    11  H(1)              -0.01115     -49.85070     -17.78797     -16.62840
 --------------------------------------------------------
       Center         ----  Spin Dipole Couplings  ----
                      3XX-RR        3YY-RR        3ZZ-RR
 --------------------------------------------------------
     1   Atom        0.530048     -0.258121     -0.271927
     2   Atom       -0.240055      0.117547      0.122508
     3   Atom        0.730980     -0.373867     -0.357113
     4   Atom       -0.240055      0.117547      0.122508
     5   Atom        0.530048     -0.258121     -0.271927
     6   Atom       -0.009528      0.009592     -0.000065
     7   Atom       -0.007102      0.007546     -0.000445
     8   Atom       -0.005955     -0.003807      0.009762
     9   Atom       -0.008779     -0.047382      0.056162
    10   Atom       -0.005955     -0.003807      0.009762
    11   Atom       -0.007102      0.007546     -0.000445
 --------------------------------------------------------
                        XY            XZ            YZ
 --------------------------------------------------------
     1   Atom       -0.000000      0.000000     -0.008793
     2   Atom       -0.000000      0.000000     -0.004673
     3   Atom       -0.000000     -0.000000      0.000000
     4   Atom       -0.000000     -0.000000      0.004673
     5   Atom        0.000000      0.000000      0.008793
     6   Atom       -0.000000      0.000000     -0.000000
     7   Atom        0.000000      0.000000     -0.037936
     8   Atom       -0.000000      0.000000     -0.007661
     9   Atom       -0.000000     -0.000000     -0.000000
    10   Atom        0.000000     -0.000000      0.007661
    11   Atom       -0.000000     -0.000000      0.037936
 --------------------------------------------------------


 ---------------------------------------------------------------------------------
              Anisotropic Spin Dipole Couplings in Principal Axis System
 ---------------------------------------------------------------------------------

       Atom             a.u.   MegaHertz   Gauss  10(-4) cm-1        Axes

              Baa    -0.2762   -37.064   -13.225   -12.363 -0.0000  0.4373  0.8993
     1 C(13)  Bbb    -0.2538   -34.064   -12.155   -11.362 -0.0000  0.8993 -0.4373
              Bcc     0.5300    71.127    25.380    23.726  1.0000  0.0000  0.0000
 
              Baa    -0.2401   -32.213   -11.494   -10.745  1.0000  0.0000  0.0000
     2 C(13)  Bbb     0.1147    15.397     5.494     5.136 -0.0000  0.8570  0.5154
              Bcc     0.1253    16.816     6.001     5.609  0.0000 -0.5154  0.8570
 
              Baa    -0.3739   -50.169   -17.902   -16.735 -0.0000  1.0000  0.0000
     3 C(13)  Bbb    -0.3571   -47.921   -17.099   -15.985  0.0000  0.0000  1.0000
              Bcc     0.7310    98.091    35.001    32.719  1.0000 -0.0000  0.0000
 
              Baa    -0.2401   -32.213   -11.494   -10.745  1.0000  0.0000  0.0000
     4 C(13)  Bbb     0.1147    15.397     5.494     5.136 -0.0000  0.8570 -0.5154
              Bcc     0.1253    16.816     6.001     5.609 -0.0000  0.5154  0.8570
 
              Baa    -0.2762   -37.064   -13.225   -12.363 -0.0000 -0.4373  0.8993
     5 C(13)  Bbb    -0.2538   -34.064   -12.155   -11.362  0.0000  0.8993  0.4373
              Bcc     0.5300    71.127    25.380    23.726  1.0000 -0.0000  0.0000
 
              Baa    -0.0095    -5.084    -1.814    -1.696  1.0000  0.0000 -0.0000
     6 H(1)   Bbb    -0.0001    -0.035    -0.012    -0.012  0.0000  0.0000  1.0000
              Bcc     0.0096     5.118     1.826     1.707 -0.0000  1.0000 -0.0000
 
              Baa    -0.0346   -18.458    -6.586    -6.157 -0.0000  0.6691  0.7432
     7 H(1)   Bbb    -0.0071    -3.789    -1.352    -1.264  1.0000  0.0000  0.0000
              Bcc     0.0417    22.247     7.938     7.421 -0.0000  0.7432 -0.6691
 
              Baa    -0.0073    -3.871    -1.381    -1.291 -0.0000  0.9119  0.4105
     8 H(1)   Bbb    -0.0060    -3.177    -1.134    -1.060  1.0000  0.0000  0.0000
              Bcc     0.0132     7.048     2.515     2.351  0.0000 -0.4105  0.9119
 
              Baa    -0.0474   -25.281    -9.021    -8.433 -0.0000  1.0000 -0.0000
     9 H(1)   Bbb    -0.0088    -4.684    -1.671    -1.563  1.0000 -0.0000 -0.0000
              Bcc     0.0562    29.965    10.692     9.995  0.0000  0.0000  1.0000
 
              Baa    -0.0073    -3.871    -1.381    -1.291 -0.0000  0.9119 -0.4105
    10 H(1)   Bbb    -0.0060    -3.177    -1.134    -1.060  1.0000  0.0000 -0.0000
              Bcc     0.0132     7.048     2.515     2.351  0.0000  0.4105  0.9119
 
              Baa    -0.0346   -18.458    -6.586    -6.157  0.0000 -0.6691  0.7432
    11 H(1)   Bbb    -0.0071    -3.789    -1.352    -1.264  1.0000  0.0000  0.0000
              Bcc     0.0417    22.247     7.938     7.421 -0.0000  0.7432  0.6691
 

 ---------------------------------------------------------------------------------

 No NMR shielding tensors so no spin-rotation constants.
 Leave Link  601 at Thu Mar  5 13:03:09 2020, MaxMem=  6710886400 cpu:               3.1 elap:               0.2
 (Enter /opt/ohpc/pub/libs/gaussian/g16-A.03/sandybridge/g16/l9999.exe)

 Test job not archived.
 1\1\GINC-CNODE212\SP\ULC-wHPBE\6-31G\C5H6(1+,2)\SMGO234\05-Mar-2020\0\
 \#P uLC-wHPBE/6-31G iop(3/130=0113900000, 3/131=0113900000, 3/119=0886
 100000, 3/120=0886100000) scf=(conver=6,fermi,ndamp=35,noincfock,novar
 acc,vshift=500,xqc)\\H6 C5\\1,2\C,0,0.,0.878804,-0.931542\C,0,0.,1.128
 157,0.423457\C,0,0.,0.,1.240879\C,0,0.,-1.128157,0.423457\C,0,0.,-0.87
 8804,-0.931542\H,0,0.,0.,-1.732269\H,0,0.,1.6083,-1.734053\H,0,0.,2.15
 6626,0.76567\H,0,0.,0.,2.320778\H,0,0.,-2.156626,0.76567\H,0,0.,-1.608
 3,-1.734053\\Version=EM64L-G16RevA.03\State=2-B1\HF=-198.7623359\S2=0.
 840406\S2-1=0.\S2A=0.754567\RMSD=6.469e-07\Dipole=0.,0.,-0.8155278\Qua
 drupole=-7.9458894,2.3763799,5.5695095,0.,0.,0.\PG=C02V [C2(H1C1H1),SG
 V(C4H4)]\\@


 A HARD FALL SHOULD MEAN A HIGH BOUNCE 
 IF ONE IS MADE OF THE RIGHT MATERIAL.

                -- THE CHEMIST ANALYST, MARCH 1950
 Job cpu time:       0 days  0 hours  1 minutes  1.6 seconds.
 Elapsed time:       0 days  0 hours  0 minutes  4.1 seconds.
 File lengths (MBytes):  RWF=    272 Int=      0 D2E=      0 Chk=     32 Scr=     32
 Normal termination of Gaussian 16 at Thu Mar  5 13:03:09 2020.
