 Entering Gaussian System, Link 0=g16
 Input=1b_tune_c7.gjf
 Output=1b_tune_c7.log
 Initial command:
 /opt/ohpc/pub/libs/gaussian/g16-A.03/haswell/g16/l1.exe "/scratch/smgo234/Ocelot/test/1b/tuning_1b_ocycle1/Gau-41474.inp" -scrdir="/scratch/smgo234/Ocelot/test/1b/tuning_1b_ocycle1/"
 Entering Link 1 = /opt/ohpc/pub/libs/gaussian/g16-A.03/haswell/g16/l1.exe PID=     41475.
  
 Copyright (c) 1988,1990,1992,1993,1995,1998,2003,2009,2016,
            Gaussian, Inc.  All Rights Reserved.
  
 This is part of the Gaussian(R) 16 program.  It is based on
 the Gaussian(R) 09 system (copyright 2009, Gaussian, Inc.),
 the Gaussian(R) 03 system (copyright 2003, Gaussian, Inc.),
 the Gaussian(R) 98 system (copyright 1998, Gaussian, Inc.),
 the Gaussian(R) 94 system (copyright 1995, Gaussian, Inc.),
 the Gaussian 92(TM) system (copyright 1992, Gaussian, Inc.),
 the Gaussian 90(TM) system (copyright 1990, Gaussian, Inc.),
 the Gaussian 88(TM) system (copyright 1988, Gaussian, Inc.),
 the Gaussian 86(TM) system (copyright 1986, Carnegie Mellon
 University), and the Gaussian 82(TM) system (copyright 1983,
 Carnegie Mellon University). Gaussian is a federally registered
 trademark of Gaussian, Inc.
  
 This software contains proprietary and confidential information,
 including trade secrets, belonging to Gaussian, Inc.
  
 This software is provided under written license and may be
 used, copied, transmitted, or stored only in accord with that
 written license.
  
 The following legend is applicable only to US Government
 contracts under FAR:
  
                    RESTRICTED RIGHTS LEGEND
  
 Use, reproduction and disclosure by the US Government is
 subject to restrictions as set forth in subparagraphs (a)
 and (c) of the Commercial Computer Software - Restricted
 Rights clause in FAR 52.227-19.
  
 Gaussian, Inc.
 340 Quinnipiac St., Bldg. 40, Wallingford CT 06492
  
  
 ---------------------------------------------------------------
 Warning -- This program may not be used in any manner that
 competes with the business of Gaussian, Inc. or will provide
 assistance to any competitor of Gaussian, Inc.  The licensee
 of this program is prohibited from giving any competitor of
 Gaussian, Inc. access to this program.  By using this program,
 the user acknowledges that Gaussian, Inc. is engaged in the
 business of creating and licensing software in the field of
 computational chemistry and represents and warrants to the
 licensee that it is not a competitor of Gaussian, Inc. and that
 it will not use this program in any manner prohibited above.
 ---------------------------------------------------------------
  

 Cite this work as:
 Gaussian 16, Revision A.03,
 M. J. Frisch, G. W. Trucks, H. B. Schlegel, G. E. Scuseria, 
 M. A. Robb, J. R. Cheeseman, G. Scalmani, V. Barone, 
 G. A. Petersson, H. Nakatsuji, X. Li, M. Caricato, A. V. Marenich, 
 J. Bloino, B. G. Janesko, R. Gomperts, B. Mennucci, H. P. Hratchian, 
 J. V. Ortiz, A. F. Izmaylov, J. L. Sonnenberg, D. Williams-Young, 
 F. Ding, F. Lipparini, F. Egidi, J. Goings, B. Peng, A. Petrone, 
 T. Henderson, D. Ranasinghe, V. G. Zakrzewski, J. Gao, N. Rega, 
 G. Zheng, W. Liang, M. Hada, M. Ehara, K. Toyota, R. Fukuda, 
 J. Hasegawa, M. Ishida, T. Nakajima, Y. Honda, O. Kitao, H. Nakai, 
 T. Vreven, K. Throssell, J. A. Montgomery, Jr., J. E. Peralta, 
 F. Ogliaro, M. J. Bearpark, J. J. Heyd, E. N. Brothers, K. N. Kudin, 
 V. N. Staroverov, T. A. Keith, R. Kobayashi, J. Normand, 
 K. Raghavachari, A. P. Rendell, J. C. Burant, S. S. Iyengar, 
 J. Tomasi, M. Cossi, J. M. Millam, M. Klene, C. Adamo, R. Cammi, 
 J. W. Ochterski, R. L. Martin, K. Morokuma, O. Farkas, 
 J. B. Foresman, and D. J. Fox, Gaussian, Inc., Wallingford CT, 2016.
 
 ******************************************
 Gaussian 16:  ES64L-G16RevA.03 25-Dec-2016
                25-Feb-2020 
 ******************************************
 %mem=50GB
 %nproc=16
 Will use up to   16 processors via shared memory.
 ----------------------------------------------------------------------
 #P uLC-wHPBE/6-31G iop(3/107=0311800000, 3/108=0311800000) scf=(conver
 =6,fermi,ndamp=35,noincfock,novaracc,vshift=500,xqc)
 ----------------------------------------------------------------------
 1/38=1,172=1/1;
 2/12=2,17=6,18=5,40=1/2;
 3/5=1,6=6,11=2,25=1,30=1,74=-71,107=311800000,108=311800000,116=2/1,2,3;
 4//1;
 5/5=100002,6=6,8=3,10=500,13=1,18=-1,22=13,38=1,93=35/2,8;
 6/7=2,8=2,9=2,10=2,28=1/1;
 99/5=1,9=1/99;
 Leave Link    1 at Tue Feb 25 12:22:26 2020, MaxMem=  6710886400 cpu:               9.8 elap:               0.6
 (Enter /opt/ohpc/pub/libs/gaussian/g16-A.03/haswell/g16/l101.exe)
 -----
 H6 C5
 -----
 Symbolic Z-matrix:
 Charge =  1 Multiplicity = 2
 C                     0.        0.89708  -0.93525 
 C                     0.        1.13409   0.42538 
 C                     0.        0.        1.24305 
 C                     0.       -1.13409   0.42538 
 C                     0.       -0.89708  -0.93525 
 H                     0.        0.       -1.72336 
 H                     0.        1.62254  -1.74574 
 H                     0.        2.16413   0.77433 
 H                     0.        0.        2.32629 
 H                     0.       -2.16413   0.77433 
 H                     0.       -1.62254  -1.74574 
 
 ITRead=  0  0  0  0  0  0  0  0  0  0  0
 MicOpt= -1 -1 -1 -1 -1 -1 -1 -1 -1 -1 -1
 NAtoms=     11 NQM=       11 NQMF=       0 NMMI=      0 NMMIF=      0
                NMic=       0 NMicF=      0.
                    Isotopes and Nuclear Properties:
 (Nuclear quadrupole moments (NQMom) in fm**2, nuclear magnetic moments (NMagM)
  in nuclear magnetons)

  Atom         1           2           3           4           5           6           7           8           9          10
 IAtWgt=          12          12          12          12          12           1           1           1           1           1
 AtmWgt=  12.0000000  12.0000000  12.0000000  12.0000000  12.0000000   1.0078250   1.0078250   1.0078250   1.0078250   1.0078250
 NucSpn=           0           0           0           0           0           1           1           1           1           1
 AtZEff=  -0.0000000  -0.0000000  -0.0000000  -0.0000000  -0.0000000  -0.0000000  -0.0000000  -0.0000000  -0.0000000  -0.0000000
 NQMom=    0.0000000   0.0000000   0.0000000   0.0000000   0.0000000   0.0000000   0.0000000   0.0000000   0.0000000   0.0000000
 NMagM=    0.0000000   0.0000000   0.0000000   0.0000000   0.0000000   2.7928460   2.7928460   2.7928460   2.7928460   2.7928460
 AtZNuc=   6.0000000   6.0000000   6.0000000   6.0000000   6.0000000   1.0000000   1.0000000   1.0000000   1.0000000   1.0000000

  Atom        11
 IAtWgt=           1
 AtmWgt=   1.0078250
 NucSpn=           1
 AtZEff=  -0.0000000
 NQMom=    0.0000000
 NMagM=    2.7928460
 AtZNuc=   1.0000000
 Leave Link  101 at Tue Feb 25 12:22:27 2020, MaxMem=  6710886400 cpu:               2.7 elap:               0.2
 (Enter /opt/ohpc/pub/libs/gaussian/g16-A.03/haswell/g16/l202.exe)
                          Input orientation:                          
 ---------------------------------------------------------------------
 Center     Atomic      Atomic             Coordinates (Angstroms)
 Number     Number       Type             X           Y           Z
 ---------------------------------------------------------------------
      1          6           0        0.000000    0.897082   -0.935245
      2          6           0        0.000000    1.134094    0.425375
      3          6           0        0.000000    0.000000    1.243051
      4          6           0        0.000000   -1.134094    0.425375
      5          6           0        0.000000   -0.897082   -0.935245
      6          1           0        0.000000    0.000000   -1.723356
      7          1           0        0.000000    1.622537   -1.745737
      8          1           0        0.000000    2.164126    0.774330
      9          1           0        0.000000    0.000000    2.326294
     10          1           0        0.000000   -2.164126    0.774330
     11          1           0        0.000000   -1.622537   -1.745737
 ---------------------------------------------------------------------
                    Distance matrix (angstroms):
                    1          2          3          4          5
     1  C    0.000000
     2  C    1.381109   0.000000
     3  C    2.355786   1.398128   0.000000
     4  C    2.444783   2.268188   1.398128   0.000000
     5  C    1.794164   2.444783   2.355786   1.381109   0.000000
     6  H    1.194100   2.429653   2.966407   2.429653   1.194100
     7  H    1.087742   2.225377   3.400806   3.508952   2.646767
     8  H    2.127921   1.087536   2.214304   3.316629   3.506229
     9  H    3.382661   2.213518   1.083243   2.213518   3.382661
    10  H    3.506229   3.316629   2.214304   1.087536   2.127921
    11  H    2.646767   3.508952   3.400806   2.225377   1.087742
                    6          7          8          9         10
     6  H    0.000000
     7  H    1.622691   0.000000
     8  H    3.304826   2.577607   0.000000
     9  H    4.049650   4.383385   2.663087   0.000000
    10  H    3.304826   4.548577   4.328252   2.663087   0.000000
    11  H    1.622691   3.245074   4.548577   4.383385   2.577607
                   11
    11  H    0.000000
 Stoichiometry    C5H6(1+,2)
 Framework group  C2V[C2(HCH),SGV(C4H4)]
 Deg. of freedom    10
 Full point group                 C2V     NOp   4
 Largest Abelian subgroup         C2V     NOp   4
 Largest concise Abelian subgroup C2      NOp   2
                         Standard orientation:                         
 ---------------------------------------------------------------------
 Center     Atomic      Atomic             Coordinates (Angstroms)
 Number     Number       Type             X           Y           Z
 ---------------------------------------------------------------------
      1          6           0        0.000000    0.897082   -0.935245
      2          6           0        0.000000    1.134094    0.425375
      3          6           0        0.000000   -0.000000    1.243051
      4          6           0       -0.000000   -1.134094    0.425375
      5          6           0       -0.000000   -0.897082   -0.935245
      6          1           0       -0.000000    0.000000   -1.723356
      7          1           0        0.000000    1.622537   -1.745737
      8          1           0        0.000000    2.164126    0.774330
      9          1           0        0.000000   -0.000000    2.326294
     10          1           0       -0.000000   -2.164126    0.774330
     11          1           0       -0.000000   -1.622537   -1.745737
 ---------------------------------------------------------------------
 Rotational constants (GHZ):           8.4725427           7.7835829           4.0567316
 Leave Link  202 at Tue Feb 25 12:22:27 2020, MaxMem=  6710886400 cpu:               0.2 elap:               0.0
 (Enter /opt/ohpc/pub/libs/gaussian/g16-A.03/haswell/g16/l301.exe)
 Standard basis: 6-31G (6D, 7F)
 Ernie: Thresh=  0.10000D-02 Tol=  0.10000D-05 Strict=F.
 There are    27 symmetry adapted cartesian basis functions of A1  symmetry.
 There are     4 symmetry adapted cartesian basis functions of A2  symmetry.
 There are     6 symmetry adapted cartesian basis functions of B1  symmetry.
 There are    20 symmetry adapted cartesian basis functions of B2  symmetry.
 There are    27 symmetry adapted basis functions of A1  symmetry.
 There are     4 symmetry adapted basis functions of A2  symmetry.
 There are     6 symmetry adapted basis functions of B1  symmetry.
 There are    20 symmetry adapted basis functions of B2  symmetry.
    57 basis functions,   134 primitive gaussians,    57 cartesian basis functions
    18 alpha electrons       17 beta electrons
       nuclear repulsion energy       155.1468587074 Hartrees.
 IExCor=33909 DFT=T Ex+Corr=LC-wHPBE ExCW=0 ScaHFX=  1.000000
 ScaDFX=  1.000000  1.000000  1.000000  1.000000 ScalE2=  1.000000  1.000000
 IRadAn=      5 IRanWt=     -1 IRanGd=            0 ICorTp=0 IEmpDi=  4
 HFx  wShort=  0.000000 wLong=  0.311800 cFull=  0.000000 cShort=  0.000000 cLong=  1.000000
 DFx  wShort=  0.000000 wLong=  0.311800 cFull=  0.000000 cShort=  1.000000 cLong=  0.000000
 NAtoms=   11 NActive=   11 NUniq=    7 SFac= 2.47D+00 NAtFMM=   60 NAOKFM=F Big=F
 Integral buffers will be    131072 words long.
 Raffenetti 2 integral format.
 Two-electron integral symmetry is turned on.
 Leave Link  301 at Tue Feb 25 12:22:27 2020, MaxMem=  6710886400 cpu:               0.8 elap:               0.1
 (Enter /opt/ohpc/pub/libs/gaussian/g16-A.03/haswell/g16/l302.exe)
 NPDir=0 NMtPBC=     1 NCelOv=     1 NCel=       1 NClECP=     1 NCelD=      1
         NCelK=      1 NCelE2=     1 NClLst=     1 CellRange=     0.0.
 One-electron integrals computed using PRISM.
 One-electron integral symmetry used in STVInt
 NBasis=    57 RedAO= T EigKep=  1.93D-03  NBF=    27     4     6    20
 NBsUse=    57 1.00D-06 EigRej= -1.00D+00 NBFU=    27     4     6    20
 Precomputing XC quadrature grid using
 IXCGrd= 4 IRadAn=           5 IRanWt=          -1 IRanGd=           0 AccXCQ= 0.00D+00.
 Generated NRdTot=       0 NPtTot=           0 NUsed=           0 NTot=          32
 NSgBfM=    57    57    57    57    57 MxSgAt=    11 MxSgA2=    11.
 Leave Link  302 at Tue Feb 25 12:22:27 2020, MaxMem=  6710886400 cpu:               3.1 elap:               0.2
 (Enter /opt/ohpc/pub/libs/gaussian/g16-A.03/haswell/g16/l303.exe)
 DipDrv:  MaxL=1.
 Leave Link  303 at Tue Feb 25 12:22:27 2020, MaxMem=  6710886400 cpu:               1.1 elap:               0.1
 (Enter /opt/ohpc/pub/libs/gaussian/g16-A.03/haswell/g16/l401.exe)
 ExpMin= 1.61D-01 ExpMax= 3.05D+03 ExpMxC= 4.57D+02 IAcc=3 IRadAn=         5 AccDes= 0.00D+00
 Harris functional with IExCor=33909 and IRadAn=       5 diagonalized for initial guess.
 HarFok:  IExCor=33909 AccDes= 0.00D+00 IRadAn=         5 IDoV= 1 UseB2=F ITyADJ=14
 ICtDFT=  3500011 ScaDFX=  1.000000  1.000000  1.000000  1.000000
 FoFCou: FMM=F IPFlag=           0 FMFlag=      100000 FMFlg1=           0
         NFxFlg=           0 DoJE=T BraDBF=F KetDBF=T FulRan=T
         wScrn=  0.000000 ICntrl=       500 IOpCl=  0 I1Cent=   200000004 NGrid=           0
         NMat0=    1 NMatS0=      1 NMatT0=    0 NMatD0=    1 NMtDS0=    0 NMtDT0=    0
 Petite list used in FoFCou.
 Harris En= -187.934587869475    
 JPrj=0 DoOrth=F DoCkMO=F.
 Initial guess orbital symmetries:
 Alpha Orbitals:
       Occupied  (A1) (B2) (A1) (B2) (A1) (A1) (B2) (A1) (A1) (B2)
                 (A1) (B2) (A1) (B2) (A1) (B1) (A2) (B1)
       Virtual   (A2) (B2) (B1) (A1) (A1) (B2) (A1) (B2) (A1) (B2)
                 (A1) (B2) (A1) (B2) (B1) (A1) (A2) (B1) (B2) (A1)
                 (A1) (A2) (B1) (B2) (B2) (A1) (B2) (A1) (A1) (B2)
                 (A1) (A1) (A1) (B2) (A1) (B2) (A1) (A1) (B2)
 Beta  Orbitals:
       Occupied  (A1) (B2) (A1) (B2) (A1) (A1) (B2) (A1) (A1) (B2)
                 (A1) (B2) (A1) (B2) (A1) (B1) (A2)
       Virtual   (B1) (A2) (B2) (B1) (A1) (A1) (B2) (A1) (B2) (A1)
                 (B2) (A1) (B2) (A1) (B2) (B1) (A1) (A2) (B1) (B2)
                 (A1) (A1) (A2) (B1) (B2) (B2) (A1) (B2) (A1) (A1)
                 (B2) (A1) (A1) (A1) (B2) (A1) (B2) (A1) (A1) (B2)
 The electronic state of the initial guess is 2-B1.
 Initial guess <Sx>= 0.0000 <Sy>= 0.0000 <Sz>= 0.5000 <S**2>= 0.7500 S= 0.5000
 Leave Link  401 at Tue Feb 25 12:22:27 2020, MaxMem=  6710886400 cpu:               4.3 elap:               0.3
 (Enter /opt/ohpc/pub/libs/gaussian/g16-A.03/haswell/g16/l502.exe)
 Keep R1 and R2 ints in memory in symmetry-blocked form, NReq=16815681.
 FoFCou: FMM=F IPFlag=           0 FMFlag=           0 FMFlg1=           0
         NFxFlg=           0 DoJE=F BraDBF=F KetDBF=F FulRan=T
         wScrn=  0.000000 ICntrl=       600 IOpCl=  0 I1Cent=           0 NGrid=           0
         NMat0=    1 NMatS0=   1653 NMatT0=    0 NMatD0=    1 NMtDS0=    0 NMtDT0=    0
 Petite list used in FoFCou.
 UHF open shell SCF:
 Using DIIS extrapolation, IDIIS=    10.
 NGot=  6710886400 LenX=  6710059561 LenY=  6710055871
 Requested convergence on RMS density matrix=1.00D-06 within  32 cycles.
 Requested convergence on MAX density matrix=1.00D-04.
 Requested convergence on             energy=1.00D-04.
 Virtual orbitals will be shifted by   0.500 hartree.
 No special actions if energy rises.
 Dynamic level shift is on during FON iterations.

 Cycle   1  Pass 1  IDiag  1:
 E= -193.407675472452    
 DIIS: error= 4.74D-02 at cycle   1 NSaved=   1.
 NSaved= 1 IEnMin= 1 EnMin= -193.407675472452     IErMin= 1 ErrMin= 4.74D-02
 ErrMax= 4.74D-02  0.00D+00 EMaxC= 1.00D+00 BMatC= 1.80D-01 BMatP= 1.80D-01
 IDIUse=1 WtCom= 1.00D+00 WtEn= 0.00D+00
 Coeff-Com:  0.100D+01
 Coeff:      0.100D+01
 Gap=     0.354 Goal=   None    Shift=    0.500
 T= 1770. Gap= 0.824 NK=0 IS=   19 IE=   57 IFin=   18
          NO(<0.9)=   0  NV(>0.1)=   0     18.00e < EF      0.00e >EF  Err=0.0D+00
 Gap=     0.244 Goal=   None    Shift=    0.500
 T= 1770. Gap= 0.747 NK=0 IS=   18 IE=   57 IFin=   17
          NO(<0.9)=   0  NV(>0.1)=   0     17.00e < EF      0.00e >EF  Err=0.0D+00
 GapD=    0.244 DampG=1.000 DampE=0.500 DampFc=0.5000 IDamp=-1.
 Damping current iteration by 5.00D-01
 RMSDP=6.57D-03 MaxDP=4.94D-02              OVMax= 9.88D-02

 Cycle   2  Pass 1  IDiag  1:
 E= -193.442223159731     Delta-E=       -0.034547687279 Rises=F Damp=T
 DIIS: error= 2.27D-02 at cycle   2 NSaved=   2.
 NSaved= 2 IEnMin= 2 EnMin= -193.442223159731     IErMin= 2 ErrMin= 2.27D-02
 ErrMax= 2.27D-02  0.00D+00 EMaxC= 1.00D+00 BMatC= 3.12D-02 BMatP= 1.80D-01
 IDIUse=1 WtCom= 1.00D+00 WtEn= 0.00D+00
 Coeff-Com: -0.544D+00 0.154D+01
 Coeff:     -0.544D+00 0.154D+01
 Gap=     0.424 Goal=   None    Shift=    0.500
 T= 1656. Gap= 0.909 NK=4 IS=   19 IE=   23 IFin=   18
          NO(<0.9)=   0  NV(>0.1)=   0     18.00e < EF      0.00e >EF  Err=0.0D+00
 Gap=     0.271 Goal=   None    Shift=    0.500
 T= 1656. Gap= 0.770 NK=4 IS=   18 IE=   23 IFin=   17
          NO(<0.9)=   0  NV(>0.1)=   0     17.00e < EF      0.00e >EF  Err=0.0D+00
 GapD=    0.271 DampG=1.000 DampE=0.500 DampFc=0.5000 IDamp=-1.
 Damping current iteration by 5.00D-01
 RMSDP=3.96D-03 MaxDP=3.07D-02 DE=-3.45D-02 OVMax= 1.55D-02

 Cycle   3  Pass 1  IDiag  1:
 E= -193.454482246904     Delta-E=       -0.012259087173 Rises=F Damp=T
 DIIS: error= 1.29D-02 at cycle   3 NSaved=   3.
 NSaved= 3 IEnMin= 3 EnMin= -193.454482246904     IErMin= 3 ErrMin= 1.29D-02
 ErrMax= 1.29D-02  0.00D+00 EMaxC= 1.00D+00 BMatC= 7.27D-03 BMatP= 3.12D-02
 IDIUse=1 WtCom= 1.00D+00 WtEn= 0.00D+00
 Coeff-Com:  0.338D+00-0.186D+01 0.253D+01
 Coeff:      0.338D+00-0.186D+01 0.253D+01
 Gap=     0.415 Goal=   None    Shift=    0.500
 T= 1447. Gap= 0.915 NK=0 IS=   19 IE=   57 IFin=   18
          NO(<0.9)=   0  NV(>0.1)=   0     18.00e < EF      0.00e >EF  Err=0.0D+00
 Gap=     0.275 Goal=   None    Shift=    0.500
 T= 1447. Gap= 0.775 NK=0 IS=   18 IE=   57 IFin=   17
          NO(<0.9)=   0  NV(>0.1)=   0     17.00e < EF      0.00e >EF  Err=0.0D+00
 GapD=    0.275 DampG=1.000 DampE=0.500 DampFc=0.5000 IDamp=-1.
 Damping current iteration by 5.00D-01
 RMSDP=2.17D-03 MaxDP=1.63D-02 DE=-1.23D-02 OVMax= 1.44D-02

 Cycle   4  Pass 1  IDiag  1:
 E= -193.460270486083     Delta-E=       -0.005788239178 Rises=F Damp=T
 DIIS: error= 8.15D-03 at cycle   4 NSaved=   4.
 NSaved= 4 IEnMin= 4 EnMin= -193.460270486083     IErMin= 4 ErrMin= 8.15D-03
 ErrMax= 8.15D-03  0.00D+00 EMaxC= 1.00D+00 BMatC= 2.46D-03 BMatP= 7.27D-03
 IDIUse=1 WtCom= 1.00D+00 WtEn= 0.00D+00
 Coeff-Com:  0.223D-03 0.818D+00-0.366D+01 0.384D+01
 Coeff:      0.223D-03 0.818D+00-0.366D+01 0.384D+01
 Gap=     0.420 Goal=   None    Shift=    0.500
 T= 1063. Gap= 0.920 NK=0 IS=   19 IE=   57 IFin=   18
          NO(<0.9)=   0  NV(>0.1)=   0     18.00e < EF      0.00e >EF  Err=0.0D+00
 Gap=     0.279 Goal=   None    Shift=    0.500
 T= 1063. Gap= 0.779 NK=0 IS=   18 IE=   57 IFin=   17
          NO(<0.9)=   0  NV(>0.1)=   0     17.00e < EF      0.00e >EF  Err=0.0D+00
 GapD=    0.279 DampG=1.000 DampE=1.000 DampFc=1.0000 IDamp=-1.
 RMSDP=1.34D-03 MaxDP=1.34D-02 DE=-5.79D-03 OVMax= 1.38D-02

 Cycle   5  Pass 1  IDiag  1:
 E= -193.466934317527     Delta-E=       -0.006663831445 Rises=F Damp=F
 DIIS: error= 3.55D-03 at cycle   5 NSaved=   5.
 NSaved= 5 IEnMin= 5 EnMin= -193.466934317527     IErMin= 5 ErrMin= 3.55D-03
 ErrMax= 3.55D-03  0.00D+00 EMaxC= 1.00D+00 BMatC= 3.59D-04 BMatP= 2.46D-03
 IDIUse=1 WtCom= 1.00D+00 WtEn= 0.00D+00
 Coeff-Com: -0.171D+00 0.871D+00-0.719D+00-0.855D+00 0.187D+01
 Coeff:     -0.171D+00 0.871D+00-0.719D+00-0.855D+00 0.187D+01
 Gap=     0.421 Goal=   None    Shift=    0.500
 T=  716. Gap= 0.921 NK=0 IS=   19 IE=   57 IFin=   18
          NO(<0.9)=   0  NV(>0.1)=   0     18.00e < EF      0.00e >EF  Err=0.0D+00
 Gap=     0.282 Goal=   None    Shift=    0.500
 T=  716. Gap= 0.782 NK=0 IS=   18 IE=   57 IFin=   17
          NO(<0.9)=   0  NV(>0.1)=   0     17.00e < EF      0.00e >EF  Err=0.0D+00
 GapD=    0.282 DampG=1.000 DampE=1.000 DampFc=1.0000 IDamp=-1.
 RMSDP=3.87D-04 MaxDP=5.98D-03 DE=-6.66D-03 OVMax= 1.29D-02

 Cycle   6  Pass 1  IDiag  1:
 E= -193.467433828037     Delta-E=       -0.000499510510 Rises=F Damp=F
 DIIS: error= 2.72D-03 at cycle   6 NSaved=   6.
 NSaved= 6 IEnMin= 6 EnMin= -193.467433828037     IErMin= 6 ErrMin= 2.72D-03
 ErrMax= 2.72D-03  0.00D+00 EMaxC= 1.00D+00 BMatC= 1.60D-04 BMatP= 3.59D-04
 IDIUse=1 WtCom= 1.00D+00 WtEn= 0.00D+00
 Coeff-Com:  0.680D-02-0.310D+00 0.931D+00-0.674D+00-0.163D+01 0.268D+01
 Coeff:      0.680D-02-0.310D+00 0.931D+00-0.674D+00-0.163D+01 0.268D+01
 Gap=     0.422 Goal=   None    Shift=    0.500
 T=  397. Gap= 0.922 NK=0 IS=   19 IE=   57 IFin=   18
          NO(<0.9)=   0  NV(>0.1)=   0     18.00e < EF      0.00e >EF  Err=0.0D+00
 Gap=     0.284 Goal=   None    Shift=    0.500
 T=  397. Gap= 0.784 NK=0 IS=   18 IE=   57 IFin=   17
          NO(<0.9)=   0  NV(>0.1)=   0     17.00e < EF      0.00e >EF  Err=0.0D+00
 GapD=    0.284 DampG=1.000 DampE=1.000 DampFc=1.0000 IDamp=-1.
 RMSDP=3.02D-04 MaxDP=4.87D-03 DE=-5.00D-04 OVMax= 1.16D-02

 Cycle   7  Pass 1  IDiag  1:
 E= -193.467712905277     Delta-E=       -0.000279077240 Rises=F Damp=F
 DIIS: error= 1.93D-03 at cycle   7 NSaved=   7.
 NSaved= 7 IEnMin= 7 EnMin= -193.467712905277     IErMin= 7 ErrMin= 1.93D-03
 ErrMax= 1.93D-03  0.00D+00 EMaxC= 1.00D+00 BMatC= 6.82D-05 BMatP= 1.60D-04
 IDIUse=1 WtCom= 1.00D+00 WtEn= 0.00D+00
 Coeff-Com:  0.156D-01-0.658D-01-0.121D+00 0.391D+00-0.381D+00-0.107D+01
 Coeff-Com:  0.223D+01
 Coeff:      0.156D-01-0.658D-01-0.121D+00 0.391D+00-0.381D+00-0.107D+01
 Coeff:      0.223D+01
 Gap=     0.422 Goal=   None    Shift=    0.500
 T=   58. Gap= 0.922 NK=0 IS=   19 IE=   57 IFin=   18
          NO(<0.9)=   0  NV(>0.1)=   0     18.00e < EF      0.00e >EF  Err=0.0D+00
 Gap=     0.285 Goal=   None    Shift=    0.500
 T=   58. Gap= 0.785 NK=0 IS=   18 IE=   57 IFin=   17
          NO(<0.9)=   0  NV(>0.1)=   0     17.00e < EF      0.00e >EF  Err=0.0D+00
 GapD=    0.285 DampG=1.000 DampE=1.000 DampFc=1.0000 IDamp=-1.
 RMSDP=1.98D-04 MaxDP=2.83D-03 DE=-2.79D-04 OVMax= 8.29D-03

 Cycle   8  Pass 1  IDiag  1:
 E= -193.467831692082     Delta-E=       -0.000118786805 Rises=F Damp=F
 DIIS: error= 1.34D-03 at cycle   8 NSaved=   8.
 NSaved= 8 IEnMin= 8 EnMin= -193.467831692082     IErMin= 8 ErrMin= 1.34D-03
 ErrMax= 1.34D-03  0.00D+00 EMaxC= 1.00D+00 BMatC= 3.10D-05 BMatP= 6.82D-05
 IDIUse=1 WtCom= 1.00D+00 WtEn= 0.00D+00
 Coeff-Com: -0.107D-01 0.242D+00-0.747D+00 0.599D+00 0.101D+01-0.230D+01
 Coeff-Com:  0.579D-02 0.220D+01
 Coeff:     -0.107D-01 0.242D+00-0.747D+00 0.599D+00 0.101D+01-0.230D+01
 Coeff:      0.579D-02 0.220D+01
 Gap=     0.422 Goal=   None    Shift=    0.500
 Gap=     0.285 Goal=   None    Shift=    0.500
 GapD=    0.285 DampG=1.000 DampE=1.000 DampFc=1.0000 IDamp=-1.
 RMSDP=1.50D-04 MaxDP=2.11D-03 DE=-1.19D-04 OVMax= 6.64D-03

 Cycle   9  Pass 1  IDiag  1:
 E= -193.467888403521     Delta-E=       -0.000056711439 Rises=F Damp=F
 DIIS: error= 8.72D-04 at cycle   9 NSaved=   9.
 NSaved= 9 IEnMin= 9 EnMin= -193.467888403521     IErMin= 9 ErrMin= 8.72D-04
 ErrMax= 8.72D-04  0.00D+00 EMaxC= 1.00D+00 BMatC= 1.24D-05 BMatP= 3.10D-05
 IDIUse=1 WtCom= 1.00D+00 WtEn= 0.00D+00
 Coeff-Com:  0.817D-03-0.139D+00 0.574D+00-0.597D+00-0.430D+00 0.188D+01
 Coeff-Com: -0.104D+01-0.311D+01 0.386D+01
 Coeff:      0.817D-03-0.139D+00 0.574D+00-0.597D+00-0.430D+00 0.188D+01
 Coeff:     -0.104D+01-0.311D+01 0.386D+01
 Gap=     0.422 Goal=   None    Shift=    0.500
 Gap=     0.286 Goal=   None    Shift=    0.500
 RMSDP=1.08D-04 MaxDP=1.46D-03 DE=-5.67D-05 OVMax= 5.16D-03

 Cycle  10  Pass 1  IDiag  1:
 E= -193.467913171431     Delta-E=       -0.000024767910 Rises=F Damp=F
 DIIS: error= 5.23D-04 at cycle  10 NSaved=  10.
 NSaved=10 IEnMin=10 EnMin= -193.467913171431     IErMin=10 ErrMin= 5.23D-04
 ErrMax= 5.23D-04  0.00D+00 EMaxC= 1.00D+00 BMatC= 4.24D-06 BMatP= 1.24D-05
 IDIUse=1 WtCom= 1.00D+00 WtEn= 0.00D+00
 Coeff-Com:  0.595D-03 0.347D-01-0.167D+00 0.190D+00 0.848D-01-0.527D+00
 Coeff-Com:  0.446D+00 0.792D+00-0.279D+01 0.293D+01
 Coeff:      0.595D-03 0.347D-01-0.167D+00 0.190D+00 0.848D-01-0.527D+00
 Coeff:      0.446D+00 0.792D+00-0.279D+01 0.293D+01
 Gap=     0.422 Goal=   None    Shift=    0.500
 Gap=     0.286 Goal=   None    Shift=    0.500
 RMSDP=6.18D-05 MaxDP=8.88D-04 DE=-2.48D-05 OVMax= 3.11D-03

 Cycle  11  Pass 1  IDiag  1:
 E= -193.467921437771     Delta-E=       -0.000008266340 Rises=F Damp=F
 DIIS: error= 3.09D-04 at cycle  11 NSaved=  11.
 NSaved=11 IEnMin=11 EnMin= -193.467921437771     IErMin=11 ErrMin= 3.09D-04
 ErrMax= 3.09D-04  0.00D+00 EMaxC= 1.00D+00 BMatC= 1.51D-06 BMatP= 4.24D-06
 IDIUse=1 WtCom= 1.00D+00 WtEn= 0.00D+00
 Coeff-Com: -0.474D-03-0.273D-01 0.143D+00-0.174D+00-0.380D-01 0.456D+00
 Coeff-Com: -0.414D+00-0.885D+00 0.295D+01-0.529D+01 0.428D+01
 Coeff:     -0.474D-03-0.273D-01 0.143D+00-0.174D+00-0.380D-01 0.456D+00
 Coeff:     -0.414D+00-0.885D+00 0.295D+01-0.529D+01 0.428D+01
 Gap=     0.422 Goal=   None    Shift=    0.500
 Gap=     0.286 Goal=   None    Shift=    0.500
 RMSDP=3.81D-05 MaxDP=5.34D-04 DE=-8.27D-06 OVMax= 1.96D-03

 Cycle  12  Pass 1  IDiag  1:
 E= -193.467924398297     Delta-E=       -0.000002960526 Rises=F Damp=F
 DIIS: error= 1.77D-04 at cycle  12 NSaved=  12.
 NSaved=12 IEnMin=12 EnMin= -193.467924398297     IErMin=12 ErrMin= 1.77D-04
 ErrMax= 1.77D-04  0.00D+00 EMaxC= 1.00D+00 BMatC= 4.95D-07 BMatP= 1.51D-06
 IDIUse=1 WtCom= 1.00D+00 WtEn= 0.00D+00
 Coeff-Com:  0.264D-03-0.116D-01 0.398D-01-0.349D-01-0.471D-01 0.134D+00
 Coeff-Com: -0.143D-01-0.204D+00-0.202D+00 0.151D+01-0.328D+01 0.311D+01
 Coeff:      0.264D-03-0.116D-01 0.398D-01-0.349D-01-0.471D-01 0.134D+00
 Coeff:     -0.143D-01-0.204D+00-0.202D+00 0.151D+01-0.328D+01 0.311D+01
 Gap=     0.422 Goal=   None    Shift=    0.500
 Gap=     0.286 Goal=   None    Shift=    0.500
 RMSDP=2.19D-05 MaxDP=3.00D-04 DE=-2.96D-06 OVMax= 1.14D-03

 Cycle  13  Pass 1  IDiag  1:
 E= -193.467925367547     Delta-E=       -0.000000969250 Rises=F Damp=F
 DIIS: error= 1.01D-04 at cycle  13 NSaved=  13.
 NSaved=13 IEnMin=13 EnMin= -193.467925367547     IErMin=13 ErrMin= 1.01D-04
 ErrMax= 1.01D-04  0.00D+00 EMaxC= 1.00D+00 BMatC= 1.58D-07 BMatP= 4.95D-07
 IDIUse=1 WtCom= 1.00D+00 WtEn= 0.00D+00
 Coeff-Com: -0.592D-04 0.633D-02-0.215D-01 0.181D-01 0.319D-01-0.717D-01
 Coeff-Com:  0.611D-02 0.896D-01 0.115D+00-0.904D+00 0.220D+01-0.412D+01
 Coeff-Com:  0.364D+01
 Coeff:     -0.592D-04 0.633D-02-0.215D-01 0.181D-01 0.319D-01-0.717D-01
 Coeff:      0.611D-02 0.896D-01 0.115D+00-0.904D+00 0.220D+01-0.412D+01
 Coeff:      0.364D+01
 Gap=     0.422 Goal=   None    Shift=    0.500
 Gap=     0.286 Goal=   None    Shift=    0.500
 RMSDP=1.28D-05 MaxDP=1.78D-04 DE=-9.69D-07 OVMax= 6.73D-04

 Cycle  14  Pass 1  IDiag  1:
 E= -193.467925684473     Delta-E=       -0.000000316926 Rises=F Damp=F
 DIIS: error= 5.50D-05 at cycle  14 NSaved=  14.
 NSaved=14 IEnMin=14 EnMin= -193.467925684473     IErMin=14 ErrMin= 5.50D-05
 ErrMax= 5.50D-05  0.00D+00 EMaxC= 1.00D+00 BMatC= 4.97D-08 BMatP= 1.58D-07
 IDIUse=1 WtCom= 1.00D+00 WtEn= 0.00D+00
 Coeff-Com:  0.208D-03-0.501D-02 0.204D-01-0.221D-01-0.129D-01 0.588D-01
 Coeff-Com: -0.198D-01-0.110D+00 0.192D+00-0.147D+00-0.350D+00 0.155D+01
 Coeff-Com: -0.334D+01 0.319D+01
 Coeff:      0.208D-03-0.501D-02 0.204D-01-0.221D-01-0.129D-01 0.588D-01
 Coeff:     -0.198D-01-0.110D+00 0.192D+00-0.147D+00-0.350D+00 0.155D+01
 Coeff:     -0.334D+01 0.319D+01
 Gap=     0.422 Goal=   None    Shift=    0.500
 Gap=     0.286 Goal=   None    Shift=    0.500
 RMSDP=7.24D-06 MaxDP=1.02D-04 DE=-3.17D-07 OVMax= 3.87D-04

 Cycle  15  Pass 1  IDiag  1:
 E= -193.467925784528     Delta-E=       -0.000000100055 Rises=F Damp=F
 DIIS: error= 3.01D-05 at cycle  15 NSaved=  15.
 NSaved=15 IEnMin=15 EnMin= -193.467925784528     IErMin=15 ErrMin= 3.01D-05
 ErrMax= 3.01D-05  0.00D+00 EMaxC= 1.00D+00 BMatC= 1.52D-08 BMatP= 4.97D-08
 IDIUse=1 WtCom= 1.00D+00 WtEn= 0.00D+00
 Coeff-Com: -0.118D-03 0.224D-02-0.949D-02 0.108D-01 0.396D-02-0.242D-01
 Coeff-Com:  0.121D-01 0.485D-01-0.105D+00 0.130D+00-0.297D-02-0.576D+00
 Coeff-Com:  0.172D+01-0.353D+01 0.332D+01
 Coeff:     -0.118D-03 0.224D-02-0.949D-02 0.108D-01 0.396D-02-0.242D-01
 Coeff:      0.121D-01 0.485D-01-0.105D+00 0.130D+00-0.297D-02-0.576D+00
 Coeff:      0.172D+01-0.353D+01 0.332D+01
 Gap=     0.422 Goal=   None    Shift=    0.500
 Gap=     0.286 Goal=   None    Shift=    0.500
 RMSDP=4.02D-06 MaxDP=5.64D-05 DE=-1.00D-07 OVMax= 2.17D-04

 Cycle  16  Pass 1  IDiag  1:
 E= -193.467925814916     Delta-E=       -0.000000030388 Rises=F Damp=F
 DIIS: error= 1.61D-05 at cycle  16 NSaved=  16.
 NSaved=16 IEnMin=16 EnMin= -193.467925814916     IErMin=16 ErrMin= 1.61D-05
 ErrMax= 1.61D-05  0.00D+00 EMaxC= 1.00D+00 BMatC= 4.71D-09 BMatP= 1.52D-08
 IDIUse=1 WtCom= 1.00D+00 WtEn= 0.00D+00
 Coeff-Com:  0.281D-04-0.693D-04 0.123D-02-0.232D-02 0.284D-02-0.222D-02
 Coeff-Com:  0.236D-02-0.779D-02 0.390D-01-0.111D+00 0.168D+00-0.142D+00
 Coeff-Com: -0.221D+00 0.139D+01-0.356D+01 0.344D+01
 Coeff:      0.281D-04-0.693D-04 0.123D-02-0.232D-02 0.284D-02-0.222D-02
 Coeff:      0.236D-02-0.779D-02 0.390D-01-0.111D+00 0.168D+00-0.142D+00
 Coeff:     -0.221D+00 0.139D+01-0.356D+01 0.344D+01
 Gap=     0.422 Goal=   None    Shift=    0.500
 Gap=     0.286 Goal=   None    Shift=    0.500
 RMSDP=2.20D-06 MaxDP=3.04D-05 DE=-3.04D-08 OVMax= 1.19D-04

 Cycle  17  Pass 1  IDiag  1:
 E= -193.467925823986     Delta-E=       -0.000000009071 Rises=F Damp=F
 DIIS: error= 8.44D-06 at cycle  17 NSaved=  17.
 NSaved=17 IEnMin=17 EnMin= -193.467925823986     IErMin=17 ErrMin= 8.44D-06
 ErrMax= 8.44D-06  0.00D+00 EMaxC= 1.00D+00 BMatC= 1.45D-09 BMatP= 4.71D-09
 IDIUse=1 WtCom= 1.00D+00 WtEn= 0.00D+00
 Coeff-Com: -0.993D-05 0.287D-03-0.177D-02 0.247D-02-0.742D-03-0.279D-02
 Coeff-Com:  0.299D-02 0.771D-02-0.288D-01 0.612D-01-0.774D-01 0.185D-01
 Coeff-Com:  0.240D+00-0.110D+01 0.295D+01-0.510D+01 0.403D+01
 Coeff:     -0.993D-05 0.287D-03-0.177D-02 0.247D-02-0.742D-03-0.279D-02
 Coeff:      0.299D-02 0.771D-02-0.288D-01 0.612D-01-0.774D-01 0.185D-01
 Coeff:      0.240D+00-0.110D+01 0.295D+01-0.510D+01 0.403D+01
 Gap=     0.422 Goal=   None    Shift=    0.500
 Gap=     0.286 Goal=   None    Shift=    0.500
 RMSDP=1.18D-06 MaxDP=1.61D-05 DE=-9.07D-09 OVMax= 6.44D-05

 Cycle  18  Pass 1  IDiag  1:
 E= -193.467925826625     Delta-E=       -0.000000002639 Rises=F Damp=F
 DIIS: error= 4.38D-06 at cycle  18 NSaved=  18.
 NSaved=18 IEnMin=18 EnMin= -193.467925826625     IErMin=18 ErrMin= 4.38D-06
 ErrMax= 4.38D-06  0.00D+00 EMaxC= 1.00D+00 BMatC= 4.48D-10 BMatP= 1.45D-09
 IDIUse=1 WtCom= 1.00D+00 WtEn= 0.00D+00
 Coeff-Com: -0.141D-05 0.369D-04 0.285D-03-0.696D-03 0.131D-02-0.172D-02
 Coeff-Com:  0.101D-02-0.199D-02 0.148D-01-0.452D-01 0.834D-01-0.116D+00
 Coeff-Com:  0.642D-01 0.350D+00-0.153D+01 0.331D+01-0.505D+01 0.392D+01
 Coeff:     -0.141D-05 0.369D-04 0.285D-03-0.696D-03 0.131D-02-0.172D-02
 Coeff:      0.101D-02-0.199D-02 0.148D-01-0.452D-01 0.834D-01-0.116D+00
 Coeff:      0.642D-01 0.350D+00-0.153D+01 0.331D+01-0.505D+01 0.392D+01
 Gap=     0.422 Goal=   None    Shift=    0.500
 Gap=     0.286 Goal=   None    Shift=    0.500
 RMSDP=6.14D-07 MaxDP=8.17D-06 DE=-2.64D-09 OVMax= 3.37D-05

 SCF Done:  E(ULC-wHPBE) =  -193.467925827     A.U. after   18 cycles
            NFock= 18  Conv=0.61D-06     -V/T= 2.0051
 <Sx>= 0.0000 <Sy>= 0.0000 <Sz>= 0.5000 <S**2>= 0.7967 S= 0.5231
 <L.S>= 0.000000000000E+00
 KE= 1.924842172481D+02 PE=-7.500378806960D+02 EE= 2.089388789139D+02
 Annihilation of the first spin contaminant:
 S**2 before annihilation     0.7967,   after     0.7513
 Leave Link  502 at Tue Feb 25 12:22:29 2020, MaxMem=  6710886400 cpu:              26.8 elap:               1.7
 (Enter /opt/ohpc/pub/libs/gaussian/g16-A.03/haswell/g16/l508.exe)
 QCSCF skips out because SCF is already converged.
 Leave Link  508 at Tue Feb 25 12:22:29 2020, MaxMem=  6710886400 cpu:               0.1 elap:               0.0
 (Enter /opt/ohpc/pub/libs/gaussian/g16-A.03/haswell/g16/l601.exe)
 Copying SCF densities to generalized density rwf, IOpCl= 1 IROHF=0.

 **********************************************************************

            Population analysis using the SCF density.

 **********************************************************************

 Orbital symmetries:
 Alpha Orbitals:
       Occupied  (B2) (A1) (A1) (B2) (A1) (A1) (A1) (B2) (A1) (B2)
                 (A1) (B2) (A1) (A1) (B1) (B2) (A2) (B1)
       Virtual   (B2) (A2) (B1) (A1) (A1) (B2) (A1) (B2) (A1) (B2)
                 (A1) (A1) (B2) (B1) (B2) (B1) (A2) (A1) (A1) (B2)
                 (A1) (A2) (B1) (B2) (B2) (A1) (A1) (B2) (A1) (A1)
                 (B2) (A1) (A1) (B2) (A1) (B2) (A1) (A1) (B2)
 Beta  Orbitals:
       Occupied  (B2) (A1) (A1) (B2) (A1) (A1) (A1) (B2) (A1) (B2)
                 (A1) (B2) (A1) (A1) (B2) (B1) (A2)
       Virtual   (B1) (B2) (A2) (A1) (B1) (A1) (B2) (A1) (B2) (A1)
                 (B2) (A1) (A1) (B2) (B2) (B1) (A2) (A1) (B1) (A1)
                 (B2) (A1) (A2) (B1) (B2) (B2) (A1) (A1) (B2) (A1)
                 (B2) (A1) (A1) (A1) (B2) (A1) (B2) (A1) (A1) (B2)
 The electronic state is 2-B1.
 Alpha  occ. eigenvalues --  -10.36947 -10.36942 -10.31964 -10.31071 -10.31071
 Alpha  occ. eigenvalues --   -1.23785  -1.11068  -1.06665  -0.92868  -0.90764
 Alpha  occ. eigenvalues --   -0.86101  -0.76484  -0.73967  -0.72840  -0.72202
 Alpha  occ. eigenvalues --   -0.70669  -0.57712  -0.56159
 Alpha virt. eigenvalues --   -0.13980  -0.13355  -0.06443  -0.05559  -0.00337
 Alpha virt. eigenvalues --    0.04333   0.06342   0.08631   0.08733   0.19885
 Alpha virt. eigenvalues --    0.19959   0.29825   0.31067   0.39105   0.39727
 Alpha virt. eigenvalues --    0.46811   0.47426   0.47975   0.50331   0.51082
 Alpha virt. eigenvalues --    0.51358   0.54528   0.56020   0.63897   0.70395
 Alpha virt. eigenvalues --    0.72739   0.73949   0.76467   0.76608   0.82879
 Alpha virt. eigenvalues --    0.82880   0.87344   0.91384   0.97661   1.05780
 Alpha virt. eigenvalues --    1.06920   1.12051   1.34010   1.35447
  Beta  occ. eigenvalues --  -10.36396 -10.36388 -10.31335 -10.31335 -10.31070
  Beta  occ. eigenvalues --   -1.22644  -1.09267  -1.06383  -0.91879  -0.90063
  Beta  occ. eigenvalues --   -0.85822  -0.76180  -0.73691  -0.72291  -0.70508
  Beta  occ. eigenvalues --   -0.67981  -0.56432
  Beta virt. eigenvalues --   -0.27873  -0.12636  -0.10506  -0.05328  -0.03153
  Beta virt. eigenvalues --    0.00051   0.04597   0.06571   0.08601   0.09305
  Beta virt. eigenvalues --    0.20226   0.20446   0.30228   0.31445   0.40093
  Beta virt. eigenvalues --    0.41228   0.48414   0.48505   0.49426   0.50735
  Beta virt. eigenvalues --    0.51532   0.52416   0.55109   0.57512   0.64420
  Beta virt. eigenvalues --    0.70851   0.73555   0.74517   0.76373   0.77097
  Beta virt. eigenvalues --    0.83211   0.83334   0.88388   0.92011   0.97713
  Beta virt. eigenvalues --    1.06296   1.07421   1.13097   1.34896   1.36279
          Condensed to atoms (all electrons):
               1          2          3          4          5          6
     1  C    5.346437   0.499634  -0.041555  -0.126265   0.181066   0.165621
     2  C    0.499634   4.949488   0.464931  -0.025356  -0.126265  -0.023835
     3  C   -0.041555   0.464931   4.854866   0.464931  -0.041555   0.007505
     4  C   -0.126265  -0.025356   0.464931   4.949488   0.499634  -0.023835
     5  C    0.181066  -0.126265  -0.041555   0.499634   5.346437   0.165621
     6  H    0.165621  -0.023835   0.007505  -0.023835   0.165621   0.361257
     7  H    0.337446   0.003846  -0.000144   0.003212  -0.015938  -0.008862
     8  H   -0.024097   0.361825  -0.012169   0.003991   0.000952   0.000459
     9  H    0.005290  -0.028067   0.366733  -0.028067   0.005290  -0.000044
    10  H    0.000952   0.003991  -0.012169   0.361825  -0.024097   0.000459
    11  H   -0.015938   0.003212  -0.000144   0.003846   0.337446  -0.008862
               7          8          9         10         11
     1  C    0.337446  -0.024097   0.005290   0.000952  -0.015938
     2  C    0.003846   0.361825  -0.028067   0.003991   0.003212
     3  C   -0.000144  -0.012169   0.366733  -0.012169  -0.000144
     4  C    0.003212   0.003991  -0.028067   0.361825   0.003846
     5  C   -0.015938   0.000952   0.005290  -0.024097   0.337446
     6  H   -0.008862   0.000459  -0.000044   0.000459  -0.008862
     7  H    0.345839  -0.000030  -0.000053  -0.000018   0.000372
     8  H   -0.000030   0.386404  -0.001500  -0.000089  -0.000018
     9  H   -0.000053  -0.001500   0.408472  -0.001500  -0.000053
    10  H   -0.000018  -0.000089  -0.001500   0.386404  -0.000030
    11  H    0.000372  -0.000018  -0.000053  -0.000030   0.345839
          Atomic-Atomic Spin Densities.
               1          2          3          4          5          6
     1  C    0.480889  -0.039802  -0.023474  -0.008827   0.028873  -0.003569
     2  C   -0.039802  -0.222932   0.028262  -0.000278  -0.008827   0.000285
     3  C   -0.023474   0.028262   0.690751   0.028262  -0.023474   0.000205
     4  C   -0.008827  -0.000278   0.028262  -0.222932  -0.039802   0.000285
     5  C    0.028873  -0.008827  -0.023474  -0.039802   0.480889  -0.003569
     6  H   -0.003569   0.000285   0.000205   0.000285  -0.003569  -0.014213
     7  H   -0.002575  -0.000449   0.000092  -0.000085   0.000249  -0.000246
     8  H   -0.000284   0.001781  -0.001022  -0.000115   0.000055   0.000020
     9  H   -0.000035  -0.000059  -0.000941  -0.000059  -0.000035  -0.000002
    10  H    0.000055  -0.000115  -0.001022   0.001781  -0.000284   0.000020
    11  H    0.000249  -0.000085   0.000092  -0.000449  -0.002575  -0.000246
               7          8          9         10         11
     1  C   -0.002575  -0.000284  -0.000035   0.000055   0.000249
     2  C   -0.000449   0.001781  -0.000059  -0.000115  -0.000085
     3  C    0.000092  -0.001022  -0.000941  -0.001022   0.000092
     4  C   -0.000085  -0.000115  -0.000059   0.001781  -0.000449
     5  C    0.000249   0.000055  -0.000035  -0.000284  -0.002575
     6  H   -0.000246   0.000020  -0.000002   0.000020  -0.000246
     7  H   -0.016994   0.000057   0.000004   0.000000  -0.000064
     8  H    0.000057   0.005776   0.000019   0.000000   0.000000
     9  H    0.000004   0.000019  -0.026723   0.000019   0.000004
    10  H    0.000000   0.000000   0.000019   0.005776   0.000057
    11  H   -0.000064   0.000000   0.000004   0.000057  -0.016994
 Mulliken charges and spin densities:
               1          2
     1  C   -0.328590   0.431499
     2  C   -0.083406  -0.242220
     3  C   -0.051230   0.697731
     4  C   -0.083406  -0.242220
     5  C   -0.328590   0.431499
     6  H    0.364516  -0.021031
     7  H    0.334332  -0.020011
     8  H    0.284272   0.006286
     9  H    0.273499  -0.027809
    10  H    0.284272   0.006286
    11  H    0.334332  -0.020011
 Sum of Mulliken charges =   1.00000   1.00000
 Mulliken charges and spin densities with hydrogens summed into heavy atoms:
               1          2
     1  C    0.370257   0.390457
     2  C    0.200866  -0.235933
     3  C    0.222269   0.669922
     4  C    0.200866  -0.235933
     5  C    0.005741   0.411488
 Electronic spatial extent (au):  <R**2>=            322.4072
 Charge=              1.0000 electrons
 Dipole moment (field-independent basis, Debye):
    X=             -0.0000    Y=              0.0000    Z=             -1.9989  Tot=              1.9989
 Quadrupole moment (field-independent basis, Debye-Ang):
   XX=            -31.5062   YY=            -17.4066   ZZ=            -13.2667
   XY=              0.0000   XZ=              0.0000   YZ=             -0.0000
 Traceless Quadrupole moment (field-independent basis, Debye-Ang):
   XX=            -10.7797   YY=              3.3199   ZZ=              7.4598
   XY=              0.0000   XZ=              0.0000   YZ=             -0.0000
 Octapole moment (field-independent basis, Debye-Ang**2):
  XXX=              0.0000  YYY=              0.0000  ZZZ=             -7.4302  XYY=             -0.0000
  XXY=              0.0000  XXZ=              0.7066  XZZ=              0.0000  YZZ=              0.0000
  YYZ=             -2.8676  XYZ=             -0.0000
 Hexadecapole moment (field-independent basis, Debye-Ang**3):
 XXXX=            -31.6195 YYYY=           -147.7999 ZZZZ=           -127.3008 XXXY=             -0.0000
 XXXZ=             -0.0000 YYYX=             -0.0000 YYYZ=             -0.0000 ZZZX=              0.0000
 ZZZY=              0.0000 XXYY=            -43.1684 XXZZ=            -39.3239 YYZZ=            -42.9882
 XXYZ=             -0.0000 YYXZ=             -0.0000 ZZXY=             -0.0000
 N-N= 1.551468587074D+02 E-N=-7.500378837684D+02  KE= 1.924842172481D+02
 Symmetry A1   KE= 1.112743513017D+02
 Symmetry A2   KE= 2.504148565084D+00
 Symmetry B1   KE= 3.219574256389D+00
 Symmetry B2   KE= 7.548614312502D+01
 Symmetry A1   SP= 4.747176794335D-15
 Symmetry A2   SP=-2.994640474860D-15
 Symmetry B1   SP= 1.000000000000D+00
 Symmetry B2   SP=-3.093027361057D-14
                          Isotropic Fermi Contact Couplings
        Atom                 a.u.       MegaHertz       Gauss      10(-4) cm-1
     1  C(13)              0.06284      70.64281      25.20711      23.56390
     2  C(13)             -0.04245     -47.71640     -17.02640     -15.91648
     3  C(13)              0.09561     107.47879      38.35111      35.85107
     4  C(13)             -0.04245     -47.71640     -17.02640     -15.91648
     5  C(13)              0.06284      70.64281      25.20711      23.56390
     6  H(1)              -0.00770     -34.43454     -12.28710     -11.48613
     7  H(1)              -0.00813     -36.35052     -12.97077     -12.12523
     8  H(1)               0.00234      10.46395       3.73380       3.49040
     9  H(1)              -0.01178     -52.64738     -18.78589     -17.56127
    10  H(1)               0.00234      10.46395       3.73380       3.49040
    11  H(1)              -0.00813     -36.35052     -12.97077     -12.12523
 --------------------------------------------------------
       Center         ----  Spin Dipole Couplings  ----
                      3XX-RR        3YY-RR        3ZZ-RR
 --------------------------------------------------------
     1   Atom        0.441591     -0.214906     -0.226686
     2   Atom       -0.157153      0.076857      0.080297
     3   Atom        0.668709     -0.341583     -0.327126
     4   Atom       -0.157153      0.076857      0.080297
     5   Atom        0.441591     -0.214906     -0.226686
     6   Atom       -0.006366      0.007807     -0.001441
     7   Atom       -0.005874      0.005466      0.000408
     8   Atom       -0.006431      0.001144      0.005287
     9   Atom       -0.007877     -0.043708      0.051585
    10   Atom       -0.006431      0.001144      0.005287
    11   Atom       -0.005874      0.005466      0.000408
 --------------------------------------------------------
                        XY            XZ            YZ
 --------------------------------------------------------
     1   Atom       -0.000000     -0.000000     -0.007874
     2   Atom       -0.000000      0.000000     -0.006520
     3   Atom       -0.000000     -0.000000     -0.000000
     4   Atom       -0.000000     -0.000000      0.006520
     5   Atom        0.000000      0.000000      0.007874
     6   Atom       -0.000000      0.000000     -0.000000
     7   Atom        0.000000      0.000000     -0.032502
     8   Atom       -0.000000      0.000000     -0.004965
     9   Atom       -0.000000     -0.000000      0.000000
    10   Atom        0.000000     -0.000000      0.004965
    11   Atom       -0.000000     -0.000000      0.032502
 --------------------------------------------------------


 ---------------------------------------------------------------------------------
              Anisotropic Spin Dipole Couplings in Principal Axis System
 ---------------------------------------------------------------------------------

       Atom             a.u.   MegaHertz   Gauss  10(-4) cm-1        Axes

              Baa    -0.2306   -30.948   -11.043   -10.323  0.0000  0.4478  0.8941
     1 C(13)  Bbb    -0.2110   -28.309   -10.101    -9.443  0.0000  0.8941 -0.4478
              Bcc     0.4416    59.257    21.144    19.766  1.0000 -0.0000  0.0000
 
              Baa    -0.1572   -21.088    -7.525    -7.034  1.0000  0.0000  0.0000
     2 C(13)  Bbb     0.0718     9.639     3.440     3.215 -0.0000  0.7922  0.6103
              Bcc     0.0853    11.449     4.085     3.819  0.0000 -0.6103  0.7922
 
              Baa    -0.3416   -45.837   -16.356   -15.290  0.0000  1.0000 -0.0000
     3 C(13)  Bbb    -0.3271   -43.897   -15.664   -14.643  0.0000  0.0000  1.0000
              Bcc     0.6687    89.734    32.019    29.932  1.0000 -0.0000 -0.0000
 
              Baa    -0.1572   -21.088    -7.525    -7.034  1.0000  0.0000  0.0000
     4 C(13)  Bbb     0.0718     9.639     3.440     3.215 -0.0000  0.7922 -0.6103
              Bcc     0.0853    11.449     4.085     3.819 -0.0000  0.6103  0.7922
 
              Baa    -0.2306   -30.948   -11.043   -10.323 -0.0000 -0.4478  0.8941
     5 C(13)  Bbb    -0.2110   -28.309   -10.101    -9.443  0.0000  0.8941  0.4478
              Bcc     0.4416    59.257    21.144    19.766  1.0000 -0.0000  0.0000
 
              Baa    -0.0064    -3.397    -1.212    -1.133  1.0000  0.0000 -0.0000
     6 H(1)   Bbb    -0.0014    -0.769    -0.274    -0.257  0.0000  0.0000  1.0000
              Bcc     0.0078     4.166     1.486     1.390 -0.0000  1.0000 -0.0000
 
              Baa    -0.0297   -15.827    -5.648    -5.279 -0.0000  0.6791  0.7340
     7 H(1)   Bbb    -0.0059    -3.134    -1.118    -1.045  1.0000  0.0000  0.0000
              Bcc     0.0355    18.961     6.766     6.325 -0.0000  0.7340 -0.6791
 
              Baa    -0.0064    -3.431    -1.224    -1.145  1.0000  0.0000  0.0000
     8 H(1)   Bbb    -0.0022    -1.155    -0.412    -0.385 -0.0000  0.8322  0.5545
              Bcc     0.0086     4.586     1.636     1.530  0.0000 -0.5545  0.8322
 
              Baa    -0.0437   -23.321    -8.321    -7.779  0.0000  1.0000 -0.0000
     9 H(1)   Bbb    -0.0079    -4.203    -1.500    -1.402  1.0000  0.0000  0.0000
              Bcc     0.0516    27.523     9.821     9.181  0.0000  0.0000  1.0000
 
              Baa    -0.0064    -3.431    -1.224    -1.145  1.0000 -0.0000  0.0000
    10 H(1)   Bbb    -0.0022    -1.155    -0.412    -0.385  0.0000  0.8322 -0.5545
              Bcc     0.0086     4.586     1.636     1.530  0.0000  0.5545  0.8322
 
              Baa    -0.0297   -15.827    -5.648    -5.279  0.0000 -0.6791  0.7340
    11 H(1)   Bbb    -0.0059    -3.134    -1.118    -1.045  1.0000  0.0000  0.0000
              Bcc     0.0355    18.961     6.766     6.325 -0.0000  0.7340  0.6791
 

 ---------------------------------------------------------------------------------

 No NMR shielding tensors so no spin-rotation constants.
 Leave Link  601 at Tue Feb 25 12:22:30 2020, MaxMem=  6710886400 cpu:               5.1 elap:               0.3
 (Enter /opt/ohpc/pub/libs/gaussian/g16-A.03/haswell/g16/l9999.exe)

 Test job not archived.
 1\1\GINC-HASWELL008\SP\ULC-wHPBE\6-31G\C5H6(1+,2)\SMGO234\25-Feb-2020\
 0\\#P uLC-wHPBE/6-31G iop(3/107=0311800000, 3/108=0311800000) scf=(con
 ver=6,fermi,ndamp=35,noincfock,novaracc,vshift=500,xqc)\\H6 C5\\1,2\C,
 0,0.,0.897082,-0.935245\C,0,0.,1.134094,0.425375\C,0,0.,0.,1.243051\C,
 0,0.,-1.134094,0.425375\C,0,0.,-0.897082,-0.935245\H,0,0.,0.,-1.723356
 \H,0,0.,1.622537,-1.745737\H,0,0.,2.164126,0.77433\H,0,0.,0.,2.326294\
 H,0,0.,-2.164126,0.77433\H,0,0.,-1.622537,-1.745737\\Version=ES64L-G16
 RevA.03\State=2-B1\HF=-193.4679258\S2=0.796744\S2-1=0.\S2A=0.751263\RM
 SD=6.139e-07\Dipole=0.,0.,-0.786439\Quadrupole=-8.0144414,2.4682815,5.
 5461599,0.,0.,0.\PG=C02V [C2(H1C1H1),SGV(C4H4)]\\@


 IF YOU GIVE EVERYONE A PIECE OF YOUR MIND,
 PRETTY SOON IT WILL BE ALL GONE.
 Job cpu time:       0 days  0 hours  0 minutes 54.7 seconds.
 Elapsed time:       0 days  0 hours  0 minutes  3.8 seconds.
 File lengths (MBytes):  RWF=    272 Int=      0 D2E=      0 Chk=     32 Scr=     32
 Normal termination of Gaussian 16 at Tue Feb 25 12:22:30 2020.
