 Entering Gaussian System, Link 0=g16
 Input=1b_tune_n4.gjf
 Output=1b_tune_n4.log
 Initial command:
 /opt/ohpc/pub/libs/gaussian/g16-A.03/haswell/g16/l1.exe "/scratch/smgo234/Ocelot/test/1b/tuning_1b_ocycle1/Gau-40285.inp" -scrdir="/scratch/smgo234/Ocelot/test/1b/tuning_1b_ocycle1/"
 Entering Link 1 = /opt/ohpc/pub/libs/gaussian/g16-A.03/haswell/g16/l1.exe PID=     40286.
  
 Copyright (c) 1988,1990,1992,1993,1995,1998,2003,2009,2016,
            Gaussian, Inc.  All Rights Reserved.
  
 This is part of the Gaussian(R) 16 program.  It is based on
 the Gaussian(R) 09 system (copyright 2009, Gaussian, Inc.),
 the Gaussian(R) 03 system (copyright 2003, Gaussian, Inc.),
 the Gaussian(R) 98 system (copyright 1998, Gaussian, Inc.),
 the Gaussian(R) 94 system (copyright 1995, Gaussian, Inc.),
 the Gaussian 92(TM) system (copyright 1992, Gaussian, Inc.),
 the Gaussian 90(TM) system (copyright 1990, Gaussian, Inc.),
 the Gaussian 88(TM) system (copyright 1988, Gaussian, Inc.),
 the Gaussian 86(TM) system (copyright 1986, Carnegie Mellon
 University), and the Gaussian 82(TM) system (copyright 1983,
 Carnegie Mellon University). Gaussian is a federally registered
 trademark of Gaussian, Inc.
  
 This software contains proprietary and confidential information,
 including trade secrets, belonging to Gaussian, Inc.
  
 This software is provided under written license and may be
 used, copied, transmitted, or stored only in accord with that
 written license.
  
 The following legend is applicable only to US Government
 contracts under FAR:
  
                    RESTRICTED RIGHTS LEGEND
  
 Use, reproduction and disclosure by the US Government is
 subject to restrictions as set forth in subparagraphs (a)
 and (c) of the Commercial Computer Software - Restricted
 Rights clause in FAR 52.227-19.
  
 Gaussian, Inc.
 340 Quinnipiac St., Bldg. 40, Wallingford CT 06492
  
  
 ---------------------------------------------------------------
 Warning -- This program may not be used in any manner that
 competes with the business of Gaussian, Inc. or will provide
 assistance to any competitor of Gaussian, Inc.  The licensee
 of this program is prohibited from giving any competitor of
 Gaussian, Inc. access to this program.  By using this program,
 the user acknowledges that Gaussian, Inc. is engaged in the
 business of creating and licensing software in the field of
 computational chemistry and represents and warrants to the
 licensee that it is not a competitor of Gaussian, Inc. and that
 it will not use this program in any manner prohibited above.
 ---------------------------------------------------------------
  

 Cite this work as:
 Gaussian 16, Revision A.03,
 M. J. Frisch, G. W. Trucks, H. B. Schlegel, G. E. Scuseria, 
 M. A. Robb, J. R. Cheeseman, G. Scalmani, V. Barone, 
 G. A. Petersson, H. Nakatsuji, X. Li, M. Caricato, A. V. Marenich, 
 J. Bloino, B. G. Janesko, R. Gomperts, B. Mennucci, H. P. Hratchian, 
 J. V. Ortiz, A. F. Izmaylov, J. L. Sonnenberg, D. Williams-Young, 
 F. Ding, F. Lipparini, F. Egidi, J. Goings, B. Peng, A. Petrone, 
 T. Henderson, D. Ranasinghe, V. G. Zakrzewski, J. Gao, N. Rega, 
 G. Zheng, W. Liang, M. Hada, M. Ehara, K. Toyota, R. Fukuda, 
 J. Hasegawa, M. Ishida, T. Nakajima, Y. Honda, O. Kitao, H. Nakai, 
 T. Vreven, K. Throssell, J. A. Montgomery, Jr., J. E. Peralta, 
 F. Ogliaro, M. J. Bearpark, J. J. Heyd, E. N. Brothers, K. N. Kudin, 
 V. N. Staroverov, T. A. Keith, R. Kobayashi, J. Normand, 
 K. Raghavachari, A. P. Rendell, J. C. Burant, S. S. Iyengar, 
 J. Tomasi, M. Cossi, J. M. Millam, M. Klene, C. Adamo, R. Cammi, 
 J. W. Ochterski, R. L. Martin, K. Morokuma, O. Farkas, 
 J. B. Foresman, and D. J. Fox, Gaussian, Inc., Wallingford CT, 2016.
 
 ******************************************
 Gaussian 16:  ES64L-G16RevA.03 25-Dec-2016
                25-Feb-2020 
 ******************************************
 %mem=50GB
 %nproc=16
 Will use up to   16 processors via shared memory.
 ----------------------------------------------------------------------
 #P uLC-wHPBE/6-31G iop(3/107=0281100000, 3/108=0281100000) scf=(conver
 =6,fermi,ndamp=35,noincfock,novaracc,vshift=500,xqc)
 ----------------------------------------------------------------------
 1/38=1,172=1/1;
 2/12=2,17=6,18=5,40=1/2;
 3/5=1,6=6,11=2,25=1,30=1,74=-71,107=281100000,108=281100000,116=2/1,2,3;
 4//1;
 5/5=100002,6=6,8=3,10=500,13=1,18=-1,22=13,38=1,93=35/2,8;
 6/7=2,8=2,9=2,10=2,28=1/1;
 99/5=1,9=1/99;
 Leave Link    1 at Tue Feb 25 12:22:03 2020, MaxMem=  6710886400 cpu:              10.1 elap:               0.7
 (Enter /opt/ohpc/pub/libs/gaussian/g16-A.03/haswell/g16/l101.exe)
 -----
 H6 C5
 -----
 Symbolic Z-matrix:
 Charge =  0 Multiplicity = 1
 C                     0.        0.89708  -0.93525 
 C                     0.        1.13409   0.42538 
 C                     0.        0.        1.24305 
 C                     0.       -1.13409   0.42538 
 C                     0.       -0.89708  -0.93525 
 H                     0.        0.       -1.72336 
 H                     0.        1.62254  -1.74574 
 H                     0.        2.16413   0.77433 
 H                     0.        0.        2.32629 
 H                     0.       -2.16413   0.77433 
 H                     0.       -1.62254  -1.74574 
 
 ITRead=  0  0  0  0  0  0  0  0  0  0  0
 MicOpt= -1 -1 -1 -1 -1 -1 -1 -1 -1 -1 -1
 NAtoms=     11 NQM=       11 NQMF=       0 NMMI=      0 NMMIF=      0
                NMic=       0 NMicF=      0.
                    Isotopes and Nuclear Properties:
 (Nuclear quadrupole moments (NQMom) in fm**2, nuclear magnetic moments (NMagM)
  in nuclear magnetons)

  Atom         1           2           3           4           5           6           7           8           9          10
 IAtWgt=          12          12          12          12          12           1           1           1           1           1
 AtmWgt=  12.0000000  12.0000000  12.0000000  12.0000000  12.0000000   1.0078250   1.0078250   1.0078250   1.0078250   1.0078250
 NucSpn=           0           0           0           0           0           1           1           1           1           1
 AtZEff=  -0.0000000  -0.0000000  -0.0000000  -0.0000000  -0.0000000  -0.0000000  -0.0000000  -0.0000000  -0.0000000  -0.0000000
 NQMom=    0.0000000   0.0000000   0.0000000   0.0000000   0.0000000   0.0000000   0.0000000   0.0000000   0.0000000   0.0000000
 NMagM=    0.0000000   0.0000000   0.0000000   0.0000000   0.0000000   2.7928460   2.7928460   2.7928460   2.7928460   2.7928460
 AtZNuc=   6.0000000   6.0000000   6.0000000   6.0000000   6.0000000   1.0000000   1.0000000   1.0000000   1.0000000   1.0000000

  Atom        11
 IAtWgt=           1
 AtmWgt=   1.0078250
 NucSpn=           1
 AtZEff=  -0.0000000
 NQMom=    0.0000000
 NMagM=    2.7928460
 AtZNuc=   1.0000000
 Leave Link  101 at Tue Feb 25 12:22:03 2020, MaxMem=  6710886400 cpu:               1.9 elap:               0.1
 (Enter /opt/ohpc/pub/libs/gaussian/g16-A.03/haswell/g16/l202.exe)
                          Input orientation:                          
 ---------------------------------------------------------------------
 Center     Atomic      Atomic             Coordinates (Angstroms)
 Number     Number       Type             X           Y           Z
 ---------------------------------------------------------------------
      1          6           0        0.000000    0.897082   -0.935245
      2          6           0        0.000000    1.134094    0.425375
      3          6           0        0.000000    0.000000    1.243051
      4          6           0        0.000000   -1.134094    0.425375
      5          6           0        0.000000   -0.897082   -0.935245
      6          1           0        0.000000    0.000000   -1.723356
      7          1           0        0.000000    1.622537   -1.745737
      8          1           0        0.000000    2.164126    0.774330
      9          1           0        0.000000    0.000000    2.326294
     10          1           0        0.000000   -2.164126    0.774330
     11          1           0        0.000000   -1.622537   -1.745737
 ---------------------------------------------------------------------
                    Distance matrix (angstroms):
                    1          2          3          4          5
     1  C    0.000000
     2  C    1.381109   0.000000
     3  C    2.355786   1.398128   0.000000
     4  C    2.444783   2.268188   1.398128   0.000000
     5  C    1.794164   2.444783   2.355786   1.381109   0.000000
     6  H    1.194100   2.429653   2.966407   2.429653   1.194100
     7  H    1.087742   2.225377   3.400806   3.508952   2.646767
     8  H    2.127921   1.087536   2.214304   3.316629   3.506229
     9  H    3.382661   2.213518   1.083243   2.213518   3.382661
    10  H    3.506229   3.316629   2.214304   1.087536   2.127921
    11  H    2.646767   3.508952   3.400806   2.225377   1.087742
                    6          7          8          9         10
     6  H    0.000000
     7  H    1.622691   0.000000
     8  H    3.304826   2.577607   0.000000
     9  H    4.049650   4.383385   2.663087   0.000000
    10  H    3.304826   4.548577   4.328252   2.663087   0.000000
    11  H    1.622691   3.245074   4.548577   4.383385   2.577607
                   11
    11  H    0.000000
 Stoichiometry    C5H6
 Framework group  C2V[C2(HCH),SGV(C4H4)]
 Deg. of freedom    10
 Full point group                 C2V     NOp   4
 Largest Abelian subgroup         C2V     NOp   4
 Largest concise Abelian subgroup C2      NOp   2
                         Standard orientation:                         
 ---------------------------------------------------------------------
 Center     Atomic      Atomic             Coordinates (Angstroms)
 Number     Number       Type             X           Y           Z
 ---------------------------------------------------------------------
      1          6           0        0.000000    0.897082   -0.935245
      2          6           0        0.000000    1.134094    0.425375
      3          6           0        0.000000   -0.000000    1.243051
      4          6           0       -0.000000   -1.134094    0.425375
      5          6           0       -0.000000   -0.897082   -0.935245
      6          1           0       -0.000000    0.000000   -1.723356
      7          1           0        0.000000    1.622537   -1.745737
      8          1           0        0.000000    2.164126    0.774330
      9          1           0        0.000000   -0.000000    2.326294
     10          1           0       -0.000000   -2.164126    0.774330
     11          1           0       -0.000000   -1.622537   -1.745737
 ---------------------------------------------------------------------
 Rotational constants (GHZ):           8.4725427           7.7835829           4.0567316
 Leave Link  202 at Tue Feb 25 12:22:03 2020, MaxMem=  6710886400 cpu:               0.2 elap:               0.0
 (Enter /opt/ohpc/pub/libs/gaussian/g16-A.03/haswell/g16/l301.exe)
 Standard basis: 6-31G (6D, 7F)
 Ernie: Thresh=  0.10000D-02 Tol=  0.10000D-05 Strict=F.
 There are    27 symmetry adapted cartesian basis functions of A1  symmetry.
 There are     4 symmetry adapted cartesian basis functions of A2  symmetry.
 There are     6 symmetry adapted cartesian basis functions of B1  symmetry.
 There are    20 symmetry adapted cartesian basis functions of B2  symmetry.
 There are    27 symmetry adapted basis functions of A1  symmetry.
 There are     4 symmetry adapted basis functions of A2  symmetry.
 There are     6 symmetry adapted basis functions of B1  symmetry.
 There are    20 symmetry adapted basis functions of B2  symmetry.
    57 basis functions,   134 primitive gaussians,    57 cartesian basis functions
    18 alpha electrons       18 beta electrons
       nuclear repulsion energy       155.1468587074 Hartrees.
 IExCor=33909 DFT=T Ex+Corr=LC-wHPBE ExCW=0 ScaHFX=  1.000000
 ScaDFX=  1.000000  1.000000  1.000000  1.000000 ScalE2=  1.000000  1.000000
 IRadAn=      5 IRanWt=     -1 IRanGd=            0 ICorTp=0 IEmpDi=  4
 HFx  wShort=  0.000000 wLong=  0.281100 cFull=  0.000000 cShort=  0.000000 cLong=  1.000000
 DFx  wShort=  0.000000 wLong=  0.281100 cFull=  0.000000 cShort=  1.000000 cLong=  0.000000
 NAtoms=   11 NActive=   11 NUniq=    7 SFac= 2.47D+00 NAtFMM=   60 NAOKFM=F Big=F
 Integral buffers will be    131072 words long.
 Raffenetti 2 integral format.
 Two-electron integral symmetry is turned on.
 Leave Link  301 at Tue Feb 25 12:22:03 2020, MaxMem=  6710886400 cpu:               0.8 elap:               0.1
 (Enter /opt/ohpc/pub/libs/gaussian/g16-A.03/haswell/g16/l302.exe)
 NPDir=0 NMtPBC=     1 NCelOv=     1 NCel=       1 NClECP=     1 NCelD=      1
         NCelK=      1 NCelE2=     1 NClLst=     1 CellRange=     0.0.
 One-electron integrals computed using PRISM.
 One-electron integral symmetry used in STVInt
 NBasis=    57 RedAO= T EigKep=  1.93D-03  NBF=    27     4     6    20
 NBsUse=    57 1.00D-06 EigRej= -1.00D+00 NBFU=    27     4     6    20
 Precomputing XC quadrature grid using
 IXCGrd= 4 IRadAn=           5 IRanWt=          -1 IRanGd=           0 AccXCQ= 0.00D+00.
 Generated NRdTot=       0 NPtTot=           0 NUsed=           0 NTot=          32
 NSgBfM=    57    57    57    57    57 MxSgAt=    11 MxSgA2=    11.
 Leave Link  302 at Tue Feb 25 12:22:03 2020, MaxMem=  6710886400 cpu:               3.0 elap:               0.2
 (Enter /opt/ohpc/pub/libs/gaussian/g16-A.03/haswell/g16/l303.exe)
 DipDrv:  MaxL=1.
 Leave Link  303 at Tue Feb 25 12:22:03 2020, MaxMem=  6710886400 cpu:               0.6 elap:               0.1
 (Enter /opt/ohpc/pub/libs/gaussian/g16-A.03/haswell/g16/l401.exe)
 ExpMin= 1.61D-01 ExpMax= 3.05D+03 ExpMxC= 4.57D+02 IAcc=3 IRadAn=         5 AccDes= 0.00D+00
 Harris functional with IExCor=33909 and IRadAn=       5 diagonalized for initial guess.
 HarFok:  IExCor=33909 AccDes= 0.00D+00 IRadAn=         5 IDoV= 1 UseB2=F ITyADJ=14
 ICtDFT=  3500011 ScaDFX=  1.000000  1.000000  1.000000  1.000000
 FoFCou: FMM=F IPFlag=           0 FMFlag=      100000 FMFlg1=           0
         NFxFlg=           0 DoJE=T BraDBF=F KetDBF=T FulRan=T
         wScrn=  0.000000 ICntrl=       500 IOpCl=  0 I1Cent=   200000004 NGrid=           0
         NMat0=    1 NMatS0=      1 NMatT0=    0 NMatD0=    1 NMtDS0=    0 NMtDT0=    0
 Petite list used in FoFCou.
 Harris En= -188.556426613331    
 JPrj=0 DoOrth=F DoCkMO=F.
 Initial guess orbital symmetries:
 Alpha Orbitals:
       Occupied  (A1) (B2) (A1) (B2) (A1) (A1) (B2) (A1) (A1) (B2)
                 (A1) (B2) (A1) (B2) (A1) (B1) (A2) (B1)
       Virtual   (A2) (B2) (B1) (A1) (A1) (B2) (A1) (B2) (A1) (B2)
                 (A1) (B2) (A1) (B2) (B1) (A1) (A2) (B1) (B2) (A1)
                 (A1) (A2) (B1) (B2) (B2) (A1) (B2) (A1) (A1) (B2)
                 (A1) (A1) (A1) (B2) (A1) (B2) (A1) (A1) (B2)
 Beta  Orbitals:
       Occupied  (A1) (B2) (A1) (B2) (A1) (A1) (B2) (A1) (A1) (B2)
                 (A1) (B2) (A1) (B2) (A1) (B1) (A2) (B1)
       Virtual   (A2) (B2) (B1) (A1) (A1) (B2) (A1) (B2) (A1) (B2)
                 (A1) (B2) (A1) (B2) (B1) (A1) (A2) (B1) (B2) (A1)
                 (A1) (A2) (B1) (B2) (B2) (A1) (B2) (A1) (A1) (B2)
                 (A1) (A1) (A1) (B2) (A1) (B2) (A1) (A1) (B2)
 The electronic state of the initial guess is 1-A1.
 Initial guess <Sx>= 0.0000 <Sy>= 0.0000 <Sz>= 0.0000 <S**2>=-0.0000 S=-0.0000
 Leave Link  401 at Tue Feb 25 12:22:04 2020, MaxMem=  6710886400 cpu:               4.2 elap:               0.3
 (Enter /opt/ohpc/pub/libs/gaussian/g16-A.03/haswell/g16/l502.exe)
 Keep R1 and R2 ints in memory in symmetry-blocked form, NReq=16815681.
 FoFCou: FMM=F IPFlag=           0 FMFlag=           0 FMFlg1=           0
         NFxFlg=           0 DoJE=F BraDBF=F KetDBF=F FulRan=T
         wScrn=  0.000000 ICntrl=       600 IOpCl=  0 I1Cent=           0 NGrid=           0
         NMat0=    1 NMatS0=   1653 NMatT0=    0 NMatD0=    1 NMtDS0=    0 NMtDT0=    0
 Petite list used in FoFCou.
 UHF open shell SCF:
 Using DIIS extrapolation, IDIIS=    10.
 NGot=  6710886400 LenX=  6710059561 LenY=  6710055871
 Requested convergence on RMS density matrix=1.00D-06 within  32 cycles.
 Requested convergence on MAX density matrix=1.00D-04.
 Requested convergence on             energy=1.00D-04.
 Virtual orbitals will be shifted by   0.500 hartree.
 No special actions if energy rises.
 Dynamic level shift is on during FON iterations.

 Cycle   1  Pass 1  IDiag  1:
 E= -193.639652108887    
 DIIS: error= 4.25D-02 at cycle   1 NSaved=   1.
 NSaved= 1 IEnMin= 1 EnMin= -193.639652108887     IErMin= 1 ErrMin= 4.25D-02
 ErrMax= 4.25D-02  0.00D+00 EMaxC= 1.00D+00 BMatC= 3.32D-01 BMatP= 3.32D-01
 IDIUse=1 WtCom= 1.00D+00 WtEn= 0.00D+00
 Coeff-Com:  0.100D+01
 Coeff:      0.100D+01
 Gap=     0.323 Goal=   None    Shift=    0.500
 T= 1705. Gap= 0.780 NK=0 IS=   19 IE=   57 IFin=   18
          NO(<0.9)=   0  NV(>0.1)=   0     18.00e < EF      0.00e >EF  Err=0.0D+00
 Gap=     0.323 Goal=   None    Shift=    0.500
 T= 1705. Gap= 0.780 NK=0 IS=   19 IE=   57 IFin=   18
          NO(<0.9)=   0  NV(>0.1)=   0     18.00e < EF      0.00e >EF  Err=0.0D+00
 GapD=    0.323 DampG=1.000 DampE=0.500 DampFc=0.5000 IDamp=-1.
 Damping current iteration by 5.00D-01
 RMSDP=6.93D-03 MaxDP=6.14D-02              OVMax= 7.83D-02

 Cycle   2  Pass 1  IDiag  1:
 E= -193.701544615898     Delta-E=       -0.061892507011 Rises=F Damp=T
 DIIS: error= 1.86D-02 at cycle   2 NSaved=   2.
 NSaved= 2 IEnMin= 2 EnMin= -193.701544615898     IErMin= 2 ErrMin= 1.86D-02
 ErrMax= 1.86D-02  0.00D+00 EMaxC= 1.00D+00 BMatC= 6.31D-02 BMatP= 3.32D-01
 IDIUse=1 WtCom= 1.00D+00 WtEn= 0.00D+00
 Coeff-Com: -0.689D+00 0.169D+01
 Coeff:     -0.689D+00 0.169D+01
 Gap=     0.386 Goal=   None    Shift=    0.500
 T= 1581. Gap= 0.872 NK=0 IS=   19 IE=   57 IFin=   18
          NO(<0.9)=   0  NV(>0.1)=   0     18.00e < EF      0.00e >EF  Err=0.0D+00
 Gap=     0.386 Goal=   None    Shift=    0.500
 T= 1581. Gap= 0.872 NK=0 IS=   19 IE=   57 IFin=   18
          NO(<0.9)=   0  NV(>0.1)=   0     18.00e < EF      0.00e >EF  Err=0.0D+00
 GapD=    0.386 DampG=1.000 DampE=0.500 DampFc=0.5000 IDamp=-1.
 Damping current iteration by 5.00D-01
 RMSDP=3.74D-03 MaxDP=2.49D-02 DE=-6.19D-02 OVMax= 7.94D-03

 Cycle   3  Pass 1  IDiag  1:
 E= -193.723569314706     Delta-E=       -0.022024698808 Rises=F Damp=T
 DIIS: error= 8.47D-03 at cycle   3 NSaved=   3.
 NSaved= 3 IEnMin= 3 EnMin= -193.723569314706     IErMin= 3 ErrMin= 8.47D-03
 ErrMax= 8.47D-03  0.00D+00 EMaxC= 1.00D+00 BMatC= 1.31D-02 BMatP= 6.31D-02
 IDIUse=1 WtCom= 1.00D+00 WtEn= 0.00D+00
 Coeff-Com:  0.156D+00-0.130D+01 0.214D+01
 Coeff:      0.156D+00-0.130D+01 0.214D+01
 Gap=     0.371 Goal=   None    Shift=    0.500
 T= 1342. Gap= 0.870 NK=0 IS=   19 IE=   57 IFin=   18
          NO(<0.9)=   0  NV(>0.1)=   0     18.00e < EF      0.00e >EF  Err=0.0D+00
 Gap=     0.371 Goal=   None    Shift=    0.500
 T= 1342. Gap= 0.870 NK=0 IS=   19 IE=   57 IFin=   18
          NO(<0.9)=   0  NV(>0.1)=   0     18.00e < EF      0.00e >EF  Err=0.0D+00
 GapD=    0.371 DampG=1.000 DampE=1.000 DampFc=1.0000 IDamp=-1.
 RMSDP=1.93D-03 MaxDP=1.26D-02 DE=-2.20D-02 OVMax= 6.41D-03

 Cycle   4  Pass 1  IDiag  1:
 E= -193.741631860718     Delta-E=       -0.018062546012 Rises=F Damp=F
 DIIS: error= 1.68D-03 at cycle   4 NSaved=   4.
 NSaved= 4 IEnMin= 4 EnMin= -193.741631860718     IErMin= 4 ErrMin= 1.68D-03
 ErrMax= 1.68D-03  0.00D+00 EMaxC= 1.00D+00 BMatC= 4.08D-04 BMatP= 1.31D-02
 IDIUse=1 WtCom= 1.00D+00 WtEn= 0.00D+00
 Coeff-Com:  0.115D+00-0.122D+00-0.208D+00 0.122D+01
 Coeff:      0.115D+00-0.122D+00-0.208D+00 0.122D+01
 Gap=     0.374 Goal=   None    Shift=    0.500
 T=  812. Gap= 0.874 NK=0 IS=   19 IE=   57 IFin=   18
          NO(<0.9)=   0  NV(>0.1)=   0     18.00e < EF      0.00e >EF  Err=0.0D+00
 Gap=     0.374 Goal=   None    Shift=    0.500
 T=  812. Gap= 0.874 NK=0 IS=   19 IE=   57 IFin=   18
          NO(<0.9)=   0  NV(>0.1)=   0     18.00e < EF      0.00e >EF  Err=0.0D+00
 GapD=    0.374 DampG=1.000 DampE=1.000 DampFc=1.0000 IDamp=-1.
 RMSDP=3.45D-04 MaxDP=2.90D-03 DE=-1.81D-02 OVMax= 2.61D-03

 Cycle   5  Pass 1  IDiag  1:
 E= -193.741797312750     Delta-E=       -0.000165452032 Rises=F Damp=F
 DIIS: error= 7.02D-04 at cycle   5 NSaved=   5.
 NSaved= 5 IEnMin= 5 EnMin= -193.741797312750     IErMin= 5 ErrMin= 7.02D-04
 ErrMax= 7.02D-04  0.00D+00 EMaxC= 1.00D+00 BMatC= 6.08D-05 BMatP= 4.08D-04
 IDIUse=1 WtCom= 1.00D+00 WtEn= 0.00D+00
 Coeff-Com: -0.454D-01 0.201D+00-0.243D+00-0.705D+00 0.179D+01
 Coeff:     -0.454D-01 0.201D+00-0.243D+00-0.705D+00 0.179D+01
 Gap=     0.375 Goal=   None    Shift=    0.500
 Gap=     0.375 Goal=   None    Shift=    0.500
 RMSDP=2.03D-04 MaxDP=1.73D-03 DE=-1.65D-04 OVMax= 2.37D-03

 Cycle   6  Pass 1  IDiag  1:
 E= -193.741840649797     Delta-E=       -0.000043337047 Rises=F Damp=F
 DIIS: error= 4.91D-04 at cycle   6 NSaved=   6.
 NSaved= 6 IEnMin= 6 EnMin= -193.741840649797     IErMin= 6 ErrMin= 4.91D-04
 ErrMax= 4.91D-04  0.00D+00 EMaxC= 1.00D+00 BMatC= 1.25D-05 BMatP= 6.08D-05
 IDIUse=1 WtCom= 1.00D+00 WtEn= 0.00D+00
 Coeff-Com:  0.964D-03-0.608D-01 0.114D+00 0.200D+00-0.170D+01 0.245D+01
 Coeff:      0.964D-03-0.608D-01 0.114D+00 0.200D+00-0.170D+01 0.245D+01
 Gap=     0.375 Goal=   None    Shift=    0.500
 Gap=     0.375 Goal=   None    Shift=    0.500
 RMSDP=1.06D-04 MaxDP=8.55D-04 DE=-4.33D-05 OVMax= 1.50D-03

 Cycle   7  Pass 1  IDiag  1:
 E= -193.741852978534     Delta-E=       -0.000012328737 Rises=F Damp=F
 DIIS: error= 3.19D-04 at cycle   7 NSaved=   7.
 NSaved= 7 IEnMin= 7 EnMin= -193.741852978534     IErMin= 7 ErrMin= 3.19D-04
 ErrMax= 3.19D-04  0.00D+00 EMaxC= 1.00D+00 BMatC= 3.30D-06 BMatP= 1.25D-05
 IDIUse=1 WtCom= 1.00D+00 WtEn= 0.00D+00
 Coeff-Com: -0.991D-03 0.536D-01-0.105D+00 0.749D-01 0.622D+00-0.260D+01
 Coeff-Com:  0.296D+01
 Coeff:     -0.991D-03 0.536D-01-0.105D+00 0.749D-01 0.622D+00-0.260D+01
 Coeff:      0.296D+01
 Gap=     0.375 Goal=   None    Shift=    0.500
 Gap=     0.375 Goal=   None    Shift=    0.500
 RMSDP=4.78D-05 MaxDP=3.92D-04 DE=-1.23D-05 OVMax= 8.93D-04

 Cycle   8  Pass 1  IDiag  1:
 E= -193.741856443203     Delta-E=       -0.000003464669 Rises=F Damp=F
 DIIS: error= 1.98D-04 at cycle   8 NSaved=   8.
 NSaved= 8 IEnMin= 8 EnMin= -193.741856443203     IErMin= 8 ErrMin= 1.98D-04
 ErrMax= 1.98D-04  0.00D+00 EMaxC= 1.00D+00 BMatC= 1.06D-06 BMatP= 3.30D-06
 IDIUse=1 WtCom= 1.00D+00 WtEn= 0.00D+00
 Coeff-Com: -0.311D-02 0.340D-01-0.570D-01 0.127D-01 0.269D+00-0.448D+00
 Coeff-Com: -0.996D+00 0.219D+01
 Coeff:     -0.311D-02 0.340D-01-0.570D-01 0.127D-01 0.269D+00-0.448D+00
 Coeff:     -0.996D+00 0.219D+01
 Gap=     0.375 Goal=   None    Shift=    0.500
 Gap=     0.375 Goal=   None    Shift=    0.500
 RMSDP=2.16D-05 MaxDP=1.71D-04 DE=-3.46D-06 OVMax= 5.04D-04

 Cycle   9  Pass 1  IDiag  1:
 E= -193.741857394487     Delta-E=       -0.000000951284 Rises=F Damp=F
 DIIS: error= 1.12D-04 at cycle   9 NSaved=   9.
 NSaved= 9 IEnMin= 9 EnMin= -193.741857394487     IErMin= 9 ErrMin= 1.12D-04
 ErrMax= 1.12D-04  0.00D+00 EMaxC= 1.00D+00 BMatC= 3.49D-07 BMatP= 1.06D-06
 IDIUse=1 WtCom= 1.00D+00 WtEn= 0.00D+00
 Coeff-Com: -0.152D-02 0.101D-01-0.149D-01 0.915D-02-0.131D-01 0.268D+00
 Coeff-Com: -0.919D+00 0.148D+00 0.151D+01
 Coeff:     -0.152D-02 0.101D-01-0.149D-01 0.915D-02-0.131D-01 0.268D+00
 Coeff:     -0.919D+00 0.148D+00 0.151D+01
 Gap=     0.375 Goal=   None    Shift=    0.500
 Gap=     0.375 Goal=   None    Shift=    0.500
 RMSDP=1.02D-05 MaxDP=8.82D-05 DE=-9.51D-07 OVMax= 2.68D-04

 Cycle  10  Pass 1  IDiag  1:
 E= -193.741857659073     Delta-E=       -0.000000264587 Rises=F Damp=F
 DIIS: error= 6.54D-05 at cycle  10 NSaved=  10.
 NSaved=10 IEnMin=10 EnMin= -193.741857659073     IErMin=10 ErrMin= 6.54D-05
 ErrMax= 6.54D-05  0.00D+00 EMaxC= 1.00D+00 BMatC= 1.13D-07 BMatP= 3.49D-07
 IDIUse=1 WtCom= 1.00D+00 WtEn= 0.00D+00
 Coeff-Com:  0.751D-03-0.486D-02 0.669D-02 0.119D-01-0.718D-01 0.519D-01
 Coeff-Com:  0.439D+00-0.106D+01-0.423D+00 0.205D+01
 Coeff:      0.751D-03-0.486D-02 0.669D-02 0.119D-01-0.718D-01 0.519D-01
 Coeff:      0.439D+00-0.106D+01-0.423D+00 0.205D+01
 Gap=     0.375 Goal=   None    Shift=    0.500
 Gap=     0.375 Goal=   None    Shift=    0.500
 RMSDP=5.06D-06 MaxDP=4.59D-05 DE=-2.65D-07 OVMax= 1.49D-04

 Cycle  11  Pass 1  IDiag  1:
 E= -193.741857733815     Delta-E=       -0.000000074742 Rises=F Damp=F
 DIIS: error= 3.73D-05 at cycle  11 NSaved=  11.
 NSaved=11 IEnMin=11 EnMin= -193.741857733815     IErMin=11 ErrMin= 3.73D-05
 ErrMax= 3.73D-05  0.00D+00 EMaxC= 1.00D+00 BMatC= 3.76D-08 BMatP= 1.13D-07
 IDIUse=1 WtCom= 1.00D+00 WtEn= 0.00D+00
 Coeff-Com: -0.903D-04 0.116D-02-0.205D-02 0.137D-02 0.793D-02-0.170D-01
 Coeff-Com:  0.113D-01 0.512D-01 0.859D-01-0.173D+01 0.259D+01
 Coeff:     -0.903D-04 0.116D-02-0.205D-02 0.137D-02 0.793D-02-0.170D-01
 Coeff:      0.113D-01 0.512D-01 0.859D-01-0.173D+01 0.259D+01
 Gap=     0.375 Goal=   None    Shift=    0.500
 Gap=     0.375 Goal=   None    Shift=    0.500
 RMSDP=2.48D-06 MaxDP=2.41D-05 DE=-7.47D-08 OVMax= 8.28D-05

 Cycle  12  Pass 1  IDiag  1:
 E= -193.741857755686     Delta-E=       -0.000000021871 Rises=F Damp=F
 DIIS: error= 2.09D-05 at cycle  12 NSaved=  12.
 NSaved=12 IEnMin=12 EnMin= -193.741857755686     IErMin=12 ErrMin= 2.09D-05
 ErrMax= 2.09D-05  0.00D+00 EMaxC= 1.00D+00 BMatC= 1.21D-08 BMatP= 3.76D-08
 IDIUse=1 WtCom= 1.00D+00 WtEn= 0.00D+00
 Coeff-Com: -0.377D-04 0.155D-03-0.178D-03 0.129D-02-0.818D-02 0.206D-01
 Coeff-Com: -0.259D-01-0.709D-02 0.508D-01 0.672D+00-0.307D+01 0.336D+01
 Coeff:     -0.377D-04 0.155D-03-0.178D-03 0.129D-02-0.818D-02 0.206D-01
 Coeff:     -0.259D-01-0.709D-02 0.508D-01 0.672D+00-0.307D+01 0.336D+01
 Gap=     0.375 Goal=   None    Shift=    0.500
 Gap=     0.375 Goal=   None    Shift=    0.500
 RMSDP=1.25D-06 MaxDP=1.23D-05 DE=-2.19D-08 OVMax= 4.55D-05

 Cycle  13  Pass 1  IDiag  1:
 E= -193.741857762032     Delta-E=       -0.000000006345 Rises=F Damp=F
 DIIS: error= 1.17D-05 at cycle  13 NSaved=  13.
 NSaved=13 IEnMin=13 EnMin= -193.741857762032     IErMin=13 ErrMin= 1.17D-05
 ErrMax= 1.17D-05  0.00D+00 EMaxC= 1.00D+00 BMatC= 3.93D-09 BMatP= 1.21D-08
 IDIUse=1 WtCom= 1.00D+00 WtEn= 0.00D+00
 Coeff-Com:  0.903D-04-0.579D-03 0.800D-03 0.134D-02-0.861D-02 0.102D-01
 Coeff-Com:  0.360D-01-0.951D-01 0.207D-02-0.350D-01 0.114D+01-0.358D+01
 Coeff-Com:  0.353D+01
 Coeff:      0.903D-04-0.579D-03 0.800D-03 0.134D-02-0.861D-02 0.102D-01
 Coeff:      0.360D-01-0.951D-01 0.207D-02-0.350D-01 0.114D+01-0.358D+01
 Coeff:      0.353D+01
 Gap=     0.375 Goal=   None    Shift=    0.500
 Gap=     0.375 Goal=   None    Shift=    0.500
 RMSDP=6.43D-07 MaxDP=6.57D-06 DE=-6.35D-09 OVMax= 2.49D-05

 SCF Done:  E(ULC-wHPBE) =  -193.741857762     A.U. after   13 cycles
            NFock= 13  Conv=0.64D-06     -V/T= 2.0059
 <Sx>= 0.0000 <Sy>= 0.0000 <Sz>= 0.0000 <S**2>=-0.0000 S=-0.0000
 <L.S>= 0.000000000000E+00
 KE= 1.926143888020D+02 PE=-7.591167609075D+02 EE= 2.176136556360D+02
 Annihilation of the first spin contaminant:
 S**2 before annihilation    -0.0000,   after     0.0000
 Leave Link  502 at Tue Feb 25 12:22:05 2020, MaxMem=  6710886400 cpu:              20.9 elap:               1.3
 (Enter /opt/ohpc/pub/libs/gaussian/g16-A.03/haswell/g16/l508.exe)
 QCSCF skips out because SCF is already converged.
 Leave Link  508 at Tue Feb 25 12:22:05 2020, MaxMem=  6710886400 cpu:               0.1 elap:               0.0
 (Enter /opt/ohpc/pub/libs/gaussian/g16-A.03/haswell/g16/l601.exe)
 Copying SCF densities to generalized density rwf, IOpCl= 1 IROHF=0.

 **********************************************************************

            Population analysis using the SCF density.

 **********************************************************************

 Orbital symmetries:
 Alpha Orbitals:
       Occupied  (B2) (A1) (A1) (B2) (A1) (A1) (A1) (B2) (A1) (B2)
                 (A1) (B2) (A1) (A1) (B2) (B1) (A2) (B1)
       Virtual   (B2) (A2) (A1) (B1) (A1) (B2) (A1) (B2) (A1) (A1)
                 (B2) (A1) (B2) (B2) (B1) (A2) (B1) (A1) (A1) (B2)
                 (A1) (A2) (B1) (B2) (B2) (A1) (B2) (A1) (A1) (A1)
                 (B2) (A1) (A1) (B2) (A1) (B2) (A1) (A1) (B2)
 Beta  Orbitals:
       Occupied  (B2) (A1) (A1) (B2) (A1) (A1) (A1) (B2) (A1) (B2)
                 (A1) (B2) (A1) (A1) (B2) (B1) (A2) (B1)
       Virtual   (B2) (A2) (A1) (B1) (A1) (B2) (A1) (B2) (A1) (A1)
                 (B2) (A1) (B2) (B2) (B1) (A2) (B1) (A1) (A1) (B2)
                 (A1) (A2) (B1) (B2) (B2) (A1) (B2) (A1) (A1) (A1)
                 (B2) (A1) (A1) (B2) (A1) (B2) (A1) (A1) (B2)
 The electronic state is 1-A1.
 Alpha  occ. eigenvalues --  -10.08880 -10.08875 -10.05012 -10.05012 -10.01695
 Alpha  occ. eigenvalues --   -0.95514  -0.83080  -0.80483  -0.66380  -0.65193
 Alpha  occ. eigenvalues --   -0.61097  -0.50828  -0.49803  -0.46753  -0.45551
 Alpha  occ. eigenvalues --   -0.44866  -0.31661  -0.27301
 Alpha virt. eigenvalues --    0.10191   0.10920   0.16019   0.18227   0.19170
 Alpha virt. eigenvalues --    0.23696   0.25590   0.27181   0.28070   0.41006
 Alpha virt. eigenvalues --    0.41827   0.51456   0.52772   0.61200   0.63035
 Alpha virt. eigenvalues --    0.69706   0.70520   0.70753   0.72431   0.73910
 Alpha virt. eigenvalues --    0.75029   0.76060   0.78563   0.85645   0.91463
 Alpha virt. eigenvalues --    0.94263   0.95988   0.96122   0.98321   1.04908
 Alpha virt. eigenvalues --    1.04992   1.08944   1.12605   1.18967   1.27031
 Alpha virt. eigenvalues --    1.28844   1.34873   1.56562   1.57547
  Beta  occ. eigenvalues --  -10.08880 -10.08875 -10.05012 -10.05012 -10.01695
  Beta  occ. eigenvalues --   -0.95514  -0.83080  -0.80483  -0.66380  -0.65193
  Beta  occ. eigenvalues --   -0.61097  -0.50828  -0.49803  -0.46753  -0.45551
  Beta  occ. eigenvalues --   -0.44866  -0.31661  -0.27301
  Beta virt. eigenvalues --    0.10191   0.10920   0.16019   0.18227   0.19170
  Beta virt. eigenvalues --    0.23696   0.25590   0.27181   0.28070   0.41006
  Beta virt. eigenvalues --    0.41827   0.51456   0.52772   0.61200   0.63035
  Beta virt. eigenvalues --    0.69706   0.70520   0.70753   0.72431   0.73910
  Beta virt. eigenvalues --    0.75029   0.76060   0.78563   0.85645   0.91463
  Beta virt. eigenvalues --    0.94263   0.95988   0.96122   0.98321   1.04908
  Beta virt. eigenvalues --    1.04992   1.08944   1.12605   1.18967   1.27031
  Beta virt. eigenvalues --    1.28844   1.34873   1.56562   1.57547
          Condensed to atoms (all electrons):
               1          2          3          4          5          6
     1  C    5.420129   0.474383  -0.052414  -0.127821   0.250774   0.169133
     2  C    0.474383   4.898573   0.559421  -0.011633  -0.127821  -0.020724
     3  C   -0.052414   0.559421   4.802252   0.559421  -0.052414   0.004247
     4  C   -0.127821  -0.011633   0.559421   4.898573   0.474383  -0.020724
     5  C    0.250774  -0.127821  -0.052414   0.474383   5.420129   0.169133
     6  H    0.169133  -0.020724   0.004247  -0.020724   0.169133   0.406784
     7  H    0.344679  -0.001914   0.000258   0.004075  -0.024676  -0.010679
     8  H   -0.038842   0.362809  -0.017416   0.004751   0.001946   0.001027
     9  H    0.007004  -0.041619   0.374181  -0.041619   0.007004  -0.000113
    10  H    0.001946   0.004751  -0.017416   0.362809  -0.038842   0.001027
    11  H   -0.024676   0.004075   0.000258  -0.001914   0.344679  -0.010679
               7          8          9         10         11
     1  C    0.344679  -0.038842   0.007004   0.001946  -0.024676
     2  C   -0.001914   0.362809  -0.041619   0.004751   0.004075
     3  C    0.000258  -0.017416   0.374181  -0.017416   0.000258
     4  C    0.004075   0.004751  -0.041619   0.362809  -0.001914
     5  C   -0.024676   0.001946   0.007004  -0.038842   0.344679
     6  H   -0.010679   0.001027  -0.000113   0.001027  -0.010679
     7  H    0.472769  -0.000464  -0.000107  -0.000038   0.000773
     8  H   -0.000464   0.522843  -0.002620  -0.000175  -0.000038
     9  H   -0.000107  -0.002620   0.565618  -0.002620  -0.000107
    10  H   -0.000038  -0.000175  -0.002620   0.522843  -0.000464
    11  H    0.000773  -0.000038  -0.000107  -0.000464   0.472769
          Atomic-Atomic Spin Densities.
               1          2          3          4          5          6
     1  C    0.000000   0.000000   0.000000   0.000000   0.000000   0.000000
     2  C    0.000000   0.000000   0.000000   0.000000   0.000000   0.000000
     3  C    0.000000   0.000000   0.000000   0.000000   0.000000   0.000000
     4  C    0.000000   0.000000   0.000000   0.000000   0.000000   0.000000
     5  C    0.000000   0.000000   0.000000   0.000000   0.000000   0.000000
     6  H    0.000000   0.000000   0.000000   0.000000   0.000000   0.000000
     7  H    0.000000   0.000000   0.000000   0.000000   0.000000   0.000000
     8  H    0.000000   0.000000   0.000000   0.000000   0.000000   0.000000
     9  H    0.000000   0.000000   0.000000   0.000000   0.000000   0.000000
    10  H    0.000000   0.000000   0.000000   0.000000   0.000000   0.000000
    11  H    0.000000   0.000000   0.000000   0.000000   0.000000   0.000000
               7          8          9         10         11
     1  C    0.000000   0.000000   0.000000   0.000000   0.000000
     2  C    0.000000   0.000000   0.000000   0.000000   0.000000
     3  C    0.000000   0.000000   0.000000   0.000000   0.000000
     4  C    0.000000   0.000000   0.000000   0.000000   0.000000
     5  C    0.000000   0.000000   0.000000   0.000000   0.000000
     6  H    0.000000   0.000000   0.000000   0.000000   0.000000
     7  H    0.000000   0.000000   0.000000   0.000000   0.000000
     8  H    0.000000   0.000000   0.000000   0.000000   0.000000
     9  H    0.000000   0.000000   0.000000   0.000000   0.000000
    10  H    0.000000   0.000000   0.000000   0.000000   0.000000
    11  H    0.000000   0.000000   0.000000   0.000000   0.000000
 Mulliken charges and spin densities:
               1          2
     1  C   -0.424295   0.000000
     2  C   -0.100301   0.000000
     3  C   -0.160377   0.000000
     4  C   -0.100301   0.000000
     5  C   -0.424295   0.000000
     6  H    0.311566   0.000000
     7  H    0.215323   0.000000
     8  H    0.166179   0.000000
     9  H    0.134998   0.000000
    10  H    0.166179   0.000000
    11  H    0.215323   0.000000
 Sum of Mulliken charges =  -0.00000   0.00000
 Mulliken charges and spin densities with hydrogens summed into heavy atoms:
               1          2
     1  C    0.102594   0.000000
     2  C    0.065878   0.000000
     3  C   -0.025378   0.000000
     4  C    0.065878   0.000000
     5  C   -0.208972   0.000000
 Electronic spatial extent (au):  <R**2>=            340.0262
 Charge=             -0.0000 electrons
 Dipole moment (field-independent basis, Debye):
    X=             -0.0000    Y=              0.0000    Z=             -1.9421  Tot=              1.9421
 Quadrupole moment (field-independent basis, Debye-Ang):
   XX=            -35.6234   YY=            -26.0921   ZZ=            -24.1622
   XY=              0.0000   XZ=              0.0000   YZ=             -0.0000
 Traceless Quadrupole moment (field-independent basis, Debye-Ang):
   XX=             -6.9975   YY=              2.5338   ZZ=              4.4637
   XY=              0.0000   XZ=              0.0000   YZ=             -0.0000
 Octapole moment (field-independent basis, Debye-Ang**2):
  XXX=              0.0000  YYY=             -0.0000  ZZZ=             -8.7060  XYY=              0.0000
  XXY=             -0.0000  XXZ=              0.8814  XZZ=              0.0000  YZZ=              0.0000
  YYZ=             -1.1038  XYZ=             -0.0000
 Hexadecapole moment (field-independent basis, Debye-Ang**3):
 XXXX=            -38.3890 YYYY=           -191.2710 ZZZZ=           -176.6572 XXXY=             -0.0000
 XXXZ=             -0.0000 YYYX=             -0.0000 YYYZ=             -0.0000 ZZZX=             -0.0000
 ZZZY=             -0.0000 XXYY=            -48.3552 XXZZ=            -46.8505 YYZZ=            -60.0848
 XXYZ=             -0.0000 YYXZ=             -0.0000 ZZXY=             -0.0000
 N-N= 1.551468587074D+02 E-N=-7.591167384355D+02  KE= 1.926143888020D+02
 Symmetry A1   KE= 1.108315908820D+02
 Symmetry A2   KE= 2.401952366572D+00
 Symmetry B1   KE= 4.207355955321D+00
 Symmetry B2   KE= 7.517348959811D+01
 Symmetry A1   SP= 0.000000000000D+00
 Symmetry A2   SP= 0.000000000000D+00
 Symmetry B1   SP= 0.000000000000D+00
 Symmetry B2   SP= 0.000000000000D+00
                          Isotropic Fermi Contact Couplings
        Atom                 a.u.       MegaHertz       Gauss      10(-4) cm-1
     1  C(13)              0.00000       0.00000       0.00000       0.00000
     2  C(13)              0.00000       0.00000       0.00000       0.00000
     3  C(13)              0.00000       0.00000       0.00000       0.00000
     4  C(13)              0.00000       0.00000       0.00000       0.00000
     5  C(13)              0.00000       0.00000       0.00000       0.00000
     6  H(1)               0.00000       0.00000       0.00000       0.00000
     7  H(1)               0.00000       0.00000       0.00000       0.00000
     8  H(1)               0.00000       0.00000       0.00000       0.00000
     9  H(1)               0.00000       0.00000       0.00000       0.00000
    10  H(1)               0.00000       0.00000       0.00000       0.00000
    11  H(1)               0.00000       0.00000       0.00000       0.00000
 --------------------------------------------------------
       Center         ----  Spin Dipole Couplings  ----
                      3XX-RR        3YY-RR        3ZZ-RR
 --------------------------------------------------------
     1   Atom        0.000000      0.000000      0.000000
     2   Atom        0.000000      0.000000      0.000000
     3   Atom        0.000000      0.000000      0.000000
     4   Atom        0.000000      0.000000      0.000000
     5   Atom        0.000000      0.000000      0.000000
     6   Atom        0.000000      0.000000      0.000000
     7   Atom        0.000000      0.000000      0.000000
     8   Atom        0.000000      0.000000      0.000000
     9   Atom        0.000000      0.000000      0.000000
    10   Atom        0.000000      0.000000      0.000000
    11   Atom        0.000000      0.000000      0.000000
 --------------------------------------------------------
                        XY            XZ            YZ
 --------------------------------------------------------
     1   Atom        0.000000      0.000000      0.000000
     2   Atom        0.000000      0.000000      0.000000
     3   Atom        0.000000      0.000000      0.000000
     4   Atom        0.000000      0.000000      0.000000
     5   Atom        0.000000      0.000000      0.000000
     6   Atom        0.000000      0.000000      0.000000
     7   Atom        0.000000      0.000000      0.000000
     8   Atom        0.000000      0.000000      0.000000
     9   Atom        0.000000      0.000000      0.000000
    10   Atom        0.000000      0.000000      0.000000
    11   Atom        0.000000      0.000000      0.000000
 --------------------------------------------------------


 ---------------------------------------------------------------------------------
              Anisotropic Spin Dipole Couplings in Principal Axis System
 ---------------------------------------------------------------------------------

       Atom             a.u.   MegaHertz   Gauss  10(-4) cm-1        Axes

              Baa     0.0000     0.000     0.000     0.000  1.0000  0.0000  0.0000
     1 C(13)  Bbb     0.0000     0.000     0.000     0.000 -0.0000  1.0000  0.0000
              Bcc     0.0000     0.000     0.000     0.000  0.0000  0.0000  1.0000
 
              Baa     0.0000     0.000     0.000     0.000  1.0000  0.0000  0.0000
     2 C(13)  Bbb     0.0000     0.000     0.000     0.000 -0.0000  1.0000  0.0000
              Bcc     0.0000     0.000     0.000     0.000  0.0000  0.0000  1.0000
 
              Baa     0.0000     0.000     0.000     0.000  1.0000  0.0000  0.0000
     3 C(13)  Bbb     0.0000     0.000     0.000     0.000 -0.0000  1.0000  0.0000
              Bcc     0.0000     0.000     0.000     0.000  0.0000  0.0000  1.0000
 
              Baa     0.0000     0.000     0.000     0.000  1.0000  0.0000  0.0000
     4 C(13)  Bbb     0.0000     0.000     0.000     0.000 -0.0000  1.0000  0.0000
              Bcc     0.0000     0.000     0.000     0.000  0.0000  0.0000  1.0000
 
              Baa     0.0000     0.000     0.000     0.000  1.0000  0.0000  0.0000
     5 C(13)  Bbb     0.0000     0.000     0.000     0.000 -0.0000  1.0000  0.0000
              Bcc     0.0000     0.000     0.000     0.000  0.0000  0.0000  1.0000
 
              Baa     0.0000     0.000     0.000     0.000  1.0000  0.0000  0.0000
     6 H(1)   Bbb     0.0000     0.000     0.000     0.000 -0.0000  1.0000  0.0000
              Bcc     0.0000     0.000     0.000     0.000  0.0000  0.0000  1.0000
 
              Baa     0.0000     0.000     0.000     0.000  1.0000  0.0000  0.0000
     7 H(1)   Bbb     0.0000     0.000     0.000     0.000 -0.0000  1.0000  0.0000
              Bcc     0.0000     0.000     0.000     0.000  0.0000  0.0000  1.0000
 
              Baa     0.0000     0.000     0.000     0.000  1.0000  0.0000  0.0000
     8 H(1)   Bbb     0.0000     0.000     0.000     0.000 -0.0000  1.0000  0.0000
              Bcc     0.0000     0.000     0.000     0.000  0.0000  0.0000  1.0000
 
              Baa     0.0000     0.000     0.000     0.000  1.0000  0.0000  0.0000
     9 H(1)   Bbb     0.0000     0.000     0.000     0.000 -0.0000  1.0000  0.0000
              Bcc     0.0000     0.000     0.000     0.000  0.0000  0.0000  1.0000
 
              Baa     0.0000     0.000     0.000     0.000  1.0000  0.0000  0.0000
    10 H(1)   Bbb     0.0000     0.000     0.000     0.000 -0.0000  1.0000  0.0000
              Bcc     0.0000     0.000     0.000     0.000  0.0000  0.0000  1.0000
 
              Baa     0.0000     0.000     0.000     0.000  1.0000  0.0000  0.0000
    11 H(1)   Bbb     0.0000     0.000     0.000     0.000 -0.0000  1.0000  0.0000
              Bcc     0.0000     0.000     0.000     0.000  0.0000  0.0000  1.0000
 

 ---------------------------------------------------------------------------------

 No NMR shielding tensors so no spin-rotation constants.
 Leave Link  601 at Tue Feb 25 12:22:05 2020, MaxMem=  6710886400 cpu:               3.0 elap:               0.2
 (Enter /opt/ohpc/pub/libs/gaussian/g16-A.03/haswell/g16/l9999.exe)

 Test job not archived.
 1\1\GINC-HASWELL008\SP\ULC-wHPBE\6-31G\C5H6\SMGO234\25-Feb-2020\0\\#P 
 uLC-wHPBE/6-31G iop(3/107=0281100000, 3/108=0281100000) scf=(conver=6,
 fermi,ndamp=35,noincfock,novaracc,vshift=500,xqc)\\H6 C5\\0,1\C,0,0.,0
 .897082,-0.935245\C,0,0.,1.134094,0.425375\C,0,0.,0.,1.243051\C,0,0.,-
 1.134094,0.425375\C,0,0.,-0.897082,-0.935245\H,0,0.,0.,-1.723356\H,0,0
 .,1.622537,-1.745737\H,0,0.,2.164126,0.77433\H,0,0.,0.,2.326294\H,0,0.
 ,-2.164126,0.77433\H,0,0.,-1.622537,-1.745737\\Version=ES64L-G16RevA.0
 3\State=1-A1\HF=-193.7418578\S2=0.\S2-1=0.\S2A=0.\RMSD=6.434e-07\Dipol
 e=0.,0.,-0.7640655\Quadrupole=-5.202483,1.8838056,3.3186774,0.,0.,0.\P
 G=C02V [C2(H1C1H1),SGV(C4H4)]\\@


 WHERE THERE IS MUCH DESIRE TO LEARN, THERE OF NECESSITY WILL BE
 MUCH ARGUING, MUCH WRITING, MANY OPINIONS; FOR OPINION IN GOOD MEN
 IS BUT KNOWLEDGE IN THE MAKING. -- JOHN MILTON.
 Job cpu time:       0 days  0 hours  0 minutes 45.4 seconds.
 Elapsed time:       0 days  0 hours  0 minutes  3.2 seconds.
 File lengths (MBytes):  RWF=    272 Int=      0 D2E=      0 Chk=     32 Scr=     32
 Normal termination of Gaussian 16 at Tue Feb 25 12:22:05 2020.
