 Entering Gaussian System, Link 0=g16
 Input=1b_tune_c0.gjf
 Output=1b_tune_c0.log
 Initial command:
 /opt/ohpc/pub/libs/gaussian/g16-A.03/sandybridge/g16/l1.exe "/pscratch/cmri235_uksr/ocelot/fw/dev/ocelot_api/tests/wtuning_test/1b/tuning_1b_ocycle1/Gau-63476.inp" -scrdir="/pscratch/cmri235_uksr/ocelot/fw/dev/ocelot_api/tests/wtuning_test/1b/tuning_1b_ocycle1/"
 Entering Link 1 = /opt/ohpc/pub/libs/gaussian/g16-A.03/sandybridge/g16/l1.exe PID=     63477.
  
 Copyright (c) 1988,1990,1992,1993,1995,1998,2003,2009,2016,
            Gaussian, Inc.  All Rights Reserved.
  
 This is part of the Gaussian(R) 16 program.  It is based on
 the Gaussian(R) 09 system (copyright 2009, Gaussian, Inc.),
 the Gaussian(R) 03 system (copyright 2003, Gaussian, Inc.),
 the Gaussian(R) 98 system (copyright 1998, Gaussian, Inc.),
 the Gaussian(R) 94 system (copyright 1995, Gaussian, Inc.),
 the Gaussian 92(TM) system (copyright 1992, Gaussian, Inc.),
 the Gaussian 90(TM) system (copyright 1990, Gaussian, Inc.),
 the Gaussian 88(TM) system (copyright 1988, Gaussian, Inc.),
 the Gaussian 86(TM) system (copyright 1986, Carnegie Mellon
 University), and the Gaussian 82(TM) system (copyright 1983,
 Carnegie Mellon University). Gaussian is a federally registered
 trademark of Gaussian, Inc.
  
 This software contains proprietary and confidential information,
 including trade secrets, belonging to Gaussian, Inc.
  
 This software is provided under written license and may be
 used, copied, transmitted, or stored only in accord with that
 written license.
  
 The following legend is applicable only to US Government
 contracts under FAR:
  
                    RESTRICTED RIGHTS LEGEND
  
 Use, reproduction and disclosure by the US Government is
 subject to restrictions as set forth in subparagraphs (a)
 and (c) of the Commercial Computer Software - Restricted
 Rights clause in FAR 52.227-19.
  
 Gaussian, Inc.
 340 Quinnipiac St., Bldg. 40, Wallingford CT 06492
  
  
 ---------------------------------------------------------------
 Warning -- This program may not be used in any manner that
 competes with the business of Gaussian, Inc. or will provide
 assistance to any competitor of Gaussian, Inc.  The licensee
 of this program is prohibited from giving any competitor of
 Gaussian, Inc. access to this program.  By using this program,
 the user acknowledges that Gaussian, Inc. is engaged in the
 business of creating and licensing software in the field of
 computational chemistry and represents and warrants to the
 licensee that it is not a competitor of Gaussian, Inc. and that
 it will not use this program in any manner prohibited above.
 ---------------------------------------------------------------
  

 Cite this work as:
 Gaussian 16, Revision A.03,
 M. J. Frisch, G. W. Trucks, H. B. Schlegel, G. E. Scuseria, 
 M. A. Robb, J. R. Cheeseman, G. Scalmani, V. Barone, 
 G. A. Petersson, H. Nakatsuji, X. Li, M. Caricato, A. V. Marenich, 
 J. Bloino, B. G. Janesko, R. Gomperts, B. Mennucci, H. P. Hratchian, 
 J. V. Ortiz, A. F. Izmaylov, J. L. Sonnenberg, D. Williams-Young, 
 F. Ding, F. Lipparini, F. Egidi, J. Goings, B. Peng, A. Petrone, 
 T. Henderson, D. Ranasinghe, V. G. Zakrzewski, J. Gao, N. Rega, 
 G. Zheng, W. Liang, M. Hada, M. Ehara, K. Toyota, R. Fukuda, 
 J. Hasegawa, M. Ishida, T. Nakajima, Y. Honda, O. Kitao, H. Nakai, 
 T. Vreven, K. Throssell, J. A. Montgomery, Jr., J. E. Peralta, 
 F. Ogliaro, M. J. Bearpark, J. J. Heyd, E. N. Brothers, K. N. Kudin, 
 V. N. Staroverov, T. A. Keith, R. Kobayashi, J. Normand, 
 K. Raghavachari, A. P. Rendell, J. C. Burant, S. S. Iyengar, 
 J. Tomasi, M. Cossi, J. M. Millam, M. Klene, C. Adamo, R. Cammi, 
 J. W. Ochterski, R. L. Martin, K. Morokuma, O. Farkas, 
 J. B. Foresman, and D. J. Fox, Gaussian, Inc., Wallingford CT, 2016.
 
 ******************************************
 Gaussian 16:  EM64L-G16RevA.03 25-Dec-2016
                16-Mar-2020 
 ******************************************
 %mem=50GB
 %nproc=16
 Will use up to   16 processors via shared memory.
 ----------------------------------------------------------------------
 #P uLC-wHPBE/6-31G iop(3/107=0266800000, 3/108=0266800000) scf=(conver
 =6,fermi,ndamp=35,noincfock,novaracc,vshift=500,xqc)
 ----------------------------------------------------------------------
 1/38=1,172=1/1;
 2/12=2,17=6,18=5,40=1/2;
 3/5=1,6=6,11=2,25=1,30=1,74=-71,107=266800000,108=266800000,116=2/1,2,3;
 4//1;
 5/5=100002,6=6,8=3,10=500,13=1,18=-1,22=13,38=1,93=35/2,8;
 6/7=2,8=2,9=2,10=2,28=1/1;
 99/5=1,9=1/99;
 Leave Link    1 at Mon Mar 16 03:50:29 2020, MaxMem=  6710886400 cpu:              16.3 elap:               1.1
 (Enter /opt/ohpc/pub/libs/gaussian/g16-A.03/sandybridge/g16/l101.exe)
 -----
 H6 C6
 -----
 Symbolic Z-matrix:
 Charge =  1 Multiplicity = 2
 C                     0.        1.39638   0. 
 C                    -1.2093    0.69819   0. 
 C                    -1.2093   -0.69819   0. 
 C                     0.       -1.39638   0. 
 C                     1.2093   -0.69819   0. 
 C                     1.2093    0.69819   0. 
 H                     0.        2.48461   0. 
 H                    -2.15174   1.24231   0. 
 H                    -2.15174  -1.24231   0. 
 H                     0.       -2.48461   0. 
 H                     2.15174  -1.24231   0. 
 H                     2.15174   1.24231   0. 
 
 ITRead=  0  0  0  0  0  0  0  0  0  0  0  0
 MicOpt= -1 -1 -1 -1 -1 -1 -1 -1 -1 -1 -1 -1
 NAtoms=     12 NQM=       12 NQMF=       0 NMMI=      0 NMMIF=      0
                NMic=       0 NMicF=      0.
                    Isotopes and Nuclear Properties:
 (Nuclear quadrupole moments (NQMom) in fm**2, nuclear magnetic moments (NMagM)
  in nuclear magnetons)

  Atom         1           2           3           4           5           6           7           8           9          10
 IAtWgt=          12          12          12          12          12          12           1           1           1           1
 AtmWgt=  12.0000000  12.0000000  12.0000000  12.0000000  12.0000000  12.0000000   1.0078250   1.0078250   1.0078250   1.0078250
 NucSpn=           0           0           0           0           0           0           1           1           1           1
 AtZEff=  -0.0000000  -0.0000000  -0.0000000  -0.0000000  -0.0000000  -0.0000000  -0.0000000  -0.0000000  -0.0000000  -0.0000000
 NQMom=    0.0000000   0.0000000   0.0000000   0.0000000   0.0000000   0.0000000   0.0000000   0.0000000   0.0000000   0.0000000
 NMagM=    0.0000000   0.0000000   0.0000000   0.0000000   0.0000000   0.0000000   2.7928460   2.7928460   2.7928460   2.7928460
 AtZNuc=   6.0000000   6.0000000   6.0000000   6.0000000   6.0000000   6.0000000   1.0000000   1.0000000   1.0000000   1.0000000

  Atom        11          12
 IAtWgt=           1           1
 AtmWgt=   1.0078250   1.0078250
 NucSpn=           1           1
 AtZEff=  -0.0000000  -0.0000000
 NQMom=    0.0000000   0.0000000
 NMagM=    2.7928460   2.7928460
 AtZNuc=   1.0000000   1.0000000
 Leave Link  101 at Mon Mar 16 03:50:29 2020, MaxMem=  6710886400 cpu:               3.0 elap:               0.2
 (Enter /opt/ohpc/pub/libs/gaussian/g16-A.03/sandybridge/g16/l202.exe)
                          Input orientation:                          
 ---------------------------------------------------------------------
 Center     Atomic      Atomic             Coordinates (Angstroms)
 Number     Number       Type             X           Y           Z
 ---------------------------------------------------------------------
      1          6           0        0.000000    1.396379    0.000000
      2          6           0       -1.209300    0.698190    0.000000
      3          6           0       -1.209300   -0.698190    0.000000
      4          6           0        0.000000   -1.396379    0.000000
      5          6           0        1.209300   -0.698190    0.000000
      6          6           0        1.209300    0.698190    0.000000
      7          1           0        0.000000    2.484613    0.000000
      8          1           0       -2.151738    1.242306    0.000000
      9          1           0       -2.151738   -1.242306    0.000000
     10          1           0        0.000000   -2.484613    0.000000
     11          1           0        2.151738   -1.242306    0.000000
     12          1           0        2.151738    1.242306    0.000000
 ---------------------------------------------------------------------
                    Distance matrix (angstroms):
                    1          2          3          4          5
     1  C    0.000000
     2  C    1.396379   0.000000
     3  C    2.418600   1.396380   0.000000
     4  C    2.792758   2.418600   1.396379   0.000000
     5  C    2.418600   2.792759   2.418600   1.396379   0.000000
     6  C    1.396379   2.418600   2.792759   2.418600   1.396380
     7  H    1.088234   2.157247   3.404797   3.880992   3.404797
     8  H    2.157247   1.088233   2.157247   3.404796   3.880992
     9  H    3.404796   2.157247   1.088233   2.157247   3.404796
    10  H    3.880992   3.404797   2.157247   1.088234   2.157247
    11  H    3.404796   3.880992   3.404796   2.157247   1.088233
    12  H    2.157247   3.404796   3.880992   3.404796   2.157247
                    6          7          8          9         10
     6  C    0.000000
     7  H    2.157247   0.000000
     8  H    3.404796   2.484613   0.000000
     9  H    3.880992   4.303476   2.484612   0.000000
    10  H    3.404797   4.969226   4.303476   2.484613   0.000000
    11  H    2.157247   4.303476   4.969226   4.303476   2.484613
    12  H    1.088233   2.484613   4.303476   4.969226   4.303476
                   11         12
    11  H    0.000000
    12  H    2.484612   0.000000
 Stoichiometry    C6H6(1+,2)
 Framework group  D6H[3C2'(HC.CH)]
 Deg. of freedom     2
 Full point group                 D6H     NOp  24
 Largest Abelian subgroup         D2H     NOp   8
 Largest concise Abelian subgroup D2      NOp   4
                         Standard orientation:                         
 ---------------------------------------------------------------------
 Center     Atomic      Atomic             Coordinates (Angstroms)
 Number     Number       Type             X           Y           Z
 ---------------------------------------------------------------------
      1          6           0       -0.000000    1.396379   -0.000000
      2          6           0       -1.209300    0.698190   -0.000000
      3          6           0       -1.209300   -0.698189   -0.000000
      4          6           0       -0.000000   -1.396379   -0.000000
      5          6           0        1.209300   -0.698190   -0.000000
      6          6           0        1.209300    0.698189   -0.000000
      7          1           0       -0.000000    2.484613   -0.000000
      8          1           0       -2.151738    1.242307   -0.000000
      9          1           0       -2.151738   -1.242307   -0.000000
     10          1           0       -0.000000   -2.484613   -0.000000
     11          1           0        2.151738   -1.242307   -0.000000
     12          1           0        2.151738    1.242306   -0.000000
 ---------------------------------------------------------------------
 Rotational constants (GHZ):           5.6873431           5.6873431           2.8436715
 Leave Link  202 at Mon Mar 16 03:50:29 2020, MaxMem=  6710886400 cpu:               0.3 elap:               0.0
 (Enter /opt/ohpc/pub/libs/gaussian/g16-A.03/sandybridge/g16/l301.exe)
 Standard basis: 6-31G (6D, 7F)
 Ernie: Thresh=  0.10000D-02 Tol=  0.10000D-05 Strict=F.
 There are    16 symmetry adapted cartesian basis functions of AG  symmetry.
 There are    11 symmetry adapted cartesian basis functions of B1G symmetry.
 There are     2 symmetry adapted cartesian basis functions of B2G symmetry.
 There are     4 symmetry adapted cartesian basis functions of B3G symmetry.
 There are     2 symmetry adapted cartesian basis functions of AU  symmetry.
 There are     4 symmetry adapted cartesian basis functions of B1U symmetry.
 There are    16 symmetry adapted cartesian basis functions of B2U symmetry.
 There are    11 symmetry adapted cartesian basis functions of B3U symmetry.
 There are    16 symmetry adapted basis functions of AG  symmetry.
 There are    11 symmetry adapted basis functions of B1G symmetry.
 There are     2 symmetry adapted basis functions of B2G symmetry.
 There are     4 symmetry adapted basis functions of B3G symmetry.
 There are     2 symmetry adapted basis functions of AU  symmetry.
 There are     4 symmetry adapted basis functions of B1U symmetry.
 There are    16 symmetry adapted basis functions of B2U symmetry.
 There are    11 symmetry adapted basis functions of B3U symmetry.
    66 basis functions,   156 primitive gaussians,    66 cartesian basis functions
    21 alpha electrons       20 beta electrons
       nuclear repulsion energy       203.1815835396 Hartrees.
 IExCor=33909 DFT=T Ex+Corr=LC-wHPBE ExCW=0 ScaHFX=  1.000000
 ScaDFX=  1.000000  1.000000  1.000000  1.000000 ScalE2=  1.000000  1.000000
 IRadAn=      5 IRanWt=     -1 IRanGd=            0 ICorTp=0 IEmpDi=  4
 HFx  wShort=  0.000000 wLong=  0.266800 cFull=  0.000000 cShort=  0.000000 cLong=  1.000000
 DFx  wShort=  0.000000 wLong=  0.266800 cFull=  0.000000 cShort=  1.000000 cLong=  0.000000
 NAtoms=   12 NActive=   12 NUniq=    2 SFac= 4.00D+00 NAtFMM=   60 NAOKFM=F Big=F
 Integral buffers will be    131072 words long.
 Raffenetti 2 integral format.
 Two-electron integral symmetry is turned on.
 Leave Link  301 at Mon Mar 16 03:50:29 2020, MaxMem=  6710886400 cpu:               1.1 elap:               0.1
 (Enter /opt/ohpc/pub/libs/gaussian/g16-A.03/sandybridge/g16/l302.exe)
 NPDir=0 NMtPBC=     1 NCelOv=     1 NCel=       1 NClECP=     1 NCelD=      1
         NCelK=      1 NCelE2=     1 NClLst=     1 CellRange=     0.0.
 One-electron integrals computed using PRISM.
 One-electron integral symmetry used in STVInt
 NBasis=    66 RedAO= T EigKep=  7.02D-04  NBF=    16    11     2     4     2     4    16    11
 NBsUse=    66 1.00D-06 EigRej= -1.00D+00 NBFU=    16    11     2     4     2     4    16    11
 Precomputing XC quadrature grid using
 IXCGrd= 4 IRadAn=           5 IRanWt=          -1 IRanGd=           0 AccXCQ= 0.00D+00.
 Generated NRdTot=       0 NPtTot=           0 NUsed=           0 NTot=          32
 NSgBfM=    66    66    66    66    66 MxSgAt=    12 MxSgA2=    12.
 Leave Link  302 at Mon Mar 16 03:50:29 2020, MaxMem=  6710886400 cpu:               2.3 elap:               0.2
 (Enter /opt/ohpc/pub/libs/gaussian/g16-A.03/sandybridge/g16/l303.exe)
 DipDrv:  MaxL=1.
 Leave Link  303 at Mon Mar 16 03:50:29 2020, MaxMem=  6710886400 cpu:               0.5 elap:               0.0
 (Enter /opt/ohpc/pub/libs/gaussian/g16-A.03/sandybridge/g16/l401.exe)
 ExpMin= 1.61D-01 ExpMax= 3.05D+03 ExpMxC= 4.57D+02 IAcc=3 IRadAn=         5 AccDes= 0.00D+00
 Harris functional with IExCor=33909 and IRadAn=       5 diagonalized for initial guess.
 HarFok:  IExCor=33909 AccDes= 0.00D+00 IRadAn=         5 IDoV= 1 UseB2=F ITyADJ=14
 ICtDFT=  3500011 ScaDFX=  1.000000  1.000000  1.000000  1.000000
 FoFCou: FMM=F IPFlag=           0 FMFlag=      100000 FMFlg1=           0
         NFxFlg=           0 DoJE=T BraDBF=F KetDBF=T FulRan=T
         wScrn=  0.000000 ICntrl=       500 IOpCl=  0 I1Cent=   200000004 NGrid=           0
         NMat0=    1 NMatS0=      1 NMatT0=    0 NMatD0=    1 NMtDS0=    0 NMtDT0=    0
 Petite list used in FoFCou.
 Harris En= -225.975450003944    
 JPrj=0 DoOrth=F DoCkMO=F.
 Initial guess orbital symmetries:
 Alpha Orbitals:
       Occupied  (A1G) (E1U) (E1U) (E2G) (E2G) (B1U) (A1G) (E1U)
                 (E1U) (E2G) (E2G) (A1G) (B2U) (B1U) (E1U) (E1U)
                 (A2U) (E2G) (E2G) (E1G) (E1G)
       Virtual   (E2U) (E2U) (A1G) (B2G) (E1U) (E1U) (E2G) (E2G)
                 (B1U) (E2G) (E2G) (E1U) (E1U) (B2U) (A2U) (B1U)
                 (A2G) (A1G) (E2G) (E2G) (E1G) (E1G) (A1G) (E1U)
                 (E1U) (E2U) (E2U) (B2G) (B1U) (E2G) (E2G) (E1U)
                 (E1U) (A2G) (A1G) (E1U) (E1U) (E2G) (E2G) (E1U)
                 (E1U) (B1U) (E2G) (E2G) (B1U)
 Beta  Orbitals:
       Occupied  (A1G) (E1U) (E1U) (E2G) (E2G) (B1U) (A1G) (E1U)
                 (E1U) (E2G) (E2G) (A1G) (B2U) (B1U) (E1U) (E1U)
                 (A2U) (E2G) (E2G) (E1G)
       Virtual   (E1G) (E2U) (E2U) (A1G) (B2G) (E1U) (E1U) (E2G)
                 (E2G) (B1U) (E2G) (E2G) (E1U) (E1U) (B2U) (A2U)
                 (B1U) (A2G) (A1G) (E2G) (E2G) (E1G) (E1G) (A1G)
                 (E1U) (E1U) (E2U) (E2U) (B2G) (B1U) (E2G) (E2G)
                 (E1U) (E1U) (A2G) (A1G) (E1U) (E1U) (E2G) (E2G)
                 (E1U) (E1U) (B1U) (E2G) (E2G) (B1U)
 Initial guess <Sx>= 0.0000 <Sy>= 0.0000 <Sz>= 0.5000 <S**2>= 0.7500 S= 0.5000
 Leave Link  401 at Mon Mar 16 03:50:30 2020, MaxMem=  6710886400 cpu:               2.9 elap:               0.2
 (Enter /opt/ohpc/pub/libs/gaussian/g16-A.03/sandybridge/g16/l502.exe)
 Keep R1 and R2 ints in memory in symmetry-blocked form, NReq=19109854.
 FoFCou: FMM=F IPFlag=           0 FMFlag=           0 FMFlg1=           0
         NFxFlg=           0 DoJE=F BraDBF=F KetDBF=F FulRan=T
         wScrn=  0.000000 ICntrl=       600 IOpCl=  0 I1Cent=           0 NGrid=           0
         NMat0=    1 NMatS0=   2211 NMatT0=    0 NMatD0=    1 NMtDS0=    0 NMtDT0=    0
 Petite list used in FoFCou.
 UHF open shell SCF:
 Using DIIS extrapolation, IDIIS=    10.
 NGot=  6710886400 LenX=  6710146038 LenY=  6710141241
 Requested convergence on RMS density matrix=1.00D-06 within  32 cycles.
 Requested convergence on MAX density matrix=1.00D-04.
 Requested convergence on             energy=1.00D-04.
 Virtual orbitals will be shifted by   0.500 hartree.
 No special actions if energy rises.
 Dynamic level shift is on during FON iterations.

 Cycle   1  Pass 1  IDiag  1:
 Density matrix breaks symmetry, PCut= 1.00D-04
 Density has only Abelian symmetry.
 E= -231.632576553277    
 DIIS: error= 1.89D-02 at cycle   1 NSaved=   1.
 NSaved= 1 IEnMin= 1 EnMin= -231.632576553277     IErMin= 1 ErrMin= 1.89D-02
 ErrMax= 1.89D-02  0.00D+00 EMaxC= 1.00D+00 BMatC= 8.22D-02 BMatP= 8.22D-02
 IDIUse=1 WtCom= 1.00D+00 WtEn= 0.00D+00
 Coeff-Com:  0.100D+01
 Coeff:      0.100D+01
 Gap=     0.368 Goal=   None    Shift=    0.500
 T= 1220. Gap= 0.869 NK=0 IS=   22 IE=   66 IFin=   21
          NO(<0.9)=   0  NV(>0.1)=   0     21.00e < EF      0.00e >EF  Err=0.0D+00
 Gap=     0.182 Goal=   None    Shift=    0.500
 T= 1220. Gap= 0.682 NK=0 IS=   21 IE=   66 IFin=   20
          NO(<0.9)=   0  NV(>0.1)=   0     20.00e < EF      0.00e >EF  Err=0.0D+00
 GapD=    0.182 DampG=1.000 DampE=0.500 DampFc=0.5000 IDamp=-1.
 Damping current iteration by 5.00D-01
 RMSDP=3.19D-03 MaxDP=3.19D-02              OVMax= 3.75D-02

 Cycle   2  Pass 1  IDiag  1:
 Density matrix breaks symmetry, PCut= 1.00D-04
 Density has only Abelian symmetry.
 E= -231.646075276089     Delta-E=       -0.013498722812 Rises=F Damp=T
 DIIS: error= 9.67D-03 at cycle   2 NSaved=   2.
 NSaved= 2 IEnMin= 2 EnMin= -231.646075276089     IErMin= 2 ErrMin= 9.67D-03
 ErrMax= 9.67D-03  0.00D+00 EMaxC= 1.00D+00 BMatC= 1.89D-02 BMatP= 8.22D-02
 IDIUse=1 WtCom= 1.00D+00 WtEn= 0.00D+00
 Coeff-Com: -0.792D+00 0.179D+01
 Coeff:     -0.792D+00 0.179D+01
 Gap=     0.389 Goal=   None    Shift=    0.500
 T= 1113. Gap= 0.888 NK=0 IS=   22 IE=   66 IFin=   21
          NO(<0.9)=   0  NV(>0.1)=   0     21.00e < EF      0.00e >EF  Err=0.0D+00
 Gap=     0.207 Goal=   None    Shift=    0.500
 T= 1113. Gap= 0.707 NK=0 IS=   21 IE=   66 IFin=   20
          NO(<0.9)=   0  NV(>0.1)=   0     20.00e < EF      0.00e >EF  Err=0.0D+00
 GapD=    0.207 DampG=1.000 DampE=1.000 DampFc=1.0000 IDamp=-1.
 RMSDP=2.12D-03 MaxDP=1.85D-02 DE=-1.35D-02 OVMax= 1.46D-02

 Cycle   3  Pass 1  IDiag  1:
 Density matrix breaks symmetry, PCut= 1.00D-04
 Density has only Abelian symmetry.
 E= -231.656472952137     Delta-E=       -0.010397676047 Rises=F Damp=F
 DIIS: error= 4.45D-03 at cycle   3 NSaved=   3.
 NSaved= 3 IEnMin= 3 EnMin= -231.656472952137     IErMin= 3 ErrMin= 4.45D-03
 ErrMax= 4.45D-03  0.00D+00 EMaxC= 1.00D+00 BMatC= 6.40D-04 BMatP= 1.89D-02
 IDIUse=1 WtCom= 1.00D+00 WtEn= 0.00D+00
 Coeff-Com:  0.120D+00-0.245D+00 0.113D+01
 Coeff:      0.120D+00-0.245D+00 0.113D+01
 Gap=     0.383 Goal=   None    Shift=    0.500
 T=  895. Gap= 0.883 NK=0 IS=   22 IE=   66 IFin=   21
          NO(<0.9)=   0  NV(>0.1)=   0     21.00e < EF      0.00e >EF  Err=0.0D+00
 Gap=     0.206 Goal=   None    Shift=    0.500
 T=  895. Gap= 0.706 NK=0 IS=   21 IE=   66 IFin=   20
          NO(<0.9)=   0  NV(>0.1)=   0     20.00e < EF      0.00e >EF  Err=0.0D+00
 GapD=    0.206 DampG=1.000 DampE=1.000 DampFc=1.0000 IDamp=-1.
 RMSDP=3.24D-04 MaxDP=3.23D-03 DE=-1.04D-02 OVMax= 8.98D-03

 Cycle   4  Pass 1  IDiag  1:
 Density matrix breaks symmetry, PCut= 1.00D-04
 Density has only Abelian symmetry.
 E= -231.656929458034     Delta-E=       -0.000456505897 Rises=F Damp=F
 DIIS: error= 3.64D-03 at cycle   4 NSaved=   4.
 NSaved= 4 IEnMin= 4 EnMin= -231.656929458034     IErMin= 4 ErrMin= 3.64D-03
 ErrMax= 3.64D-03  0.00D+00 EMaxC= 1.00D+00 BMatC= 2.97D-04 BMatP= 6.40D-04
 IDIUse=1 WtCom= 1.00D+00 WtEn= 0.00D+00
 Coeff-Com:  0.112D+00-0.253D+00-0.461D+00 0.160D+01
 Coeff:      0.112D+00-0.253D+00-0.461D+00 0.160D+01
 Gap=     0.382 Goal=   None    Shift=    0.500
 T=  522. Gap= 0.882 NK=0 IS=   22 IE=   66 IFin=   21
          NO(<0.9)=   0  NV(>0.1)=   0     21.00e < EF      0.00e >EF  Err=0.0D+00
 Gap=     0.210 Goal=   None    Shift=    0.500
 T=  522. Gap= 0.710 NK=0 IS=   21 IE=   66 IFin=   20
          NO(<0.9)=   0  NV(>0.1)=   0     20.00e < EF      0.00e >EF  Err=0.0D+00
 GapD=    0.210 DampG=1.000 DampE=1.000 DampFc=1.0000 IDamp=-1.
 RMSDP=2.30D-04 MaxDP=2.89D-03 DE=-4.57D-04 OVMax= 9.31D-03

 Cycle   5  Pass 1  IDiag  1:
 Density matrix breaks symmetry, PCut= 1.00D-04
 Density has only Abelian symmetry.
 E= -231.657216860389     Delta-E=       -0.000287402355 Rises=F Damp=F
 DIIS: error= 2.32D-03 at cycle   5 NSaved=   5.
 NSaved= 5 IEnMin= 5 EnMin= -231.657216860389     IErMin= 5 ErrMin= 2.32D-03
 ErrMax= 2.32D-03  0.00D+00 EMaxC= 1.00D+00 BMatC= 1.30D-04 BMatP= 2.97D-04
 IDIUse=1 WtCom= 1.00D+00 WtEn= 0.00D+00
 Coeff-Com: -0.122D+00 0.252D+00-0.480D+00-0.118D+01 0.253D+01
 Coeff:     -0.122D+00 0.252D+00-0.480D+00-0.118D+01 0.253D+01
 Gap=     0.380 Goal=   None    Shift=    0.500
 T=  202. Gap= 0.880 NK=0 IS=   22 IE=   66 IFin=   21
          NO(<0.9)=   0  NV(>0.1)=   0     21.00e < EF      0.00e >EF  Err=0.0D+00
 Gap=     0.212 Goal=   None    Shift=    0.500
 T=  202. Gap= 0.712 NK=0 IS=   21 IE=   66 IFin=   20
          NO(<0.9)=   0  NV(>0.1)=   0     20.00e < EF      0.00e >EF  Err=0.0D+00
 GapD=    0.212 DampG=1.000 DampE=1.000 DampFc=1.0000 IDamp=-1.
 RMSDP=2.15D-04 MaxDP=3.18D-03 DE=-2.87D-04 OVMax= 9.03D-03

 Cycle   6  Pass 1  IDiag  1:
 Density matrix breaks symmetry, PCut= 1.00D-04
 Density has only Abelian symmetry.
 E= -231.657398533077     Delta-E=       -0.000181672688 Rises=F Damp=F
 DIIS: error= 1.28D-03 at cycle   6 NSaved=   6.
 NSaved= 6 IEnMin= 6 EnMin= -231.657398533077     IErMin= 6 ErrMin= 1.28D-03
 ErrMax= 1.28D-03  0.00D+00 EMaxC= 1.00D+00 BMatC= 3.70D-05 BMatP= 1.30D-04
 IDIUse=1 WtCom= 1.00D+00 WtEn= 0.00D+00
 Coeff-Com:  0.109D-01-0.225D-01 0.142D+00 0.386D-01-0.145D+01 0.228D+01
 Coeff:      0.109D-01-0.225D-01 0.142D+00 0.386D-01-0.145D+01 0.228D+01
 Gap=     0.380 Goal=   None    Shift=    0.500
 Gap=     0.212 Goal=   None    Shift=    0.500
 GapD=    0.212 DampG=1.000 DampE=1.000 DampFc=1.0000 IDamp=-1.
 RMSDP=1.14D-04 MaxDP=1.88D-03 DE=-1.82D-04 OVMax= 5.18D-03

 Cycle   7  Pass 1  IDiag  1:
 Density matrix breaks symmetry, PCut= 1.00D-04
 Density has only Abelian symmetry.
 E= -231.657453076189     Delta-E=       -0.000054543112 Rises=F Damp=F
 DIIS: error= 6.82D-04 at cycle   7 NSaved=   7.
 NSaved= 7 IEnMin= 7 EnMin= -231.657453076189     IErMin= 7 ErrMin= 6.82D-04
 ErrMax= 6.82D-04  0.00D+00 EMaxC= 1.00D+00 BMatC= 1.06D-05 BMatP= 3.70D-05
 IDIUse=1 WtCom= 1.00D+00 WtEn= 0.00D+00
 Coeff-Com: -0.197D-01 0.413D-01-0.165D+00-0.146D+00 0.169D+01-0.414D+01
 Coeff-Com:  0.374D+01
 Coeff:     -0.197D-01 0.413D-01-0.165D+00-0.146D+00 0.169D+01-0.414D+01
 Coeff:      0.374D+01
 Gap=     0.379 Goal=   None    Shift=    0.500
 Gap=     0.213 Goal=   None    Shift=    0.500
 RMSDP=6.04D-05 MaxDP=1.01D-03 DE=-5.45D-05 OVMax= 2.88D-03

 Cycle   8  Pass 1  IDiag  1:
 Density matrix breaks symmetry, PCut= 1.00D-04
 Density has only Abelian symmetry.
 E= -231.657468417351     Delta-E=       -0.000015341162 Rises=F Damp=F
 DIIS: error= 3.52D-04 at cycle   8 NSaved=   8.
 NSaved= 8 IEnMin= 8 EnMin= -231.657468417351     IErMin= 8 ErrMin= 3.52D-04
 ErrMax= 3.52D-04  0.00D+00 EMaxC= 1.00D+00 BMatC= 2.75D-06 BMatP= 1.06D-05
 IDIUse=1 WtCom= 1.00D+00 WtEn= 0.00D+00
 Coeff-Com:  0.385D-02-0.731D-02 0.325D-01-0.520D-02-0.433D+00 0.160D+01
 Coeff-Com: -0.315D+01 0.296D+01
 Coeff:      0.385D-02-0.731D-02 0.325D-01-0.520D-02-0.433D+00 0.160D+01
 Coeff:     -0.315D+01 0.296D+01
 Gap=     0.379 Goal=   None    Shift=    0.500
 Gap=     0.213 Goal=   None    Shift=    0.500
 RMSDP=2.95D-05 MaxDP=4.72D-04 DE=-1.53D-05 OVMax= 1.48D-03

 Cycle   9  Pass 1  IDiag  1:
 Density matrix breaks symmetry, PCut= 1.00D-04
 Density has only Abelian symmetry.
 E= -231.657472217935     Delta-E=       -0.000003800585 Rises=F Damp=F
 DIIS: error= 1.76D-04 at cycle   9 NSaved=   9.
 NSaved= 9 IEnMin= 9 EnMin= -231.657472217935     IErMin= 9 ErrMin= 1.76D-04
 ErrMax= 1.76D-04  0.00D+00 EMaxC= 1.00D+00 BMatC= 6.47D-07 BMatP= 2.75D-06
 IDIUse=1 WtCom= 1.00D+00 WtEn= 0.00D+00
 Coeff-Com: -0.365D-02 0.712D-02-0.216D-01-0.140D-01 0.283D+00-0.964D+00
 Coeff-Com:  0.190D+01-0.316D+01 0.298D+01
 Coeff:     -0.365D-02 0.712D-02-0.216D-01-0.140D-01 0.283D+00-0.964D+00
 Coeff:      0.190D+01-0.316D+01 0.298D+01
 Gap=     0.379 Goal=   None    Shift=    0.500
 Gap=     0.213 Goal=   None    Shift=    0.500
 RMSDP=1.39D-05 MaxDP=2.19D-04 DE=-3.80D-06 OVMax= 7.35D-04

 Cycle  10  Pass 1  IDiag  1:
 Density matrix breaks symmetry, PCut= 1.00D-04
 Density has only Abelian symmetry.
 E= -231.657473105658     Delta-E=       -0.000000887723 Rises=F Damp=F
 DIIS: error= 8.87D-05 at cycle  10 NSaved=  10.
 NSaved=10 IEnMin=10 EnMin= -231.657473105658     IErMin=10 ErrMin= 8.87D-05
 ErrMax= 8.87D-05  0.00D+00 EMaxC= 1.00D+00 BMatC= 1.49D-07 BMatP= 6.47D-07
 IDIUse=1 WtCom= 1.00D+00 WtEn= 0.00D+00
 Coeff-Com:  0.671D-03-0.112D-02 0.254D-02-0.457D-02-0.311D-01 0.157D+00
 Coeff-Com: -0.408D+00 0.931D+00-0.219D+01 0.255D+01
 Coeff:      0.671D-03-0.112D-02 0.254D-02-0.457D-02-0.311D-01 0.157D+00
 Coeff:     -0.408D+00 0.931D+00-0.219D+01 0.255D+01
 Gap=     0.379 Goal=   None    Shift=    0.500
 Gap=     0.213 Goal=   None    Shift=    0.500
 RMSDP=6.60D-06 MaxDP=1.05D-04 DE=-8.88D-07 OVMax= 3.63D-04

 Cycle  11  Pass 1  IDiag  1:
 Density matrix breaks symmetry, PCut= 1.00D-04
 Density has only Abelian symmetry.
 E= -231.657473309019     Delta-E=       -0.000000203361 Rises=F Damp=F
 DIIS: error= 4.41D-05 at cycle  11 NSaved=  11.
 NSaved=11 IEnMin=11 EnMin= -231.657473309019     IErMin=11 ErrMin= 4.41D-05
 ErrMax= 4.41D-05  0.00D+00 EMaxC= 1.00D+00 BMatC= 3.38D-08 BMatP= 1.49D-07
 IDIUse=1 WtCom= 1.00D+00 WtEn= 0.00D+00
 Coeff-Com:  0.636D-04-0.159D-03 0.107D-02 0.120D-02-0.187D-01 0.595D-01
 Coeff-Com: -0.104D+00 0.475D-01 0.416D+00-0.186D+01 0.246D+01
 Coeff:      0.636D-04-0.159D-03 0.107D-02 0.120D-02-0.187D-01 0.595D-01
 Coeff:     -0.104D+00 0.475D-01 0.416D+00-0.186D+01 0.246D+01
 Gap=     0.379 Goal=   None    Shift=    0.500
 Gap=     0.213 Goal=   None    Shift=    0.500
 RMSDP=3.12D-06 MaxDP=4.96D-05 DE=-2.03D-07 OVMax= 1.78D-04

 Cycle  12  Pass 1  IDiag  1:
 Density matrix breaks symmetry, PCut= 1.00D-04
 Density has only Abelian symmetry.
 E= -231.657473355171     Delta-E=       -0.000000046153 Rises=F Damp=F
 DIIS: error= 2.22D-05 at cycle  12 NSaved=  12.
 NSaved=12 IEnMin=12 EnMin= -231.657473355171     IErMin=12 ErrMin= 2.22D-05
 ErrMax= 2.22D-05  0.00D+00 EMaxC= 1.00D+00 BMatC= 7.75D-09 BMatP= 3.38D-08
 IDIUse=1 WtCom= 1.00D+00 WtEn= 0.00D+00
 Coeff-Com: -0.254D-03 0.513D-03-0.142D-02-0.209D-02 0.235D-01-0.770D-01
 Coeff-Com:  0.156D+00-0.239D+00 0.161D+00 0.661D+00-0.271D+01 0.303D+01
 Coeff:     -0.254D-03 0.513D-03-0.142D-02-0.209D-02 0.235D-01-0.770D-01
 Coeff:      0.156D+00-0.239D+00 0.161D+00 0.661D+00-0.271D+01 0.303D+01
 Gap=     0.379 Goal=   None    Shift=    0.500
 Gap=     0.213 Goal=   None    Shift=    0.500
 RMSDP=1.46D-06 MaxDP=2.33D-05 DE=-4.62D-08 OVMax= 8.82D-05

 Cycle  13  Pass 1  IDiag  1:
 Density matrix breaks symmetry, PCut= 1.00D-04
 Density has only Abelian symmetry.
 E= -231.657473365724     Delta-E=       -0.000000010553 Rises=F Damp=F
 DIIS: error= 1.11D-05 at cycle  13 NSaved=  13.
 NSaved=13 IEnMin=13 EnMin= -231.657473365724     IErMin=13 ErrMin= 1.11D-05
 ErrMax= 1.11D-05  0.00D+00 EMaxC= 1.00D+00 BMatC= 1.79D-09 BMatP= 7.75D-09
 IDIUse=1 WtCom= 1.00D+00 WtEn= 0.00D+00
 Coeff-Com:  0.132D-03-0.257D-03 0.719D-03 0.531D-03-0.995D-02 0.335D-01
 Coeff-Com: -0.680D-01 0.105D+00-0.742D-01-0.306D+00 0.148D+01-0.337D+01
 Coeff-Com:  0.320D+01
 Coeff:      0.132D-03-0.257D-03 0.719D-03 0.531D-03-0.995D-02 0.335D-01
 Coeff:     -0.680D-01 0.105D+00-0.742D-01-0.306D+00 0.148D+01-0.337D+01
 Coeff:      0.320D+01
 Gap=     0.379 Goal=   None    Shift=    0.500
 Gap=     0.213 Goal=   None    Shift=    0.500
 RMSDP=6.87D-07 MaxDP=1.10D-05 DE=-1.06D-08 OVMax= 4.34D-05

 Density matrix breaks symmetry, PCut= 1.00D-04
 Density has only Abelian symmetry.
 SCF Done:  E(ULC-wHPBE) =  -231.657473366     A.U. after   13 cycles
            NFock= 13  Conv=0.69D-06     -V/T= 2.0046
 <Sx>= 0.0000 <Sy>= 0.0000 <Sz>= 0.5000 <S**2>= 0.7707 S= 0.5103
 <L.S>= 0.000000000000E+00
 KE= 2.305863320512D+02 PE=-9.341992028624D+02 EE= 2.687738139058D+02
 Annihilation of the first spin contaminant:
 S**2 before annihilation     0.7707,   after     0.7502
 Leave Link  502 at Mon Mar 16 03:50:31 2020, MaxMem=  6710886400 cpu:              17.2 elap:               1.1
 (Enter /opt/ohpc/pub/libs/gaussian/g16-A.03/sandybridge/g16/l508.exe)
 QCSCF skips out because SCF is already converged.
 Leave Link  508 at Mon Mar 16 03:50:31 2020, MaxMem=  6710886400 cpu:               0.0 elap:               0.4
 (Enter /opt/ohpc/pub/libs/gaussian/g16-A.03/sandybridge/g16/l601.exe)
 Copying SCF densities to generalized density rwf, IOpCl= 1 IROHF=0.
 SCF density gives NOpUse=  8 NOpAll= 24.
 Marking SCF density as not fully symmetric.

 **********************************************************************

            Population analysis using the SCF density.

 **********************************************************************

 Orbital symmetries:
 Alpha Orbitals:
       Occupied  (?A) (?A) (?A) (?A) (?A) (?A) (?B) (?B) (?B) (?B)
                 (?B) (?B) (?B) (?B) (?B) (?B) (?C) (?B) (?B) (?C)
                 (?C)
       Virtual   (?C) (?C) (?B) (?C) (?B) (?B) (?B) (?B) (?B) (?B)
                 (?B) (?B) (?B) (?B) (?C) (?B) (?B) (?B) (?C) (?B)
                 (?C) (?B) (?B) (?C) (?B) (?B) (?C) (?C) (?B) (?B)
                 (?B) (?B) (?B) (?B) (?B) (?B) (?B) (?B) (?B) (?B)
                 (?B) (?B) (?B) (?B) (?B)
 Beta  Orbitals:
       Occupied  (?A) (?A) (?A) (?A) (?A) (?A) (?B) (B2G) (B2G)
                 (?B) (?B) (?B) (B2G) (B2G) (B2G) (B2G) (?C) (?B)
                 (?B) (?C)
       Virtual   (?C) (?C) (?C) (?D) (?C) (B2G) (B2G) (?D) (?D)
                 (B2G) (?D) (?D) (B2G) (B2G) (B2G) (A2U) (B2G)
                 (?D) (?D) (?C) (?C) (?D) (?D) (?D) (B2G) (B2G)
                 (E2U) (E2U) (?C) (?D) (?A) (?A) (?D) (?D) (?D)
                 (?A) (?D) (?D) (?D) (?D) (?D) (?D) (?D) (E2G)
                 (E2G) (B1U)
 Unable to determine electronic state:  an orbital has unidentified symmetry.
 Alpha  occ. eigenvalues --  -10.30503 -10.30500 -10.30479 -10.30475 -10.26875
 Alpha  occ. eigenvalues --  -10.26871  -1.18685  -1.08423  -1.05906  -0.92096
 Alpha  occ. eigenvalues --   -0.92084  -0.83909  -0.77229  -0.76208  -0.74251
 Alpha  occ. eigenvalues --   -0.72274  -0.71137  -0.65007  -0.64722  -0.60045
 Alpha  occ. eigenvalues --   -0.56364
 Alpha virt. eigenvalues --   -0.18431  -0.15227  -0.01622   0.00235   0.03490
 Alpha virt. eigenvalues --    0.04570   0.06833   0.07870   0.09362   0.16799
 Alpha virt. eigenvalues --    0.17298   0.17948   0.18503   0.36933   0.37479
 Alpha virt. eigenvalues --    0.39356   0.42189   0.42469   0.45573   0.47741
 Alpha virt. eigenvalues --    0.47743   0.48255   0.51314   0.51856   0.52393
 Alpha virt. eigenvalues --    0.52819   0.53755   0.61056   0.70830   0.72465
 Alpha virt. eigenvalues --    0.73786   0.76879   0.78475   0.84115   0.84138
 Alpha virt. eigenvalues --    0.86564   0.86590   0.98670   1.00209   1.04565
 Alpha virt. eigenvalues --    1.05487   1.09694   1.31961   1.32199   1.77304
  Beta  occ. eigenvalues --  -10.30043 -10.30043 -10.30023 -10.30018 -10.27057
  Beta  occ. eigenvalues --  -10.27053  -1.17605  -1.06322  -1.05676  -0.91569
  Beta  occ. eigenvalues --   -0.91170  -0.83608  -0.76754  -0.75767  -0.73728
  Beta  occ. eigenvalues --   -0.72277  -0.66806  -0.64786  -0.64430  -0.56061
  Beta virt. eigenvalues --   -0.34797  -0.13625  -0.13598  -0.01435   0.02431
  Beta virt. eigenvalues --    0.03753   0.04624   0.07643   0.08035   0.09689
  Beta virt. eigenvalues --    0.17395   0.17502   0.18440   0.18872   0.37280
  Beta virt. eigenvalues --    0.39000   0.40424   0.42560   0.42928   0.48151
  Beta virt. eigenvalues --    0.48153   0.48388   0.48798   0.51656   0.53111
  Beta virt. eigenvalues --    0.53493   0.53954   0.54157   0.62041   0.71118
  Beta virt. eigenvalues --    0.72802   0.73872   0.77530   0.78516   0.84335
  Beta virt. eigenvalues --    0.84376   0.86877   0.87524   1.00003   1.00524
  Beta virt. eigenvalues --    1.05455   1.05607   1.10211   1.32514   1.33042
  Beta virt. eigenvalues --    1.78121
          Condensed to atoms (all electrons):
               1          2          3          4          5          6
     1  C    4.908998   0.518349  -0.062306  -0.024143  -0.062306   0.518349
     2  C    0.518349   4.964635   0.412570  -0.062306  -0.024539  -0.048374
     3  C   -0.062306   0.412570   4.964635   0.518349  -0.048374  -0.024539
     4  C   -0.024143  -0.062306   0.518349   4.908998   0.518349  -0.062306
     5  C   -0.062306  -0.024539  -0.048374   0.518349   4.964635   0.412570
     6  C    0.518349  -0.048374  -0.024539  -0.062306   0.412570   4.964635
     7  H    0.371375  -0.025180   0.003453   0.000065   0.003453  -0.025180
     8  H   -0.021643   0.365783  -0.029254   0.003191   0.000068   0.003365
     9  H    0.003191  -0.029254   0.365783  -0.021643   0.003365   0.000068
    10  H    0.000065   0.003453  -0.025180   0.371375  -0.025180   0.003453
    11  H    0.003191   0.000068   0.003365  -0.021643   0.365783  -0.029254
    12  H   -0.021643   0.003365   0.000068   0.003191  -0.029254   0.365783
               7          8          9         10         11         12
     1  C    0.371375  -0.021643   0.003191   0.000065   0.003191  -0.021643
     2  C   -0.025180   0.365783  -0.029254   0.003453   0.000068   0.003365
     3  C    0.003453  -0.029254   0.365783  -0.025180   0.003365   0.000068
     4  C    0.000065   0.003191  -0.021643   0.371375  -0.021643   0.003191
     5  C    0.003453   0.000068   0.003365  -0.025180   0.365783  -0.029254
     6  C   -0.025180   0.003365   0.000068   0.003453  -0.029254   0.365783
     7  H    0.425351  -0.002874  -0.000074   0.000002  -0.000074  -0.002874
     8  H   -0.002874   0.416051  -0.002577  -0.000074   0.000005  -0.000070
     9  H   -0.000074  -0.002577   0.416051  -0.002874  -0.000070   0.000005
    10  H    0.000002  -0.000074  -0.002874   0.425351  -0.002874  -0.000074
    11  H   -0.000074   0.000005  -0.000070  -0.002874   0.416051  -0.002577
    12  H   -0.002874  -0.000070   0.000005  -0.000074  -0.002577   0.416051
          Atomic-Atomic Spin Densities.
               1          2          3          4          5          6
     1  C   -0.164901  -0.007390  -0.006768   0.005671  -0.006768  -0.007390
     2  C   -0.007390   0.346699   0.039146  -0.006768  -0.007302  -0.005872
     3  C   -0.006768   0.039146   0.346699  -0.007390  -0.005872  -0.007302
     4  C    0.005671  -0.006768  -0.007390  -0.164901  -0.007390  -0.006768
     5  C   -0.006768  -0.007302  -0.005872  -0.007390   0.346699   0.039146
     6  C   -0.007390  -0.005872  -0.007302  -0.006768   0.039146   0.346699
     7  H    0.001570  -0.000990   0.000165  -0.000059   0.000165  -0.000990
     8  H    0.000045   0.000654  -0.001791  -0.000001  -0.000058   0.000082
     9  H   -0.000001  -0.001791   0.000654   0.000045   0.000082  -0.000058
    10  H   -0.000059   0.000165  -0.000990   0.001570  -0.000990   0.000165
    11  H   -0.000001  -0.000058   0.000082   0.000045   0.000654  -0.001791
    12  H    0.000045   0.000082  -0.000058  -0.000001  -0.001791   0.000654
               7          8          9         10         11         12
     1  C    0.001570   0.000045  -0.000001  -0.000059  -0.000001   0.000045
     2  C   -0.000990   0.000654  -0.001791   0.000165  -0.000058   0.000082
     3  C    0.000165  -0.001791   0.000654  -0.000990   0.000082  -0.000058
     4  C   -0.000059  -0.000001   0.000045   0.001570   0.000045  -0.000001
     5  C    0.000165  -0.000058   0.000082  -0.000990   0.000654  -0.001791
     6  C   -0.000990   0.000082  -0.000058   0.000165  -0.001791   0.000654
     7  H    0.004469   0.000001   0.000004  -0.000001   0.000004   0.000001
     8  H    0.000001  -0.014672  -0.000039   0.000004  -0.000000   0.000005
     9  H    0.000004  -0.000039  -0.014672   0.000001   0.000005  -0.000000
    10  H   -0.000001   0.000004   0.000001   0.004469   0.000001   0.000004
    11  H    0.000004  -0.000000   0.000005   0.000001  -0.014672  -0.000039
    12  H    0.000001   0.000005  -0.000000   0.000004  -0.000039  -0.014672
 Mulliken charges and spin densities:
               1          2
     1  C   -0.131476  -0.185949
     2  C   -0.078571   0.356575
     3  C   -0.078571   0.356575
     4  C   -0.131476  -0.185949
     5  C   -0.078571   0.356575
     6  C   -0.078571   0.356575
     7  H    0.252556   0.004338
     8  H    0.268031  -0.015770
     9  H    0.268031  -0.015770
    10  H    0.252556   0.004338
    11  H    0.268031  -0.015770
    12  H    0.268031  -0.015770
 Sum of Mulliken charges =   1.00000   1.00000
 Mulliken charges and spin densities with hydrogens summed into heavy atoms:
               1          2
     1  C    0.121080  -0.181611
     2  C    0.189460   0.340806
     3  C    0.189460   0.340806
     4  C    0.121080  -0.181611
     5  C    0.189460   0.340806
     6  C    0.189460   0.340806
 Electronic spatial extent (au):  <R**2>=            438.5141
 Charge=              1.0000 electrons
 Dipole moment (field-independent basis, Debye):
    X=             -0.0000    Y=              0.0000    Z=             -0.0000  Tot=              0.0000
 Quadrupole moment (field-independent basis, Debye-Ang):
   XX=            -18.1231   YY=            -21.6252   ZZ=            -34.9952
   XY=             -0.0000   XZ=              0.0000   YZ=              0.0000
 Traceless Quadrupole moment (field-independent basis, Debye-Ang):
   XX=              6.7914   YY=              3.2893   ZZ=            -10.0807
   XY=             -0.0000   XZ=              0.0000   YZ=              0.0000
 Octapole moment (field-independent basis, Debye-Ang**2):
  XXX=              0.0000  YYY=              0.0000  ZZZ=              0.0000  XYY=              0.0000
  XXY=              0.0000  XXZ=              0.0000  XZZ=              0.0000  YZZ=              0.0000
  YYZ=              0.0000  XYZ=             -0.0000
 Hexadecapole moment (field-independent basis, Debye-Ang**3):
 XXXX=           -197.2790 YYYY=           -210.9436 ZZZZ=            -34.0767 XXXY=              0.0000
 XXXZ=              0.0000 YYYX=             -0.0000 YYYZ=              0.0000 ZZZX=             -0.0000
 ZZZY=             -0.0000 XXYY=            -66.6131 XXZZ=            -52.1705 YYZZ=            -55.3281
 XXYZ=              0.0000 YYXZ=              0.0000 ZZXY=              0.0000
 N-N= 2.031815835396D+02 E-N=-9.341992040449D+02  KE= 2.305863320512D+02
 Symmetry AG   KE= 7.451693057966D+01
 Symmetry B1G  KE= 3.775958322912D+01
 Symmetry B2G  KE= 1.198930018420D+00
 Symmetry B3G  KE= 2.347982271257D+00
 Symmetry AU   KE= 4.386399584339D-17
 Symmetry B1U  KE= 1.960310010876D+00
 Symmetry B2U  KE= 7.220581133332D+01
 Symmetry B3U  KE= 4.059678460855D+01
 Symmetry AG   SP= 5.679599856829D-15
 Symmetry B1G  SP= 7.838736390808D-15
 Symmetry B2G  SP= 1.000000000000D+00
 Symmetry B3G  SP=-2.758942163270D-15
 Symmetry AU   SP= 6.697489326737D-17
 Symmetry B1U  SP= 1.220452504249D-15
 Symmetry B2U  SP=-4.832505923202D-15
 Symmetry B3U  SP= 6.804208889030D-15
                          Isotropic Fermi Contact Couplings
        Atom                 a.u.       MegaHertz       Gauss      10(-4) cm-1
     1  C(13)             -0.02916     -32.77702     -11.69565     -10.93324
     2  C(13)              0.04207      47.29605      16.87641      15.77626
     3  C(13)              0.04207      47.29605      16.87641      15.77626
     4  C(13)             -0.02916     -32.77702     -11.69565     -10.93324
     5  C(13)              0.04207      47.29605      16.87641      15.77626
     6  C(13)              0.04207      47.29605      16.87641      15.77626
     7  H(1)               0.00166       7.41568       2.64610       2.47360
     8  H(1)              -0.00612     -27.35526      -9.76104      -9.12473
     9  H(1)              -0.00612     -27.35526      -9.76104      -9.12473
    10  H(1)               0.00166       7.41568       2.64610       2.47360
    11  H(1)              -0.00612     -27.35526      -9.76104      -9.12473
    12  H(1)              -0.00612     -27.35526      -9.76104      -9.12473
 --------------------------------------------------------
       Center         ----  Spin Dipole Couplings  ----
                      3XX-RR        3YY-RR        3ZZ-RR
 --------------------------------------------------------
     1   Atom        0.062955      0.055316     -0.118271
     2   Atom       -0.183988     -0.176487      0.360476
     3   Atom       -0.183988     -0.176487      0.360476
     4   Atom        0.062955      0.055316     -0.118271
     5   Atom       -0.183988     -0.176487      0.360476
     6   Atom       -0.183988     -0.176487      0.360476
     7   Atom        0.005536      0.000100     -0.005636
     8   Atom        0.011198     -0.003688     -0.007510
     9   Atom        0.011198     -0.003688     -0.007510
    10   Atom        0.005536      0.000100     -0.005636
    11   Atom        0.011198     -0.003688     -0.007510
    12   Atom        0.011198     -0.003688     -0.007510
 --------------------------------------------------------
                        XY            XZ            YZ
 --------------------------------------------------------
     1   Atom        0.000000     -0.000000      0.000000
     2   Atom       -0.004491     -0.000000     -0.000000
     3   Atom        0.004491     -0.000000      0.000000
     4   Atom       -0.000000     -0.000000     -0.000000
     5   Atom       -0.004491      0.000000      0.000000
     6   Atom        0.004491      0.000000     -0.000000
     7   Atom        0.000000     -0.000000     -0.000000
     8   Atom       -0.027857     -0.000000      0.000000
     9   Atom        0.027857     -0.000000     -0.000000
    10   Atom        0.000000      0.000000      0.000000
    11   Atom       -0.027857      0.000000     -0.000000
    12   Atom        0.027857      0.000000      0.000000
 --------------------------------------------------------


 ---------------------------------------------------------------------------------
              Anisotropic Spin Dipole Couplings in Principal Axis System
 ---------------------------------------------------------------------------------

       Atom             a.u.   MegaHertz   Gauss  10(-4) cm-1        Axes

              Baa    -0.1183   -15.871    -5.663    -5.294  0.0000  0.0000  1.0000
     1 C(13)  Bbb     0.0553     7.423     2.649     2.476 -0.0000  1.0000  0.0000
              Bcc     0.0630     8.448     3.014     2.818  1.0000  0.0000  0.0000
 
              Baa    -0.1861   -24.971    -8.910    -8.330  0.9058  0.4237 -0.0000
     2 C(13)  Bbb    -0.1744   -23.401    -8.350    -7.806 -0.4237  0.9058 -0.0000
              Bcc     0.3605    48.372    17.260    16.135  0.0000  0.0000  1.0000
 
              Baa    -0.1861   -24.971    -8.910    -8.330  0.9058 -0.4237  0.0000
     3 C(13)  Bbb    -0.1744   -23.401    -8.350    -7.806  0.4237  0.9058 -0.0000
              Bcc     0.3605    48.372    17.260    16.135  0.0000  0.0000  1.0000
 
              Baa    -0.1183   -15.871    -5.663    -5.294  0.0000  0.0000  1.0000
     4 C(13)  Bbb     0.0553     7.423     2.649     2.476  0.0000  1.0000 -0.0000
              Bcc     0.0630     8.448     3.014     2.818  1.0000 -0.0000 -0.0000
 
              Baa    -0.1861   -24.971    -8.910    -8.330  0.9058  0.4237 -0.0000
     5 C(13)  Bbb    -0.1744   -23.401    -8.350    -7.806 -0.4237  0.9058 -0.0000
              Bcc     0.3605    48.372    17.260    16.135  0.0000  0.0000  1.0000
 
              Baa    -0.1861   -24.971    -8.910    -8.330  0.9058 -0.4237  0.0000
     6 C(13)  Bbb    -0.1744   -23.401    -8.350    -7.806  0.4237  0.9058 -0.0000
              Bcc     0.3605    48.372    17.260    16.135  0.0000  0.0000  1.0000
 
              Baa    -0.0056    -3.007    -1.073    -1.003  0.0000  0.0000  1.0000
     7 H(1)   Bbb     0.0001     0.053     0.019     0.018 -0.0000  1.0000 -0.0000
              Bcc     0.0055     2.954     1.054     0.985  1.0000  0.0000 -0.0000
 
              Baa    -0.0251   -13.381    -4.775    -4.463  0.6090  0.7931  0.0000
     8 H(1)   Bbb    -0.0075    -4.007    -1.430    -1.337  0.0000  0.0000  1.0000
              Bcc     0.0326    17.388     6.205     5.800  0.7931 -0.6090  0.0000
 
              Baa    -0.0251   -13.381    -4.775    -4.463 -0.6090  0.7931  0.0000
     9 H(1)   Bbb    -0.0075    -4.007    -1.430    -1.337  0.0000  0.0000  1.0000
              Bcc     0.0326    17.388     6.205     5.800  0.7931  0.6090 -0.0000
 
              Baa    -0.0056    -3.007    -1.073    -1.003  0.0000  0.0000  1.0000
    10 H(1)   Bbb     0.0001     0.053     0.019     0.018 -0.0000  1.0000 -0.0000
              Bcc     0.0055     2.954     1.054     0.985  1.0000  0.0000 -0.0000
 
              Baa    -0.0251   -13.381    -4.775    -4.463  0.6090  0.7931  0.0000
    11 H(1)   Bbb    -0.0075    -4.007    -1.430    -1.337  0.0000  0.0000  1.0000
              Bcc     0.0326    17.388     6.205     5.800  0.7931 -0.6090  0.0000
 
              Baa    -0.0251   -13.381    -4.775    -4.463 -0.6090  0.7931  0.0000
    12 H(1)   Bbb    -0.0075    -4.007    -1.430    -1.337  0.0000  0.0000  1.0000
              Bcc     0.0326    17.388     6.205     5.800  0.7931  0.6090 -0.0000
 

 ---------------------------------------------------------------------------------

 No NMR shielding tensors so no spin-rotation constants.
 Leave Link  601 at Mon Mar 16 03:50:31 2020, MaxMem=  6710886400 cpu:               3.2 elap:               0.2
 (Enter /opt/ohpc/pub/libs/gaussian/g16-A.03/sandybridge/g16/l9999.exe)

 Test job not archived.
 1\1\GINC-CNODE145\SP\ULC-wHPBE\6-31G\C6H6(1+,2)\QAI222\16-Mar-2020\0\\
 #P uLC-wHPBE/6-31G iop(3/107=0266800000, 3/108=0266800000) scf=(conver
 =6,fermi,ndamp=35,noincfock,novaracc,vshift=500,xqc)\\H6 C6\\1,2\C,0,0
 .,1.396379,0.\C,0,-1.2093,0.69819,0.\C,0,-1.2093,-0.69819,0.\C,0,0.,-1
 .396379,0.\C,0,1.2093,-0.69819,0.\C,0,1.2093,0.69819,0.\H,0,0.,2.48461
 3,0.\H,0,-2.151738,1.242306,0.\H,0,-2.151738,-1.242306,0.\H,0,0.,-2.48
 4613,0.\H,0,2.151738,-1.242306,0.\H,0,2.151738,1.242306,0.\\Version=EM
 64L-G16RevA.03\HF=-231.6574734\S2=0.770683\S2-1=0.\S2A=0.750215\RMSD=6
 .870e-07\Dipole=0.,0.,0.\Quadrupole=5.0492459,2.4455138,-7.4947597,0.,
 0.,0.\PG=D06H [3C2'(H1C1.C1H1)]\\@


 A warm smile is the universal language of kindness.
                             -- William Arthur Ward
 Job cpu time:       0 days  0 hours  0 minutes 47.7 seconds.
 Elapsed time:       0 days  0 hours  0 minutes  3.6 seconds.
 File lengths (MBytes):  RWF=    272 Int=      0 D2E=      0 Chk=     32 Scr=     32
 Normal termination of Gaussian 16 at Mon Mar 16 03:50:31 2020.
