 Entering Gaussian System, Link 0=g16
 Input=1b_tune_c8.gjf
 Output=1b_tune_c8.log
 Initial command:
 /opt/ohpc/pub/libs/gaussian/g16-A.03/haswell/g16/l1.exe "/scratch/smgo234/Ocelot/test/1b/tuning_1b_ocycle1/Gau-41813.inp" -scrdir="/scratch/smgo234/Ocelot/test/1b/tuning_1b_ocycle1/"
 Entering Link 1 = /opt/ohpc/pub/libs/gaussian/g16-A.03/haswell/g16/l1.exe PID=     41814.
  
 Copyright (c) 1988,1990,1992,1993,1995,1998,2003,2009,2016,
            Gaussian, Inc.  All Rights Reserved.
  
 This is part of the Gaussian(R) 16 program.  It is based on
 the Gaussian(R) 09 system (copyright 2009, Gaussian, Inc.),
 the Gaussian(R) 03 system (copyright 2003, Gaussian, Inc.),
 the Gaussian(R) 98 system (copyright 1998, Gaussian, Inc.),
 the Gaussian(R) 94 system (copyright 1995, Gaussian, Inc.),
 the Gaussian 92(TM) system (copyright 1992, Gaussian, Inc.),
 the Gaussian 90(TM) system (copyright 1990, Gaussian, Inc.),
 the Gaussian 88(TM) system (copyright 1988, Gaussian, Inc.),
 the Gaussian 86(TM) system (copyright 1986, Carnegie Mellon
 University), and the Gaussian 82(TM) system (copyright 1983,
 Carnegie Mellon University). Gaussian is a federally registered
 trademark of Gaussian, Inc.
  
 This software contains proprietary and confidential information,
 including trade secrets, belonging to Gaussian, Inc.
  
 This software is provided under written license and may be
 used, copied, transmitted, or stored only in accord with that
 written license.
  
 The following legend is applicable only to US Government
 contracts under FAR:
  
                    RESTRICTED RIGHTS LEGEND
  
 Use, reproduction and disclosure by the US Government is
 subject to restrictions as set forth in subparagraphs (a)
 and (c) of the Commercial Computer Software - Restricted
 Rights clause in FAR 52.227-19.
  
 Gaussian, Inc.
 340 Quinnipiac St., Bldg. 40, Wallingford CT 06492
  
  
 ---------------------------------------------------------------
 Warning -- This program may not be used in any manner that
 competes with the business of Gaussian, Inc. or will provide
 assistance to any competitor of Gaussian, Inc.  The licensee
 of this program is prohibited from giving any competitor of
 Gaussian, Inc. access to this program.  By using this program,
 the user acknowledges that Gaussian, Inc. is engaged in the
 business of creating and licensing software in the field of
 computational chemistry and represents and warrants to the
 licensee that it is not a competitor of Gaussian, Inc. and that
 it will not use this program in any manner prohibited above.
 ---------------------------------------------------------------
  

 Cite this work as:
 Gaussian 16, Revision A.03,
 M. J. Frisch, G. W. Trucks, H. B. Schlegel, G. E. Scuseria, 
 M. A. Robb, J. R. Cheeseman, G. Scalmani, V. Barone, 
 G. A. Petersson, H. Nakatsuji, X. Li, M. Caricato, A. V. Marenich, 
 J. Bloino, B. G. Janesko, R. Gomperts, B. Mennucci, H. P. Hratchian, 
 J. V. Ortiz, A. F. Izmaylov, J. L. Sonnenberg, D. Williams-Young, 
 F. Ding, F. Lipparini, F. Egidi, J. Goings, B. Peng, A. Petrone, 
 T. Henderson, D. Ranasinghe, V. G. Zakrzewski, J. Gao, N. Rega, 
 G. Zheng, W. Liang, M. Hada, M. Ehara, K. Toyota, R. Fukuda, 
 J. Hasegawa, M. Ishida, T. Nakajima, Y. Honda, O. Kitao, H. Nakai, 
 T. Vreven, K. Throssell, J. A. Montgomery, Jr., J. E. Peralta, 
 F. Ogliaro, M. J. Bearpark, J. J. Heyd, E. N. Brothers, K. N. Kudin, 
 V. N. Staroverov, T. A. Keith, R. Kobayashi, J. Normand, 
 K. Raghavachari, A. P. Rendell, J. C. Burant, S. S. Iyengar, 
 J. Tomasi, M. Cossi, J. M. Millam, M. Klene, C. Adamo, R. Cammi, 
 J. W. Ochterski, R. L. Martin, K. Morokuma, O. Farkas, 
 J. B. Foresman, and D. J. Fox, Gaussian, Inc., Wallingford CT, 2016.
 
 ******************************************
 Gaussian 16:  ES64L-G16RevA.03 25-Dec-2016
                25-Feb-2020 
 ******************************************
 %mem=50GB
 %nproc=16
 Will use up to   16 processors via shared memory.
 ----------------------------------------------------------------------
 #P uLC-wHPBE/6-31G iop(3/107=0313800000, 3/108=0313800000) scf=(conver
 =6,fermi,ndamp=35,noincfock,novaracc,vshift=500,xqc)
 ----------------------------------------------------------------------
 1/38=1,172=1/1;
 2/12=2,17=6,18=5,40=1/2;
 3/5=1,6=6,11=2,25=1,30=1,74=-71,107=313800000,108=313800000,116=2/1,2,3;
 4//1;
 5/5=100002,6=6,8=3,10=500,13=1,18=-1,22=13,38=1,93=35/2,8;
 6/7=2,8=2,9=2,10=2,28=1/1;
 99/5=1,9=1/99;
 Leave Link    1 at Tue Feb 25 12:22:34 2020, MaxMem=  6710886400 cpu:              10.0 elap:               0.7
 (Enter /opt/ohpc/pub/libs/gaussian/g16-A.03/haswell/g16/l101.exe)
 -----
 H6 C5
 -----
 Symbolic Z-matrix:
 Charge =  1 Multiplicity = 2
 C                     0.        0.89708  -0.93525 
 C                     0.        1.13409   0.42538 
 C                     0.        0.        1.24305 
 C                     0.       -1.13409   0.42538 
 C                     0.       -0.89708  -0.93525 
 H                     0.        0.       -1.72336 
 H                     0.        1.62254  -1.74574 
 H                     0.        2.16413   0.77433 
 H                     0.        0.        2.32629 
 H                     0.       -2.16413   0.77433 
 H                     0.       -1.62254  -1.74574 
 
 ITRead=  0  0  0  0  0  0  0  0  0  0  0
 MicOpt= -1 -1 -1 -1 -1 -1 -1 -1 -1 -1 -1
 NAtoms=     11 NQM=       11 NQMF=       0 NMMI=      0 NMMIF=      0
                NMic=       0 NMicF=      0.
                    Isotopes and Nuclear Properties:
 (Nuclear quadrupole moments (NQMom) in fm**2, nuclear magnetic moments (NMagM)
  in nuclear magnetons)

  Atom         1           2           3           4           5           6           7           8           9          10
 IAtWgt=          12          12          12          12          12           1           1           1           1           1
 AtmWgt=  12.0000000  12.0000000  12.0000000  12.0000000  12.0000000   1.0078250   1.0078250   1.0078250   1.0078250   1.0078250
 NucSpn=           0           0           0           0           0           1           1           1           1           1
 AtZEff=  -0.0000000  -0.0000000  -0.0000000  -0.0000000  -0.0000000  -0.0000000  -0.0000000  -0.0000000  -0.0000000  -0.0000000
 NQMom=    0.0000000   0.0000000   0.0000000   0.0000000   0.0000000   0.0000000   0.0000000   0.0000000   0.0000000   0.0000000
 NMagM=    0.0000000   0.0000000   0.0000000   0.0000000   0.0000000   2.7928460   2.7928460   2.7928460   2.7928460   2.7928460
 AtZNuc=   6.0000000   6.0000000   6.0000000   6.0000000   6.0000000   1.0000000   1.0000000   1.0000000   1.0000000   1.0000000

  Atom        11
 IAtWgt=           1
 AtmWgt=   1.0078250
 NucSpn=           1
 AtZEff=  -0.0000000
 NQMom=    0.0000000
 NMagM=    2.7928460
 AtZNuc=   1.0000000
 Leave Link  101 at Tue Feb 25 12:22:34 2020, MaxMem=  6710886400 cpu:               2.1 elap:               0.2
 (Enter /opt/ohpc/pub/libs/gaussian/g16-A.03/haswell/g16/l202.exe)
                          Input orientation:                          
 ---------------------------------------------------------------------
 Center     Atomic      Atomic             Coordinates (Angstroms)
 Number     Number       Type             X           Y           Z
 ---------------------------------------------------------------------
      1          6           0        0.000000    0.897082   -0.935245
      2          6           0        0.000000    1.134094    0.425375
      3          6           0        0.000000    0.000000    1.243051
      4          6           0        0.000000   -1.134094    0.425375
      5          6           0        0.000000   -0.897082   -0.935245
      6          1           0        0.000000    0.000000   -1.723356
      7          1           0        0.000000    1.622537   -1.745737
      8          1           0        0.000000    2.164126    0.774330
      9          1           0        0.000000    0.000000    2.326294
     10          1           0        0.000000   -2.164126    0.774330
     11          1           0        0.000000   -1.622537   -1.745737
 ---------------------------------------------------------------------
                    Distance matrix (angstroms):
                    1          2          3          4          5
     1  C    0.000000
     2  C    1.381109   0.000000
     3  C    2.355786   1.398128   0.000000
     4  C    2.444783   2.268188   1.398128   0.000000
     5  C    1.794164   2.444783   2.355786   1.381109   0.000000
     6  H    1.194100   2.429653   2.966407   2.429653   1.194100
     7  H    1.087742   2.225377   3.400806   3.508952   2.646767
     8  H    2.127921   1.087536   2.214304   3.316629   3.506229
     9  H    3.382661   2.213518   1.083243   2.213518   3.382661
    10  H    3.506229   3.316629   2.214304   1.087536   2.127921
    11  H    2.646767   3.508952   3.400806   2.225377   1.087742
                    6          7          8          9         10
     6  H    0.000000
     7  H    1.622691   0.000000
     8  H    3.304826   2.577607   0.000000
     9  H    4.049650   4.383385   2.663087   0.000000
    10  H    3.304826   4.548577   4.328252   2.663087   0.000000
    11  H    1.622691   3.245074   4.548577   4.383385   2.577607
                   11
    11  H    0.000000
 Stoichiometry    C5H6(1+,2)
 Framework group  C2V[C2(HCH),SGV(C4H4)]
 Deg. of freedom    10
 Full point group                 C2V     NOp   4
 Largest Abelian subgroup         C2V     NOp   4
 Largest concise Abelian subgroup C2      NOp   2
                         Standard orientation:                         
 ---------------------------------------------------------------------
 Center     Atomic      Atomic             Coordinates (Angstroms)
 Number     Number       Type             X           Y           Z
 ---------------------------------------------------------------------
      1          6           0        0.000000    0.897082   -0.935245
      2          6           0        0.000000    1.134094    0.425375
      3          6           0        0.000000   -0.000000    1.243051
      4          6           0       -0.000000   -1.134094    0.425375
      5          6           0       -0.000000   -0.897082   -0.935245
      6          1           0       -0.000000    0.000000   -1.723356
      7          1           0        0.000000    1.622537   -1.745737
      8          1           0        0.000000    2.164126    0.774330
      9          1           0        0.000000   -0.000000    2.326294
     10          1           0       -0.000000   -2.164126    0.774330
     11          1           0       -0.000000   -1.622537   -1.745737
 ---------------------------------------------------------------------
 Rotational constants (GHZ):           8.4725427           7.7835829           4.0567316
 Leave Link  202 at Tue Feb 25 12:22:34 2020, MaxMem=  6710886400 cpu:               0.2 elap:               0.0
 (Enter /opt/ohpc/pub/libs/gaussian/g16-A.03/haswell/g16/l301.exe)
 Standard basis: 6-31G (6D, 7F)
 Ernie: Thresh=  0.10000D-02 Tol=  0.10000D-05 Strict=F.
 There are    27 symmetry adapted cartesian basis functions of A1  symmetry.
 There are     4 symmetry adapted cartesian basis functions of A2  symmetry.
 There are     6 symmetry adapted cartesian basis functions of B1  symmetry.
 There are    20 symmetry adapted cartesian basis functions of B2  symmetry.
 There are    27 symmetry adapted basis functions of A1  symmetry.
 There are     4 symmetry adapted basis functions of A2  symmetry.
 There are     6 symmetry adapted basis functions of B1  symmetry.
 There are    20 symmetry adapted basis functions of B2  symmetry.
    57 basis functions,   134 primitive gaussians,    57 cartesian basis functions
    18 alpha electrons       17 beta electrons
       nuclear repulsion energy       155.1468587074 Hartrees.
 IExCor=33909 DFT=T Ex+Corr=LC-wHPBE ExCW=0 ScaHFX=  1.000000
 ScaDFX=  1.000000  1.000000  1.000000  1.000000 ScalE2=  1.000000  1.000000
 IRadAn=      5 IRanWt=     -1 IRanGd=            0 ICorTp=0 IEmpDi=  4
 HFx  wShort=  0.000000 wLong=  0.313800 cFull=  0.000000 cShort=  0.000000 cLong=  1.000000
 DFx  wShort=  0.000000 wLong=  0.313800 cFull=  0.000000 cShort=  1.000000 cLong=  0.000000
 NAtoms=   11 NActive=   11 NUniq=    7 SFac= 2.47D+00 NAtFMM=   60 NAOKFM=F Big=F
 Integral buffers will be    131072 words long.
 Raffenetti 2 integral format.
 Two-electron integral symmetry is turned on.
 Leave Link  301 at Tue Feb 25 12:22:34 2020, MaxMem=  6710886400 cpu:               0.8 elap:               0.1
 (Enter /opt/ohpc/pub/libs/gaussian/g16-A.03/haswell/g16/l302.exe)
 NPDir=0 NMtPBC=     1 NCelOv=     1 NCel=       1 NClECP=     1 NCelD=      1
         NCelK=      1 NCelE2=     1 NClLst=     1 CellRange=     0.0.
 One-electron integrals computed using PRISM.
 One-electron integral symmetry used in STVInt
 NBasis=    57 RedAO= T EigKep=  1.93D-03  NBF=    27     4     6    20
 NBsUse=    57 1.00D-06 EigRej= -1.00D+00 NBFU=    27     4     6    20
 Precomputing XC quadrature grid using
 IXCGrd= 4 IRadAn=           5 IRanWt=          -1 IRanGd=           0 AccXCQ= 0.00D+00.
 Generated NRdTot=       0 NPtTot=           0 NUsed=           0 NTot=          32
 NSgBfM=    57    57    57    57    57 MxSgAt=    11 MxSgA2=    11.
 Leave Link  302 at Tue Feb 25 12:22:34 2020, MaxMem=  6710886400 cpu:               3.1 elap:               0.2
 (Enter /opt/ohpc/pub/libs/gaussian/g16-A.03/haswell/g16/l303.exe)
 DipDrv:  MaxL=1.
 Leave Link  303 at Tue Feb 25 12:22:34 2020, MaxMem=  6710886400 cpu:               0.4 elap:               0.0
 (Enter /opt/ohpc/pub/libs/gaussian/g16-A.03/haswell/g16/l401.exe)
 ExpMin= 1.61D-01 ExpMax= 3.05D+03 ExpMxC= 4.57D+02 IAcc=3 IRadAn=         5 AccDes= 0.00D+00
 Harris functional with IExCor=33909 and IRadAn=       5 diagonalized for initial guess.
 HarFok:  IExCor=33909 AccDes= 0.00D+00 IRadAn=         5 IDoV= 1 UseB2=F ITyADJ=14
 ICtDFT=  3500011 ScaDFX=  1.000000  1.000000  1.000000  1.000000
 FoFCou: FMM=F IPFlag=           0 FMFlag=      100000 FMFlg1=           0
         NFxFlg=           0 DoJE=T BraDBF=F KetDBF=T FulRan=T
         wScrn=  0.000000 ICntrl=       500 IOpCl=  0 I1Cent=   200000004 NGrid=           0
         NMat0=    1 NMatS0=      1 NMatT0=    0 NMatD0=    1 NMtDS0=    0 NMtDT0=    0
 Petite list used in FoFCou.
 Harris En= -187.904137414527    
 JPrj=0 DoOrth=F DoCkMO=F.
 Initial guess orbital symmetries:
 Alpha Orbitals:
       Occupied  (A1) (B2) (A1) (B2) (A1) (A1) (B2) (A1) (A1) (B2)
                 (A1) (B2) (A1) (B2) (A1) (B1) (A2) (B1)
       Virtual   (A2) (B2) (B1) (A1) (A1) (B2) (A1) (B2) (A1) (B2)
                 (A1) (B2) (A1) (B2) (B1) (A1) (A2) (B1) (B2) (A1)
                 (A1) (A2) (B1) (B2) (B2) (A1) (B2) (A1) (A1) (B2)
                 (A1) (A1) (A1) (B2) (A1) (B2) (A1) (A1) (B2)
 Beta  Orbitals:
       Occupied  (A1) (B2) (A1) (B2) (A1) (A1) (B2) (A1) (A1) (B2)
                 (A1) (B2) (A1) (B2) (A1) (B1) (A2)
       Virtual   (B1) (A2) (B2) (B1) (A1) (A1) (B2) (A1) (B2) (A1)
                 (B2) (A1) (B2) (A1) (B2) (B1) (A1) (A2) (B1) (B2)
                 (A1) (A1) (A2) (B1) (B2) (B2) (A1) (B2) (A1) (A1)
                 (B2) (A1) (A1) (A1) (B2) (A1) (B2) (A1) (A1) (B2)
 The electronic state of the initial guess is 2-B1.
 Initial guess <Sx>= 0.0000 <Sy>= 0.0000 <Sz>= 0.5000 <S**2>= 0.7500 S= 0.5000
 Leave Link  401 at Tue Feb 25 12:22:34 2020, MaxMem=  6710886400 cpu:               4.5 elap:               0.3
 (Enter /opt/ohpc/pub/libs/gaussian/g16-A.03/haswell/g16/l502.exe)
 Keep R1 and R2 ints in memory in symmetry-blocked form, NReq=16815681.
 FoFCou: FMM=F IPFlag=           0 FMFlag=           0 FMFlg1=           0
         NFxFlg=           0 DoJE=F BraDBF=F KetDBF=F FulRan=T
         wScrn=  0.000000 ICntrl=       600 IOpCl=  0 I1Cent=           0 NGrid=           0
         NMat0=    1 NMatS0=   1653 NMatT0=    0 NMatD0=    1 NMtDS0=    0 NMtDT0=    0
 Petite list used in FoFCou.
 UHF open shell SCF:
 Using DIIS extrapolation, IDIIS=    10.
 NGot=  6710886400 LenX=  6710059561 LenY=  6710055871
 Requested convergence on RMS density matrix=1.00D-06 within  32 cycles.
 Requested convergence on MAX density matrix=1.00D-04.
 Requested convergence on             energy=1.00D-04.
 Virtual orbitals will be shifted by   0.500 hartree.
 No special actions if energy rises.
 Dynamic level shift is on during FON iterations.

 Cycle   1  Pass 1  IDiag  1:
 E= -193.408044907087    
 DIIS: error= 4.74D-02 at cycle   1 NSaved=   1.
 NSaved= 1 IEnMin= 1 EnMin= -193.408044907087     IErMin= 1 ErrMin= 4.74D-02
 ErrMax= 4.74D-02  0.00D+00 EMaxC= 1.00D+00 BMatC= 1.80D-01 BMatP= 1.80D-01
 IDIUse=1 WtCom= 1.00D+00 WtEn= 0.00D+00
 Coeff-Com:  0.100D+01
 Coeff:      0.100D+01
 Gap=     0.354 Goal=   None    Shift=    0.500
 T= 1770. Gap= 0.825 NK=0 IS=   19 IE=   57 IFin=   18
          NO(<0.9)=   0  NV(>0.1)=   0     18.00e < EF      0.00e >EF  Err=0.0D+00
 Gap=     0.245 Goal=   None    Shift=    0.500
 T= 1770. Gap= 0.748 NK=0 IS=   18 IE=   57 IFin=   17
          NO(<0.9)=   0  NV(>0.1)=   0     17.00e < EF      0.00e >EF  Err=0.0D+00
 GapD=    0.245 DampG=1.000 DampE=0.500 DampFc=0.5000 IDamp=-1.
 Damping current iteration by 5.00D-01
 RMSDP=6.57D-03 MaxDP=4.95D-02              OVMax= 9.88D-02

 Cycle   2  Pass 1  IDiag  1:
 E= -193.442494592211     Delta-E=       -0.034449685124 Rises=F Damp=T
 DIIS: error= 2.27D-02 at cycle   2 NSaved=   2.
 NSaved= 2 IEnMin= 2 EnMin= -193.442494592211     IErMin= 2 ErrMin= 2.27D-02
 ErrMax= 2.27D-02  0.00D+00 EMaxC= 1.00D+00 BMatC= 3.13D-02 BMatP= 1.80D-01
 IDIUse=1 WtCom= 1.00D+00 WtEn= 0.00D+00
 Coeff-Com: -0.545D+00 0.154D+01
 Coeff:     -0.545D+00 0.154D+01
 Gap=     0.424 Goal=   None    Shift=    0.500
 T= 1656. Gap= 0.910 NK=4 IS=   19 IE=   23 IFin=   18
          NO(<0.9)=   0  NV(>0.1)=   0     18.00e < EF      0.00e >EF  Err=0.0D+00
 Gap=     0.272 Goal=   None    Shift=    0.500
 T= 1656. Gap= 0.770 NK=4 IS=   18 IE=   23 IFin=   17
          NO(<0.9)=   0  NV(>0.1)=   0     17.00e < EF      0.00e >EF  Err=0.0D+00
 GapD=    0.272 DampG=1.000 DampE=0.500 DampFc=0.5000 IDamp=-1.
 Damping current iteration by 5.00D-01
 RMSDP=3.97D-03 MaxDP=3.08D-02 DE=-3.44D-02 OVMax= 1.56D-02

 Cycle   3  Pass 1  IDiag  1:
 E= -193.454743677452     Delta-E=       -0.012249085240 Rises=F Damp=T
 DIIS: error= 1.29D-02 at cycle   3 NSaved=   3.
 NSaved= 3 IEnMin= 3 EnMin= -193.454743677452     IErMin= 3 ErrMin= 1.29D-02
 ErrMax= 1.29D-02  0.00D+00 EMaxC= 1.00D+00 BMatC= 7.30D-03 BMatP= 3.13D-02
 IDIUse=1 WtCom= 1.00D+00 WtEn= 0.00D+00
 Coeff-Com:  0.340D+00-0.187D+01 0.253D+01
 Coeff:      0.340D+00-0.187D+01 0.253D+01
 Gap=     0.416 Goal=   None    Shift=    0.500
 T= 1448. Gap= 0.916 NK=0 IS=   19 IE=   57 IFin=   18
          NO(<0.9)=   0  NV(>0.1)=   0     18.00e < EF      0.00e >EF  Err=0.0D+00
 Gap=     0.276 Goal=   None    Shift=    0.500
 T= 1448. Gap= 0.776 NK=0 IS=   18 IE=   57 IFin=   17
          NO(<0.9)=   0  NV(>0.1)=   0     17.00e < EF      0.00e >EF  Err=0.0D+00
 GapD=    0.276 DampG=1.000 DampE=0.500 DampFc=0.5000 IDamp=-1.
 Damping current iteration by 5.00D-01
 RMSDP=2.18D-03 MaxDP=1.64D-02 DE=-1.22D-02 OVMax= 1.45D-02

 Cycle   4  Pass 1  IDiag  1:
 E= -193.460536754885     Delta-E=       -0.005793077433 Rises=F Damp=T
 DIIS: error= 8.19D-03 at cycle   4 NSaved=   4.
 NSaved= 4 IEnMin= 4 EnMin= -193.460536754885     IErMin= 4 ErrMin= 8.19D-03
 ErrMax= 8.19D-03  0.00D+00 EMaxC= 1.00D+00 BMatC= 2.48D-03 BMatP= 7.30D-03
 IDIUse=1 WtCom= 1.00D+00 WtEn= 0.00D+00
 Coeff-Com: -0.185D-02 0.832D+00-0.368D+01 0.385D+01
 Coeff:     -0.185D-02 0.832D+00-0.368D+01 0.385D+01
 Gap=     0.421 Goal=   None    Shift=    0.500
 T= 1065. Gap= 0.921 NK=0 IS=   19 IE=   57 IFin=   18
          NO(<0.9)=   0  NV(>0.1)=   0     18.00e < EF      0.00e >EF  Err=0.0D+00
 Gap=     0.280 Goal=   None    Shift=    0.500
 T= 1065. Gap= 0.780 NK=0 IS=   18 IE=   57 IFin=   17
          NO(<0.9)=   0  NV(>0.1)=   0     17.00e < EF      0.00e >EF  Err=0.0D+00
 GapD=    0.280 DampG=1.000 DampE=1.000 DampFc=1.0000 IDamp=-1.
 RMSDP=1.35D-03 MaxDP=1.35D-02 DE=-5.79D-03 OVMax= 1.39D-02

 Cycle   5  Pass 1  IDiag  1:
 E= -193.467221192454     Delta-E=       -0.006684437569 Rises=F Damp=F
 DIIS: error= 3.57D-03 at cycle   5 NSaved=   5.
 NSaved= 5 IEnMin= 5 EnMin= -193.467221192454     IErMin= 5 ErrMin= 3.57D-03
 ErrMax= 3.57D-03  0.00D+00 EMaxC= 1.00D+00 BMatC= 3.62D-04 BMatP= 2.48D-03
 IDIUse=1 WtCom= 1.00D+00 WtEn= 0.00D+00
 Coeff-Com: -0.172D+00 0.875D+00-0.726D+00-0.851D+00 0.187D+01
 Coeff:     -0.172D+00 0.875D+00-0.726D+00-0.851D+00 0.187D+01
 Gap=     0.421 Goal=   None    Shift=    0.500
 T=  720. Gap= 0.922 NK=0 IS=   19 IE=   57 IFin=   18
          NO(<0.9)=   0  NV(>0.1)=   0     18.00e < EF      0.00e >EF  Err=0.0D+00
 Gap=     0.283 Goal=   None    Shift=    0.500
 T=  720. Gap= 0.783 NK=0 IS=   18 IE=   57 IFin=   17
          NO(<0.9)=   0  NV(>0.1)=   0     17.00e < EF      0.00e >EF  Err=0.0D+00
 GapD=    0.283 DampG=1.000 DampE=1.000 DampFc=1.0000 IDamp=-1.
 RMSDP=3.88D-04 MaxDP=6.01D-03 DE=-6.68D-03 OVMax= 1.30D-02

 Cycle   6  Pass 1  IDiag  1:
 E= -193.467725812168     Delta-E=       -0.000504619714 Rises=F Damp=F
 DIIS: error= 2.74D-03 at cycle   6 NSaved=   6.
 NSaved= 6 IEnMin= 6 EnMin= -193.467725812168     IErMin= 6 ErrMin= 2.74D-03
 ErrMax= 2.74D-03  0.00D+00 EMaxC= 1.00D+00 BMatC= 1.61D-04 BMatP= 3.62D-04
 IDIUse=1 WtCom= 1.00D+00 WtEn= 0.00D+00
 Coeff-Com:  0.739D-02-0.315D+00 0.945D+00-0.688D+00-0.163D+01 0.268D+01
 Coeff:      0.739D-02-0.315D+00 0.945D+00-0.688D+00-0.163D+01 0.268D+01
 Gap=     0.423 Goal=   None    Shift=    0.500
 T=  401. Gap= 0.923 NK=0 IS=   19 IE=   57 IFin=   18
          NO(<0.9)=   0  NV(>0.1)=   0     18.00e < EF      0.00e >EF  Err=0.0D+00
 Gap=     0.285 Goal=   None    Shift=    0.500
 T=  401. Gap= 0.785 NK=0 IS=   18 IE=   57 IFin=   17
          NO(<0.9)=   0  NV(>0.1)=   0     17.00e < EF      0.00e >EF  Err=0.0D+00
 GapD=    0.285 DampG=1.000 DampE=1.000 DampFc=1.0000 IDamp=-1.
 RMSDP=3.04D-04 MaxDP=4.90D-03 DE=-5.05D-04 OVMax= 1.17D-02

 Cycle   7  Pass 1  IDiag  1:
 E= -193.468007966050     Delta-E=       -0.000282153882 Rises=F Damp=F
 DIIS: error= 1.94D-03 at cycle   7 NSaved=   7.
 NSaved= 7 IEnMin= 7 EnMin= -193.468007966050     IErMin= 7 ErrMin= 1.94D-03
 ErrMax= 1.94D-03  0.00D+00 EMaxC= 1.00D+00 BMatC= 6.89D-05 BMatP= 1.61D-04
 IDIUse=1 WtCom= 1.00D+00 WtEn= 0.00D+00
 Coeff-Com:  0.154D-01-0.633D-01-0.129D+00 0.397D+00-0.369D+00-0.110D+01
 Coeff-Com:  0.225D+01
 Coeff:      0.154D-01-0.633D-01-0.129D+00 0.397D+00-0.369D+00-0.110D+01
 Coeff:      0.225D+01
 Gap=     0.422 Goal=   None    Shift=    0.500
 T=   63. Gap= 0.922 NK=0 IS=   19 IE=   57 IFin=   18
          NO(<0.9)=   0  NV(>0.1)=   0     18.00e < EF      0.00e >EF  Err=0.0D+00
 Gap=     0.286 Goal=   None    Shift=    0.500
 T=   63. Gap= 0.786 NK=0 IS=   18 IE=   57 IFin=   17
          NO(<0.9)=   0  NV(>0.1)=   0     17.00e < EF      0.00e >EF  Err=0.0D+00
 GapD=    0.286 DampG=1.000 DampE=1.000 DampFc=1.0000 IDamp=-1.
 RMSDP=2.00D-04 MaxDP=2.85D-03 DE=-2.82D-04 OVMax= 8.36D-03

 Cycle   8  Pass 1  IDiag  1:
 E= -193.468128124584     Delta-E=       -0.000120158534 Rises=F Damp=F
 DIIS: error= 1.34D-03 at cycle   8 NSaved=   8.
 NSaved= 8 IEnMin= 8 EnMin= -193.468128124584     IErMin= 8 ErrMin= 1.34D-03
 ErrMax= 1.34D-03  0.00D+00 EMaxC= 1.00D+00 BMatC= 3.13D-05 BMatP= 6.89D-05
 IDIUse=1 WtCom= 1.00D+00 WtEn= 0.00D+00
 Coeff-Com: -0.111D-01 0.245D+00-0.756D+00 0.609D+00 0.101D+01-0.230D+01
 Coeff-Com:  0.141D-01 0.219D+01
 Coeff:     -0.111D-01 0.245D+00-0.756D+00 0.609D+00 0.101D+01-0.230D+01
 Coeff:      0.141D-01 0.219D+01
 Gap=     0.423 Goal=   None    Shift=    0.500
 Gap=     0.286 Goal=   None    Shift=    0.500
 GapD=    0.286 DampG=1.000 DampE=1.000 DampFc=1.0000 IDamp=-1.
 RMSDP=1.51D-04 MaxDP=2.12D-03 DE=-1.20D-04 OVMax= 6.69D-03

 Cycle   9  Pass 1  IDiag  1:
 E= -193.468185441197     Delta-E=       -0.000057316613 Rises=F Damp=F
 DIIS: error= 8.78D-04 at cycle   9 NSaved=   9.
 NSaved= 9 IEnMin= 9 EnMin= -193.468185441197     IErMin= 9 ErrMin= 8.78D-04
 ErrMax= 8.78D-04  0.00D+00 EMaxC= 1.00D+00 BMatC= 1.26D-05 BMatP= 3.13D-05
 IDIUse=1 WtCom= 1.00D+00 WtEn= 0.00D+00
 Coeff-Com:  0.118D-02-0.142D+00 0.582D+00-0.605D+00-0.429D+00 0.188D+01
 Coeff-Com: -0.105D+01-0.309D+01 0.385D+01
 Coeff:      0.118D-02-0.142D+00 0.582D+00-0.605D+00-0.429D+00 0.188D+01
 Coeff:     -0.105D+01-0.309D+01 0.385D+01
 Gap=     0.423 Goal=   None    Shift=    0.500
 Gap=     0.286 Goal=   None    Shift=    0.500
 RMSDP=1.08D-04 MaxDP=1.48D-03 DE=-5.73D-05 OVMax= 5.21D-03

 Cycle  10  Pass 1  IDiag  1:
 E= -193.468210541248     Delta-E=       -0.000025100052 Rises=F Damp=F
 DIIS: error= 5.27D-04 at cycle  10 NSaved=  10.
 NSaved=10 IEnMin=10 EnMin= -193.468210541248     IErMin=10 ErrMin= 5.27D-04
 ErrMax= 5.27D-04  0.00D+00 EMaxC= 1.00D+00 BMatC= 4.29D-06 BMatP= 1.26D-05
 IDIUse=1 WtCom= 1.00D+00 WtEn= 0.00D+00
 Coeff-Com:  0.512D-03 0.357D-01-0.170D+00 0.194D+00 0.855D-01-0.533D+00
 Coeff-Com:  0.457D+00 0.788D+00-0.279D+01 0.293D+01
 Coeff:      0.512D-03 0.357D-01-0.170D+00 0.194D+00 0.855D-01-0.533D+00
 Coeff:      0.457D+00 0.788D+00-0.279D+01 0.293D+01
 Gap=     0.423 Goal=   None    Shift=    0.500
 Gap=     0.286 Goal=   None    Shift=    0.500
 RMSDP=6.23D-05 MaxDP=8.98D-04 DE=-2.51D-05 OVMax= 3.14D-03

 Cycle  11  Pass 1  IDiag  1:
 E= -193.468218934547     Delta-E=       -0.000008393299 Rises=F Damp=F
 DIIS: error= 3.12D-04 at cycle  11 NSaved=  11.
 NSaved=11 IEnMin=11 EnMin= -193.468218934547     IErMin=11 ErrMin= 3.12D-04
 ErrMax= 3.12D-04  0.00D+00 EMaxC= 1.00D+00 BMatC= 1.53D-06 BMatP= 4.29D-06
 IDIUse=1 WtCom= 1.00D+00 WtEn= 0.00D+00
 Coeff-Com: -0.354D-03-0.295D-01 0.151D+00-0.182D+00-0.417D-01 0.477D+00
 Coeff-Com: -0.433D+00-0.905D+00 0.301D+01-0.534D+01 0.430D+01
 Coeff:     -0.354D-03-0.295D-01 0.151D+00-0.182D+00-0.417D-01 0.477D+00
 Coeff:     -0.433D+00-0.905D+00 0.301D+01-0.534D+01 0.430D+01
 Gap=     0.423 Goal=   None    Shift=    0.500
 Gap=     0.286 Goal=   None    Shift=    0.500
 RMSDP=3.84D-05 MaxDP=5.41D-04 DE=-8.39D-06 OVMax= 1.98D-03

 Cycle  12  Pass 1  IDiag  1:
 E= -193.468221946977     Delta-E=       -0.000003012430 Rises=F Damp=F
 DIIS: error= 1.78D-04 at cycle  12 NSaved=  12.
 NSaved=12 IEnMin=12 EnMin= -193.468221946977     IErMin=12 ErrMin= 1.78D-04
 ErrMax= 1.78D-04  0.00D+00 EMaxC= 1.00D+00 BMatC= 5.02D-07 BMatP= 1.53D-06
 IDIUse=1 WtCom= 1.00D+00 WtEn= 0.00D+00
 Coeff-Com:  0.278D-03-0.114D-01 0.387D-01-0.338D-01-0.460D-01 0.129D+00
 Coeff-Com: -0.112D-01-0.196D+00-0.221D+00 0.153D+01-0.329D+01 0.311D+01
 Coeff:      0.278D-03-0.114D-01 0.387D-01-0.338D-01-0.460D-01 0.129D+00
 Coeff:     -0.112D-01-0.196D+00-0.221D+00 0.153D+01-0.329D+01 0.311D+01
 Gap=     0.423 Goal=   None    Shift=    0.500
 Gap=     0.286 Goal=   None    Shift=    0.500
 RMSDP=2.22D-05 MaxDP=3.05D-04 DE=-3.01D-06 OVMax= 1.15D-03

 Cycle  13  Pass 1  IDiag  1:
 E= -193.468222934666     Delta-E=       -0.000000987689 Rises=F Damp=F
 DIIS: error= 1.01D-04 at cycle  13 NSaved=  13.
 NSaved=13 IEnMin=13 EnMin= -193.468222934666     IErMin=13 ErrMin= 1.01D-04
 ErrMax= 1.01D-04  0.00D+00 EMaxC= 1.00D+00 BMatC= 1.61D-07 BMatP= 5.02D-07
 IDIUse=1 WtCom= 1.00D+00 WtEn= 0.00D+00
 Coeff-Com: -0.578D-04 0.615D-02-0.206D-01 0.170D-01 0.315D-01-0.685D-01
 Coeff-Com:  0.383D-02 0.831D-01 0.134D+00-0.933D+00 0.223D+01-0.414D+01
 Coeff-Com:  0.366D+01
 Coeff:     -0.578D-04 0.615D-02-0.206D-01 0.170D-01 0.315D-01-0.685D-01
 Coeff:      0.383D-02 0.831D-01 0.134D+00-0.933D+00 0.223D+01-0.414D+01
 Coeff:      0.366D+01
 Gap=     0.423 Goal=   None    Shift=    0.500
 Gap=     0.286 Goal=   None    Shift=    0.500
 RMSDP=1.29D-05 MaxDP=1.81D-04 DE=-9.88D-07 OVMax= 6.82D-04

 Cycle  14  Pass 1  IDiag  1:
 E= -193.468223258209     Delta-E=       -0.000000323543 Rises=F Damp=F
 DIIS: error= 5.53D-05 at cycle  14 NSaved=  14.
 NSaved=14 IEnMin=14 EnMin= -193.468223258209     IErMin=14 ErrMin= 5.53D-05
 ErrMax= 5.53D-05  0.00D+00 EMaxC= 1.00D+00 BMatC= 5.06D-08 BMatP= 1.61D-07
 IDIUse=1 WtCom= 1.00D+00 WtEn= 0.00D+00
 Coeff-Com:  0.226D-03-0.518D-02 0.210D-01-0.227D-01-0.130D-01 0.599D-01
 Coeff-Com: -0.208D-01-0.110D+00 0.193D+00-0.147D+00-0.354D+00 0.156D+01
 Coeff-Com: -0.335D+01 0.319D+01
 Coeff:      0.226D-03-0.518D-02 0.210D-01-0.227D-01-0.130D-01 0.599D-01
 Coeff:     -0.208D-01-0.110D+00 0.193D+00-0.147D+00-0.354D+00 0.156D+01
 Coeff:     -0.335D+01 0.319D+01
 Gap=     0.423 Goal=   None    Shift=    0.500
 Gap=     0.286 Goal=   None    Shift=    0.500
 RMSDP=7.33D-06 MaxDP=1.04D-04 DE=-3.24D-07 OVMax= 3.92D-04

 Cycle  15  Pass 1  IDiag  1:
 E= -193.468223360385     Delta-E=       -0.000000102175 Rises=F Damp=F
 DIIS: error= 3.02D-05 at cycle  15 NSaved=  15.
 NSaved=15 IEnMin=15 EnMin= -193.468223360385     IErMin=15 ErrMin= 3.02D-05
 ErrMax= 3.02D-05  0.00D+00 EMaxC= 1.00D+00 BMatC= 1.55D-08 BMatP= 5.06D-08
 IDIUse=1 WtCom= 1.00D+00 WtEn= 0.00D+00
 Coeff-Com: -0.129D-03 0.235D-02-0.986D-02 0.112D-01 0.424D-02-0.252D-01
 Coeff-Com:  0.128D-01 0.493D-01-0.105D+00 0.128D+00 0.808D-02-0.602D+00
 Coeff-Com:  0.176D+01-0.356D+01 0.333D+01
 Coeff:     -0.129D-03 0.235D-02-0.986D-02 0.112D-01 0.424D-02-0.252D-01
 Coeff:      0.128D-01 0.493D-01-0.105D+00 0.128D+00 0.808D-02-0.602D+00
 Coeff:      0.176D+01-0.356D+01 0.333D+01
 Gap=     0.423 Goal=   None    Shift=    0.500
 Gap=     0.286 Goal=   None    Shift=    0.500
 RMSDP=4.06D-06 MaxDP=5.72D-05 DE=-1.02D-07 OVMax= 2.19D-04

 Cycle  16  Pass 1  IDiag  1:
 E= -193.468223391376     Delta-E=       -0.000000030991 Rises=F Damp=F
 DIIS: error= 1.61D-05 at cycle  16 NSaved=  16.
 NSaved=16 IEnMin=16 EnMin= -193.468223391376     IErMin=16 ErrMin= 1.61D-05
 ErrMax= 1.61D-05  0.00D+00 EMaxC= 1.00D+00 BMatC= 4.81D-09 BMatP= 1.55D-08
 IDIUse=1 WtCom= 1.00D+00 WtEn= 0.00D+00
 Coeff-Com:  0.322D-04-0.110D-03 0.138D-02-0.250D-02 0.280D-02-0.186D-02
 Coeff-Com:  0.216D-02-0.849D-02 0.407D-01-0.113D+00 0.169D+00-0.141D+00
 Coeff-Com: -0.225D+00 0.140D+01-0.357D+01 0.344D+01
 Coeff:      0.322D-04-0.110D-03 0.138D-02-0.250D-02 0.280D-02-0.186D-02
 Coeff:      0.216D-02-0.849D-02 0.407D-01-0.113D+00 0.169D+00-0.141D+00
 Coeff:     -0.225D+00 0.140D+01-0.357D+01 0.344D+01
 Gap=     0.423 Goal=   None    Shift=    0.500
 Gap=     0.286 Goal=   None    Shift=    0.500
 RMSDP=2.23D-06 MaxDP=3.06D-05 DE=-3.10D-08 OVMax= 1.21D-04

 Cycle  17  Pass 1  IDiag  1:
 E= -193.468223400604     Delta-E=       -0.000000009229 Rises=F Damp=F
 DIIS: error= 8.43D-06 at cycle  17 NSaved=  17.
 NSaved=17 IEnMin=17 EnMin= -193.468223400604     IErMin=17 ErrMin= 8.43D-06
 ErrMax= 8.43D-06  0.00D+00 EMaxC= 1.00D+00 BMatC= 1.49D-09 BMatP= 4.81D-09
 IDIUse=1 WtCom= 1.00D+00 WtEn= 0.00D+00
 Coeff-Com: -0.129D-04 0.319D-03-0.189D-02 0.260D-02-0.696D-03-0.308D-02
 Coeff-Com:  0.318D-02 0.810D-02-0.298D-01 0.622D-01-0.766D-01 0.135D-01
 Coeff-Com:  0.251D+00-0.111D+01 0.296D+01-0.510D+01 0.403D+01
 Coeff:     -0.129D-04 0.319D-03-0.189D-02 0.260D-02-0.696D-03-0.308D-02
 Coeff:      0.318D-02 0.810D-02-0.298D-01 0.622D-01-0.766D-01 0.135D-01
 Coeff:      0.251D+00-0.111D+01 0.296D+01-0.510D+01 0.403D+01
 Gap=     0.423 Goal=   None    Shift=    0.500
 Gap=     0.286 Goal=   None    Shift=    0.500
 RMSDP=1.19D-06 MaxDP=1.62D-05 DE=-9.23D-09 OVMax= 6.49D-05

 Cycle  18  Pass 1  IDiag  1:
 E= -193.468223403280     Delta-E=       -0.000000002676 Rises=F Damp=F
 DIIS: error= 4.36D-06 at cycle  18 NSaved=  18.
 NSaved=18 IEnMin=18 EnMin= -193.468223403280     IErMin=18 ErrMin= 4.36D-06
 ErrMax= 4.36D-06  0.00D+00 EMaxC= 1.00D+00 BMatC= 4.57D-10 BMatP= 1.49D-09
 IDIUse=1 WtCom= 1.00D+00 WtEn= 0.00D+00
 Coeff-Com: -0.705D-06 0.275D-04 0.326D-03-0.744D-03 0.129D-02-0.163D-02
 Coeff-Com:  0.994D-03-0.221D-02 0.151D-01-0.455D-01 0.827D-01-0.113D+00
 Coeff-Com:  0.603D-01 0.351D+00-0.151D+01 0.327D+01-0.498D+01 0.388D+01
 Coeff:     -0.705D-06 0.275D-04 0.326D-03-0.744D-03 0.129D-02-0.163D-02
 Coeff:      0.994D-03-0.221D-02 0.151D-01-0.455D-01 0.827D-01-0.113D+00
 Coeff:      0.603D-01 0.351D+00-0.151D+01 0.327D+01-0.498D+01 0.388D+01
 Gap=     0.423 Goal=   None    Shift=    0.500
 Gap=     0.286 Goal=   None    Shift=    0.500
 RMSDP=6.16D-07 MaxDP=8.19D-06 DE=-2.68D-09 OVMax= 3.38D-05

 SCF Done:  E(ULC-wHPBE) =  -193.468223403     A.U. after   18 cycles
            NFock= 18  Conv=0.62D-06     -V/T= 2.0051
 <Sx>= 0.0000 <Sy>= 0.0000 <Sz>= 0.5000 <S**2>= 0.7973 S= 0.5234
 <L.S>= 0.000000000000E+00
 KE= 1.924833041081D+02 PE=-7.500361749525D+02 EE= 2.089377887337D+02
 Annihilation of the first spin contaminant:
 S**2 before annihilation     0.7973,   after     0.7513
 Leave Link  502 at Tue Feb 25 12:22:36 2020, MaxMem=  6710886400 cpu:              25.0 elap:               1.6
 (Enter /opt/ohpc/pub/libs/gaussian/g16-A.03/haswell/g16/l508.exe)
 QCSCF skips out because SCF is already converged.
 Leave Link  508 at Tue Feb 25 12:22:36 2020, MaxMem=  6710886400 cpu:               0.1 elap:               0.0
 (Enter /opt/ohpc/pub/libs/gaussian/g16-A.03/haswell/g16/l601.exe)
 Copying SCF densities to generalized density rwf, IOpCl= 1 IROHF=0.

 **********************************************************************

            Population analysis using the SCF density.

 **********************************************************************

 Orbital symmetries:
 Alpha Orbitals:
       Occupied  (B2) (A1) (A1) (B2) (A1) (A1) (A1) (B2) (A1) (B2)
                 (A1) (B2) (A1) (A1) (B1) (B2) (A2) (B1)
       Virtual   (B2) (A2) (B1) (A1) (A1) (B2) (A1) (B2) (A1) (B2)
                 (A1) (A1) (B2) (B1) (B2) (B1) (A2) (A1) (A1) (B2)
                 (A1) (A2) (B1) (B2) (B2) (A1) (A1) (B2) (A1) (A1)
                 (B2) (A1) (A1) (B2) (A1) (B2) (A1) (A1) (B2)
 Beta  Orbitals:
       Occupied  (B2) (A1) (A1) (B2) (A1) (A1) (A1) (B2) (A1) (B2)
                 (A1) (B2) (A1) (A1) (B2) (B1) (A2)
       Virtual   (B1) (B2) (A2) (A1) (B1) (A1) (B2) (A1) (B2) (A1)
                 (B2) (A1) (A1) (B2) (B2) (B1) (A2) (A1) (B1) (A1)
                 (B2) (A1) (A2) (B1) (B2) (B2) (A1) (A1) (B2) (A1)
                 (B2) (A1) (A1) (A1) (B2) (A1) (B2) (A1) (A1) (B2)
 The electronic state is 2-B1.
 Alpha  occ. eigenvalues --  -10.37063 -10.37058 -10.32074 -10.31185 -10.31184
 Alpha  occ. eigenvalues --   -1.23899  -1.11168  -1.06764  -0.92948  -0.90844
 Alpha  occ. eigenvalues --   -0.86175  -0.76547  -0.74025  -0.72902  -0.72270
 Alpha  occ. eigenvalues --   -0.70729  -0.57757  -0.56206
 Alpha virt. eigenvalues --   -0.13941  -0.13327  -0.06404  -0.05523  -0.00303
 Alpha virt. eigenvalues --    0.04370   0.06378   0.08668   0.08772   0.19927
 Alpha virt. eigenvalues --    0.19997   0.29872   0.31116   0.39155   0.39778
 Alpha virt. eigenvalues --    0.46865   0.47478   0.48023   0.50388   0.51144
 Alpha virt. eigenvalues --    0.51412   0.54586   0.56080   0.63960   0.70457
 Alpha virt. eigenvalues --    0.72798   0.74017   0.76530   0.76672   0.82944
 Alpha virt. eigenvalues --    0.82944   0.87407   0.91446   0.97723   1.05844
 Alpha virt. eigenvalues --    1.06981   1.12116   1.34076   1.35512
  Beta  occ. eigenvalues --  -10.36510 -10.36503 -10.31450 -10.31450 -10.31179
  Beta  occ. eigenvalues --   -1.22755  -1.09360  -1.06485  -0.91957  -0.90141
  Beta  occ. eigenvalues --   -0.85897  -0.76244  -0.73748  -0.72353  -0.70569
  Beta  occ. eigenvalues --   -0.68028  -0.56475
  Beta virt. eigenvalues --   -0.27840  -0.12593  -0.10467  -0.05292  -0.03107
  Beta virt. eigenvalues --    0.00085   0.04635   0.06607   0.08637   0.09344
  Beta virt. eigenvalues --    0.20268   0.20485   0.30275   0.31494   0.40145
  Beta virt. eigenvalues --    0.41282   0.48464   0.48553   0.49483   0.50792
  Beta virt. eigenvalues --    0.51593   0.52473   0.55166   0.57570   0.64483
  Beta virt. eigenvalues --    0.70914   0.73617   0.74586   0.76434   0.77162
  Beta virt. eigenvalues --    0.83274   0.83398   0.88451   0.92073   0.97772
  Beta virt. eigenvalues --    1.06358   1.07481   1.13161   1.34960   1.36342
          Condensed to atoms (all electrons):
               1          2          3          4          5          6
     1  C    5.346703   0.499608  -0.041559  -0.126310   0.181111   0.165652
     2  C    0.499608   4.949931   0.464669  -0.025305  -0.126310  -0.023874
     3  C   -0.041559   0.464669   4.855579   0.464669  -0.041559   0.007532
     4  C   -0.126310  -0.025305   0.464669   4.949931   0.499608  -0.023874
     5  C    0.181111  -0.126310  -0.041559   0.499608   5.346703   0.165652
     6  H    0.165652  -0.023874   0.007532  -0.023874   0.165652   0.361094
     7  H    0.337467   0.003883  -0.000151   0.003209  -0.015906  -0.008881
     8  H   -0.024056   0.361837  -0.012143   0.003988   0.000945   0.000456
     9  H    0.005280  -0.028020   0.366734  -0.028020   0.005280  -0.000044
    10  H    0.000945   0.003988  -0.012143   0.361837  -0.024056   0.000456
    11  H   -0.015906   0.003209  -0.000151   0.003883   0.337467  -0.008881
               7          8          9         10         11
     1  C    0.337467  -0.024056   0.005280   0.000945  -0.015906
     2  C    0.003883   0.361837  -0.028020   0.003988   0.003209
     3  C   -0.000151  -0.012143   0.366734  -0.012143  -0.000151
     4  C    0.003209   0.003988  -0.028020   0.361837   0.003883
     5  C   -0.015906   0.000945   0.005280  -0.024056   0.337467
     6  H   -0.008881   0.000456  -0.000044   0.000456  -0.008881
     7  H    0.345545  -0.000025  -0.000053  -0.000018   0.000371
     8  H   -0.000025   0.386098  -0.001493  -0.000089  -0.000018
     9  H   -0.000053  -0.001493   0.408125  -0.001493  -0.000053
    10  H   -0.000018  -0.000089  -0.001493   0.386098  -0.000025
    11  H    0.000371  -0.000018  -0.000053  -0.000025   0.345545
          Atomic-Atomic Spin Densities.
               1          2          3          4          5          6
     1  C    0.482042  -0.039812  -0.023482  -0.008830   0.028729  -0.003583
     2  C   -0.039812  -0.224445   0.028285  -0.000248  -0.008830   0.000286
     3  C   -0.023482   0.028285   0.691853   0.028285  -0.023482   0.000204
     4  C   -0.008830  -0.000248   0.028285  -0.224445  -0.039812   0.000286
     5  C    0.028729  -0.008830  -0.023482  -0.039812   0.482042  -0.003583
     6  H   -0.003583   0.000286   0.000204   0.000286  -0.003583  -0.014239
     7  H   -0.002590  -0.000451   0.000092  -0.000086   0.000248  -0.000247
     8  H   -0.000283   0.001783  -0.001019  -0.000116   0.000055   0.000020
     9  H   -0.000035  -0.000058  -0.000959  -0.000058  -0.000035  -0.000002
    10  H    0.000055  -0.000116  -0.001019   0.001783  -0.000283   0.000020
    11  H    0.000248  -0.000086   0.000092  -0.000451  -0.002590  -0.000247
               7          8          9         10         11
     1  C   -0.002590  -0.000283  -0.000035   0.000055   0.000248
     2  C   -0.000451   0.001783  -0.000058  -0.000116  -0.000086
     3  C    0.000092  -0.001019  -0.000959  -0.001019   0.000092
     4  C   -0.000086  -0.000116  -0.000058   0.001783  -0.000451
     5  C    0.000248   0.000055  -0.000035  -0.000283  -0.002590
     6  H   -0.000247   0.000020  -0.000002   0.000020  -0.000247
     7  H   -0.017031   0.000057   0.000004   0.000000  -0.000064
     8  H    0.000057   0.005826   0.000019   0.000000   0.000000
     9  H    0.000004   0.000019  -0.026756   0.000019   0.000004
    10  H    0.000000   0.000000   0.000019   0.005826   0.000057
    11  H   -0.000064   0.000000   0.000004   0.000057  -0.017031
 Mulliken charges and spin densities:
               1          2
     1  C   -0.328936   0.432459
     2  C   -0.083616  -0.243690
     3  C   -0.051477   0.698852
     4  C   -0.083616  -0.243690
     5  C   -0.328936   0.432459
     6  H    0.364711  -0.021083
     7  H    0.334559  -0.020067
     8  H    0.284498   0.006343
     9  H    0.273756  -0.027856
    10  H    0.284498   0.006343
    11  H    0.334559  -0.020067
 Sum of Mulliken charges =   1.00000   1.00000
 Mulliken charges and spin densities with hydrogens summed into heavy atoms:
               1          2
     1  C    0.370334   0.391309
     2  C    0.200882  -0.237348
     3  C    0.222279   0.670996
     4  C    0.200882  -0.237348
     5  C    0.005622   0.412391
 Electronic spatial extent (au):  <R**2>=            322.4069
 Charge=              1.0000 electrons
 Dipole moment (field-independent basis, Debye):
    X=             -0.0000    Y=              0.0000    Z=             -1.9996  Tot=              1.9996
 Quadrupole moment (field-independent basis, Debye-Ang):
   XX=            -31.5077   YY=            -17.4063   ZZ=            -13.2651
   XY=              0.0000   XZ=              0.0000   YZ=             -0.0000
 Traceless Quadrupole moment (field-independent basis, Debye-Ang):
   XX=            -10.7813   YY=              3.3201   ZZ=              7.4612
   XY=              0.0000   XZ=              0.0000   YZ=             -0.0000
 Octapole moment (field-independent basis, Debye-Ang**2):
  XXX=              0.0000  YYY=             -0.0000  ZZZ=             -7.4334  XYY=             -0.0000
  XXY=             -0.0000  XXZ=              0.7065  XZZ=              0.0000  YZZ=              0.0000
  YYZ=             -2.8664  XYZ=             -0.0000
 Hexadecapole moment (field-independent basis, Debye-Ang**3):
 XXXX=            -31.6226 YYYY=           -147.7850 ZZZZ=           -127.2804 XXXY=             -0.0000
 XXXZ=             -0.0000 YYYX=             -0.0000 YYYZ=             -0.0000 ZZZX=              0.0000
 ZZZY=             -0.0000 XXYY=            -43.1703 XXZZ=            -39.3252 YYZZ=            -42.9837
 XXYZ=             -0.0000 YYXZ=             -0.0000 ZZXY=             -0.0000
 N-N= 1.551468587074D+02 E-N=-7.500361781485D+02  KE= 1.924833041081D+02
 Symmetry A1   KE= 1.112739474973D+02
 Symmetry A2   KE= 2.504033245999D+00
 Symmetry B1   KE= 3.219506664823D+00
 Symmetry B2   KE= 7.548581669989D+01
 Symmetry A1   SP= 1.362095219878D-14
 Symmetry A2   SP= 4.812865535226D-15
 Symmetry B1   SP= 1.000000000000D+00
 Symmetry B2   SP= 2.579483405188D-14
                          Isotropic Fermi Contact Couplings
        Atom                 a.u.       MegaHertz       Gauss      10(-4) cm-1
     1  C(13)              0.06305      70.88161      25.29232      23.64356
     2  C(13)             -0.04267     -47.96674     -17.11573     -15.99998
     3  C(13)              0.09580     107.69835      38.42945      35.92430
     4  C(13)             -0.04267     -47.96674     -17.11573     -15.99998
     5  C(13)              0.06305      70.88161      25.29232      23.64356
     6  H(1)              -0.00773     -34.53149     -12.32170     -11.51847
     7  H(1)              -0.00816     -36.46546     -13.01178     -12.16357
     8  H(1)               0.00237      10.57186       3.77230       3.52639
     9  H(1)              -0.01180     -52.76034     -18.82620     -17.59896
    10  H(1)               0.00237      10.57186       3.77230       3.52639
    11  H(1)              -0.00816     -36.46546     -13.01178     -12.16357
 --------------------------------------------------------
       Center         ----  Spin Dipole Couplings  ----
                      3XX-RR        3YY-RR        3ZZ-RR
 --------------------------------------------------------
     1   Atom        0.442561     -0.215375     -0.227186
     2   Atom       -0.158346      0.077445      0.080901
     3   Atom        0.669407     -0.341953     -0.327454
     4   Atom       -0.158346      0.077445      0.080901
     5   Atom        0.442561     -0.215375     -0.227186
     6   Atom       -0.006393      0.007852     -0.001459
     7   Atom       -0.005880      0.005480      0.000399
     8   Atom       -0.006428      0.001075      0.005353
     9   Atom       -0.007874     -0.043757      0.051631
    10   Atom       -0.006428      0.001075      0.005353
    11   Atom       -0.005880      0.005480      0.000399
 --------------------------------------------------------
                        XY            XZ            YZ
 --------------------------------------------------------
     1   Atom       -0.000000     -0.000000     -0.007896
     2   Atom       -0.000000      0.000000     -0.006510
     3   Atom       -0.000000     -0.000000     -0.000000
     4   Atom       -0.000000     -0.000000      0.006510
     5   Atom        0.000000      0.000000      0.007896
     6   Atom       -0.000000      0.000000      0.000000
     7   Atom        0.000000      0.000000     -0.032564
     8   Atom       -0.000000      0.000000     -0.005007
     9   Atom       -0.000000     -0.000000     -0.000000
    10   Atom        0.000000     -0.000000      0.005007
    11   Atom       -0.000000     -0.000000      0.032564
 --------------------------------------------------------


 ---------------------------------------------------------------------------------
              Anisotropic Spin Dipole Couplings in Principal Axis System
 ---------------------------------------------------------------------------------

       Atom             a.u.   MegaHertz   Gauss  10(-4) cm-1        Axes

              Baa    -0.2311   -31.017   -11.068   -10.346  0.0000  0.4478  0.8941
     1 C(13)  Bbb    -0.2114   -28.371   -10.123    -9.463  0.0000  0.8941 -0.4478
              Bcc     0.4426    59.387    21.191    19.810  1.0000 -0.0000  0.0000
 
              Baa    -0.1583   -21.248    -7.582    -7.088  1.0000  0.0000  0.0000
     2 C(13)  Bbb     0.0724     9.720     3.468     3.242 -0.0000  0.7926  0.6097
              Bcc     0.0859    11.528     4.114     3.845  0.0000 -0.6097  0.7926
 
              Baa    -0.3420   -45.887   -16.374   -15.306 -0.0000  1.0000 -0.0000
     3 C(13)  Bbb    -0.3275   -43.941   -15.679   -14.657  0.0000  0.0000  1.0000
              Bcc     0.6694    89.828    32.053    29.963  1.0000  0.0000 -0.0000
 
              Baa    -0.1583   -21.248    -7.582    -7.088  1.0000  0.0000  0.0000
     4 C(13)  Bbb     0.0724     9.720     3.468     3.242 -0.0000  0.7926 -0.6097
              Bcc     0.0859    11.528     4.114     3.845 -0.0000  0.6097  0.7926
 
              Baa    -0.2311   -31.017   -11.068   -10.346 -0.0000 -0.4478  0.8941
     5 C(13)  Bbb    -0.2114   -28.371   -10.123    -9.463  0.0000  0.8941  0.4478
              Bcc     0.4426    59.387    21.191    19.810  1.0000 -0.0000  0.0000
 
              Baa    -0.0064    -3.411    -1.217    -1.138  1.0000 -0.0000 -0.0000
     6 H(1)   Bbb    -0.0015    -0.778    -0.278    -0.260  0.0000 -0.0000  1.0000
              Bcc     0.0079     4.189     1.495     1.397 -0.0000  1.0000  0.0000
 
              Baa    -0.0297   -15.859    -5.659    -5.290 -0.0000  0.6791  0.7341
     7 H(1)   Bbb    -0.0059    -3.137    -1.119    -1.046  1.0000  0.0000  0.0000
              Bcc     0.0356    18.996     6.778     6.336 -0.0000  0.7341 -0.6791
 
              Baa    -0.0064    -3.429    -1.224    -1.144  1.0000  0.0000  0.0000
     8 H(1)   Bbb    -0.0022    -1.190    -0.425    -0.397 -0.0000  0.8345  0.5510
              Bcc     0.0087     4.620     1.648     1.541  0.0000 -0.5510  0.8345
 
              Baa    -0.0438   -23.347    -8.331    -7.788 -0.0000  1.0000 -0.0000
     9 H(1)   Bbb    -0.0079    -4.201    -1.499    -1.401  1.0000  0.0000 -0.0000
              Bcc     0.0516    27.548     9.830     9.189  0.0000  0.0000  1.0000
 
              Baa    -0.0064    -3.429    -1.224    -1.144  1.0000 -0.0000  0.0000
    10 H(1)   Bbb    -0.0022    -1.190    -0.425    -0.397  0.0000  0.8345 -0.5510
              Bcc     0.0087     4.620     1.648     1.541  0.0000  0.5510  0.8345
 
              Baa    -0.0297   -15.859    -5.659    -5.290  0.0000 -0.6791  0.7341
    11 H(1)   Bbb    -0.0059    -3.137    -1.119    -1.046  1.0000  0.0000  0.0000
              Bcc     0.0356    18.996     6.778     6.336 -0.0000  0.7341  0.6791
 

 ---------------------------------------------------------------------------------

 No NMR shielding tensors so no spin-rotation constants.
 Leave Link  601 at Tue Feb 25 12:22:37 2020, MaxMem=  6710886400 cpu:               6.5 elap:               0.5
 (Enter /opt/ohpc/pub/libs/gaussian/g16-A.03/haswell/g16/l9999.exe)

 Test job not archived.
 1\1\GINC-HASWELL008\SP\ULC-wHPBE\6-31G\C5H6(1+,2)\SMGO234\25-Feb-2020\
 0\\#P uLC-wHPBE/6-31G iop(3/107=0313800000, 3/108=0313800000) scf=(con
 ver=6,fermi,ndamp=35,noincfock,novaracc,vshift=500,xqc)\\H6 C5\\1,2\C,
 0,0.,0.897082,-0.935245\C,0,0.,1.134094,0.425375\C,0,0.,0.,1.243051\C,
 0,0.,-1.134094,0.425375\C,0,0.,-0.897082,-0.935245\H,0,0.,0.,-1.723356
 \H,0,0.,1.622537,-1.745737\H,0,0.,2.164126,0.77433\H,0,0.,0.,2.326294\
 H,0,0.,-2.164126,0.77433\H,0,0.,-1.622537,-1.745737\\Version=ES64L-G16
 RevA.03\State=2-B1\HF=-193.4682234\S2=0.797316\S2-1=0.\S2A=0.751293\RM
 SD=6.162e-07\Dipole=0.,0.,-0.7867073\Quadrupole=-8.0156446,2.4684004,5
 .5472442,0.,0.,0.\PG=C02V [C2(H1C1H1),SGV(C4H4)]\\@


 STEINBACH'S GUIDELINES FOR SYSTEMS PROGRAMMING:
 NEVER TEST FOR AN ERROR CONDITION YOU DON'T KNOW HOW
 TO HANDLE.
 Job cpu time:       0 days  0 hours  0 minutes 53.2 seconds.
 Elapsed time:       0 days  0 hours  0 minutes  3.6 seconds.
 File lengths (MBytes):  RWF=    272 Int=      0 D2E=      0 Chk=     32 Scr=     32
 Normal termination of Gaussian 16 at Tue Feb 25 12:22:37 2020.
