 Entering Gaussian System, Link 0=g16
 Input=1b_tune_n3.gjf
 Output=1b_tune_n3.log
 Initial command:
 /opt/ohpc/pub/libs/gaussian/g16-A.03/haswell/g16/l1.exe "/scratch/smgo234/Ocelot/test/1b/tuning_1b_ocycle1/Gau-39934.inp" -scrdir="/scratch/smgo234/Ocelot/test/1b/tuning_1b_ocycle1/"
 Entering Link 1 = /opt/ohpc/pub/libs/gaussian/g16-A.03/haswell/g16/l1.exe PID=     39935.
  
 Copyright (c) 1988,1990,1992,1993,1995,1998,2003,2009,2016,
            Gaussian, Inc.  All Rights Reserved.
  
 This is part of the Gaussian(R) 16 program.  It is based on
 the Gaussian(R) 09 system (copyright 2009, Gaussian, Inc.),
 the Gaussian(R) 03 system (copyright 2003, Gaussian, Inc.),
 the Gaussian(R) 98 system (copyright 1998, Gaussian, Inc.),
 the Gaussian(R) 94 system (copyright 1995, Gaussian, Inc.),
 the Gaussian 92(TM) system (copyright 1992, Gaussian, Inc.),
 the Gaussian 90(TM) system (copyright 1990, Gaussian, Inc.),
 the Gaussian 88(TM) system (copyright 1988, Gaussian, Inc.),
 the Gaussian 86(TM) system (copyright 1986, Carnegie Mellon
 University), and the Gaussian 82(TM) system (copyright 1983,
 Carnegie Mellon University). Gaussian is a federally registered
 trademark of Gaussian, Inc.
  
 This software contains proprietary and confidential information,
 including trade secrets, belonging to Gaussian, Inc.
  
 This software is provided under written license and may be
 used, copied, transmitted, or stored only in accord with that
 written license.
  
 The following legend is applicable only to US Government
 contracts under FAR:
  
                    RESTRICTED RIGHTS LEGEND
  
 Use, reproduction and disclosure by the US Government is
 subject to restrictions as set forth in subparagraphs (a)
 and (c) of the Commercial Computer Software - Restricted
 Rights clause in FAR 52.227-19.
  
 Gaussian, Inc.
 340 Quinnipiac St., Bldg. 40, Wallingford CT 06492
  
  
 ---------------------------------------------------------------
 Warning -- This program may not be used in any manner that
 competes with the business of Gaussian, Inc. or will provide
 assistance to any competitor of Gaussian, Inc.  The licensee
 of this program is prohibited from giving any competitor of
 Gaussian, Inc. access to this program.  By using this program,
 the user acknowledges that Gaussian, Inc. is engaged in the
 business of creating and licensing software in the field of
 computational chemistry and represents and warrants to the
 licensee that it is not a competitor of Gaussian, Inc. and that
 it will not use this program in any manner prohibited above.
 ---------------------------------------------------------------
  

 Cite this work as:
 Gaussian 16, Revision A.03,
 M. J. Frisch, G. W. Trucks, H. B. Schlegel, G. E. Scuseria, 
 M. A. Robb, J. R. Cheeseman, G. Scalmani, V. Barone, 
 G. A. Petersson, H. Nakatsuji, X. Li, M. Caricato, A. V. Marenich, 
 J. Bloino, B. G. Janesko, R. Gomperts, B. Mennucci, H. P. Hratchian, 
 J. V. Ortiz, A. F. Izmaylov, J. L. Sonnenberg, D. Williams-Young, 
 F. Ding, F. Lipparini, F. Egidi, J. Goings, B. Peng, A. Petrone, 
 T. Henderson, D. Ranasinghe, V. G. Zakrzewski, J. Gao, N. Rega, 
 G. Zheng, W. Liang, M. Hada, M. Ehara, K. Toyota, R. Fukuda, 
 J. Hasegawa, M. Ishida, T. Nakajima, Y. Honda, O. Kitao, H. Nakai, 
 T. Vreven, K. Throssell, J. A. Montgomery, Jr., J. E. Peralta, 
 F. Ogliaro, M. J. Bearpark, J. J. Heyd, E. N. Brothers, K. N. Kudin, 
 V. N. Staroverov, T. A. Keith, R. Kobayashi, J. Normand, 
 K. Raghavachari, A. P. Rendell, J. C. Burant, S. S. Iyengar, 
 J. Tomasi, M. Cossi, J. M. Millam, M. Klene, C. Adamo, R. Cammi, 
 J. W. Ochterski, R. L. Martin, K. Morokuma, O. Farkas, 
 J. B. Foresman, and D. J. Fox, Gaussian, Inc., Wallingford CT, 2016.
 
 ******************************************
 Gaussian 16:  ES64L-G16RevA.03 25-Dec-2016
                25-Feb-2020 
 ******************************************
 %mem=50GB
 %nproc=16
 Will use up to   16 processors via shared memory.
 ----------------------------------------------------------------------
 #P uLC-wHPBE/6-31G iop(3/107=0315600000, 3/108=0315600000) scf=(conver
 =6,fermi,ndamp=35,noincfock,novaracc,vshift=500,xqc)
 ----------------------------------------------------------------------
 1/38=1,172=1/1;
 2/12=2,17=6,18=5,40=1/2;
 3/5=1,6=6,11=2,25=1,30=1,74=-71,107=315600000,108=315600000,116=2/1,2,3;
 4//1;
 5/5=100002,6=6,8=3,10=500,13=1,18=-1,22=13,38=1,93=35/2,8;
 6/7=2,8=2,9=2,10=2,28=1/1;
 99/5=1,9=1/99;
 Leave Link    1 at Tue Feb 25 12:21:56 2020, MaxMem=  6710886400 cpu:               9.2 elap:               0.6
 (Enter /opt/ohpc/pub/libs/gaussian/g16-A.03/haswell/g16/l101.exe)
 -----
 H6 C5
 -----
 Symbolic Z-matrix:
 Charge =  0 Multiplicity = 1
 C                     0.        0.89708  -0.93525 
 C                     0.        1.13409   0.42538 
 C                     0.        0.        1.24305 
 C                     0.       -1.13409   0.42538 
 C                     0.       -0.89708  -0.93525 
 H                     0.        0.       -1.72336 
 H                     0.        1.62254  -1.74574 
 H                     0.        2.16413   0.77433 
 H                     0.        0.        2.32629 
 H                     0.       -2.16413   0.77433 
 H                     0.       -1.62254  -1.74574 
 
 ITRead=  0  0  0  0  0  0  0  0  0  0  0
 MicOpt= -1 -1 -1 -1 -1 -1 -1 -1 -1 -1 -1
 NAtoms=     11 NQM=       11 NQMF=       0 NMMI=      0 NMMIF=      0
                NMic=       0 NMicF=      0.
                    Isotopes and Nuclear Properties:
 (Nuclear quadrupole moments (NQMom) in fm**2, nuclear magnetic moments (NMagM)
  in nuclear magnetons)

  Atom         1           2           3           4           5           6           7           8           9          10
 IAtWgt=          12          12          12          12          12           1           1           1           1           1
 AtmWgt=  12.0000000  12.0000000  12.0000000  12.0000000  12.0000000   1.0078250   1.0078250   1.0078250   1.0078250   1.0078250
 NucSpn=           0           0           0           0           0           1           1           1           1           1
 AtZEff=  -0.0000000  -0.0000000  -0.0000000  -0.0000000  -0.0000000  -0.0000000  -0.0000000  -0.0000000  -0.0000000  -0.0000000
 NQMom=    0.0000000   0.0000000   0.0000000   0.0000000   0.0000000   0.0000000   0.0000000   0.0000000   0.0000000   0.0000000
 NMagM=    0.0000000   0.0000000   0.0000000   0.0000000   0.0000000   2.7928460   2.7928460   2.7928460   2.7928460   2.7928460
 AtZNuc=   6.0000000   6.0000000   6.0000000   6.0000000   6.0000000   1.0000000   1.0000000   1.0000000   1.0000000   1.0000000

  Atom        11
 IAtWgt=           1
 AtmWgt=   1.0078250
 NucSpn=           1
 AtZEff=  -0.0000000
 NQMom=    0.0000000
 NMagM=    2.7928460
 AtZNuc=   1.0000000
 Leave Link  101 at Tue Feb 25 12:21:56 2020, MaxMem=  6710886400 cpu:               2.2 elap:               0.2
 (Enter /opt/ohpc/pub/libs/gaussian/g16-A.03/haswell/g16/l202.exe)
                          Input orientation:                          
 ---------------------------------------------------------------------
 Center     Atomic      Atomic             Coordinates (Angstroms)
 Number     Number       Type             X           Y           Z
 ---------------------------------------------------------------------
      1          6           0        0.000000    0.897082   -0.935245
      2          6           0        0.000000    1.134094    0.425375
      3          6           0        0.000000    0.000000    1.243051
      4          6           0        0.000000   -1.134094    0.425375
      5          6           0        0.000000   -0.897082   -0.935245
      6          1           0        0.000000    0.000000   -1.723356
      7          1           0        0.000000    1.622537   -1.745737
      8          1           0        0.000000    2.164126    0.774330
      9          1           0        0.000000    0.000000    2.326294
     10          1           0        0.000000   -2.164126    0.774330
     11          1           0        0.000000   -1.622537   -1.745737
 ---------------------------------------------------------------------
                    Distance matrix (angstroms):
                    1          2          3          4          5
     1  C    0.000000
     2  C    1.381109   0.000000
     3  C    2.355786   1.398128   0.000000
     4  C    2.444783   2.268188   1.398128   0.000000
     5  C    1.794164   2.444783   2.355786   1.381109   0.000000
     6  H    1.194100   2.429653   2.966407   2.429653   1.194100
     7  H    1.087742   2.225377   3.400806   3.508952   2.646767
     8  H    2.127921   1.087536   2.214304   3.316629   3.506229
     9  H    3.382661   2.213518   1.083243   2.213518   3.382661
    10  H    3.506229   3.316629   2.214304   1.087536   2.127921
    11  H    2.646767   3.508952   3.400806   2.225377   1.087742
                    6          7          8          9         10
     6  H    0.000000
     7  H    1.622691   0.000000
     8  H    3.304826   2.577607   0.000000
     9  H    4.049650   4.383385   2.663087   0.000000
    10  H    3.304826   4.548577   4.328252   2.663087   0.000000
    11  H    1.622691   3.245074   4.548577   4.383385   2.577607
                   11
    11  H    0.000000
 Stoichiometry    C5H6
 Framework group  C2V[C2(HCH),SGV(C4H4)]
 Deg. of freedom    10
 Full point group                 C2V     NOp   4
 Largest Abelian subgroup         C2V     NOp   4
 Largest concise Abelian subgroup C2      NOp   2
                         Standard orientation:                         
 ---------------------------------------------------------------------
 Center     Atomic      Atomic             Coordinates (Angstroms)
 Number     Number       Type             X           Y           Z
 ---------------------------------------------------------------------
      1          6           0        0.000000    0.897082   -0.935245
      2          6           0        0.000000    1.134094    0.425375
      3          6           0        0.000000   -0.000000    1.243051
      4          6           0       -0.000000   -1.134094    0.425375
      5          6           0       -0.000000   -0.897082   -0.935245
      6          1           0       -0.000000    0.000000   -1.723356
      7          1           0        0.000000    1.622537   -1.745737
      8          1           0        0.000000    2.164126    0.774330
      9          1           0        0.000000   -0.000000    2.326294
     10          1           0       -0.000000   -2.164126    0.774330
     11          1           0       -0.000000   -1.622537   -1.745737
 ---------------------------------------------------------------------
 Rotational constants (GHZ):           8.4725427           7.7835829           4.0567316
 Leave Link  202 at Tue Feb 25 12:21:56 2020, MaxMem=  6710886400 cpu:               0.2 elap:               0.0
 (Enter /opt/ohpc/pub/libs/gaussian/g16-A.03/haswell/g16/l301.exe)
 Standard basis: 6-31G (6D, 7F)
 Ernie: Thresh=  0.10000D-02 Tol=  0.10000D-05 Strict=F.
 There are    27 symmetry adapted cartesian basis functions of A1  symmetry.
 There are     4 symmetry adapted cartesian basis functions of A2  symmetry.
 There are     6 symmetry adapted cartesian basis functions of B1  symmetry.
 There are    20 symmetry adapted cartesian basis functions of B2  symmetry.
 There are    27 symmetry adapted basis functions of A1  symmetry.
 There are     4 symmetry adapted basis functions of A2  symmetry.
 There are     6 symmetry adapted basis functions of B1  symmetry.
 There are    20 symmetry adapted basis functions of B2  symmetry.
    57 basis functions,   134 primitive gaussians,    57 cartesian basis functions
    18 alpha electrons       18 beta electrons
       nuclear repulsion energy       155.1468587074 Hartrees.
 IExCor=33909 DFT=T Ex+Corr=LC-wHPBE ExCW=0 ScaHFX=  1.000000
 ScaDFX=  1.000000  1.000000  1.000000  1.000000 ScalE2=  1.000000  1.000000
 IRadAn=      5 IRanWt=     -1 IRanGd=            0 ICorTp=0 IEmpDi=  4
 HFx  wShort=  0.000000 wLong=  0.315600 cFull=  0.000000 cShort=  0.000000 cLong=  1.000000
 DFx  wShort=  0.000000 wLong=  0.315600 cFull=  0.000000 cShort=  1.000000 cLong=  0.000000
 NAtoms=   11 NActive=   11 NUniq=    7 SFac= 2.47D+00 NAtFMM=   60 NAOKFM=F Big=F
 Integral buffers will be    131072 words long.
 Raffenetti 2 integral format.
 Two-electron integral symmetry is turned on.
 Leave Link  301 at Tue Feb 25 12:21:56 2020, MaxMem=  6710886400 cpu:               1.1 elap:               0.1
 (Enter /opt/ohpc/pub/libs/gaussian/g16-A.03/haswell/g16/l302.exe)
 NPDir=0 NMtPBC=     1 NCelOv=     1 NCel=       1 NClECP=     1 NCelD=      1
         NCelK=      1 NCelE2=     1 NClLst=     1 CellRange=     0.0.
 One-electron integrals computed using PRISM.
 One-electron integral symmetry used in STVInt
 NBasis=    57 RedAO= T EigKep=  1.93D-03  NBF=    27     4     6    20
 NBsUse=    57 1.00D-06 EigRej= -1.00D+00 NBFU=    27     4     6    20
 Precomputing XC quadrature grid using
 IXCGrd= 4 IRadAn=           5 IRanWt=          -1 IRanGd=           0 AccXCQ= 0.00D+00.
 Generated NRdTot=       0 NPtTot=           0 NUsed=           0 NTot=          32
 NSgBfM=    57    57    57    57    57 MxSgAt=    11 MxSgA2=    11.
 Leave Link  302 at Tue Feb 25 12:21:57 2020, MaxMem=  6710886400 cpu:               3.1 elap:               0.2
 (Enter /opt/ohpc/pub/libs/gaussian/g16-A.03/haswell/g16/l303.exe)
 DipDrv:  MaxL=1.
 Leave Link  303 at Tue Feb 25 12:21:57 2020, MaxMem=  6710886400 cpu:               0.5 elap:               0.1
 (Enter /opt/ohpc/pub/libs/gaussian/g16-A.03/haswell/g16/l401.exe)
 ExpMin= 1.61D-01 ExpMax= 3.05D+03 ExpMxC= 4.57D+02 IAcc=3 IRadAn=         5 AccDes= 0.00D+00
 Harris functional with IExCor=33909 and IRadAn=       5 diagonalized for initial guess.
 HarFok:  IExCor=33909 AccDes= 0.00D+00 IRadAn=         5 IDoV= 1 UseB2=F ITyADJ=14
 ICtDFT=  3500011 ScaDFX=  1.000000  1.000000  1.000000  1.000000
 FoFCou: FMM=F IPFlag=           0 FMFlag=      100000 FMFlg1=           0
         NFxFlg=           0 DoJE=T BraDBF=F KetDBF=T FulRan=T
         wScrn=  0.000000 ICntrl=       500 IOpCl=  0 I1Cent=   200000004 NGrid=           0
         NMat0=    1 NMatS0=      1 NMatT0=    0 NMatD0=    1 NMtDS0=    0 NMtDT0=    0
 Petite list used in FoFCou.
 Harris En= -188.008120148014    
 JPrj=0 DoOrth=F DoCkMO=F.
 Initial guess orbital symmetries:
 Alpha Orbitals:
       Occupied  (A1) (B2) (A1) (B2) (A1) (A1) (B2) (A1) (A1) (B2)
                 (A1) (B2) (A1) (B2) (A1) (B1) (A2) (B1)
       Virtual   (A2) (B2) (B1) (A1) (A1) (B2) (A1) (B2) (A1) (B2)
                 (A1) (B2) (A1) (B2) (B1) (A1) (A2) (B1) (B2) (A1)
                 (A1) (A2) (B1) (B2) (B2) (A1) (B2) (A1) (A1) (B2)
                 (A1) (A1) (A1) (B2) (A1) (B2) (A1) (A1) (B2)
 Beta  Orbitals:
       Occupied  (A1) (B2) (A1) (B2) (A1) (A1) (B2) (A1) (A1) (B2)
                 (A1) (B2) (A1) (B2) (A1) (B1) (A2) (B1)
       Virtual   (A2) (B2) (B1) (A1) (A1) (B2) (A1) (B2) (A1) (B2)
                 (A1) (B2) (A1) (B2) (B1) (A1) (A2) (B1) (B2) (A1)
                 (A1) (A2) (B1) (B2) (B2) (A1) (B2) (A1) (A1) (B2)
                 (A1) (A1) (A1) (B2) (A1) (B2) (A1) (A1) (B2)
 The electronic state of the initial guess is 1-A1.
 Initial guess <Sx>= 0.0000 <Sy>= 0.0000 <Sz>= 0.0000 <S**2>=-0.0000 S=-0.0000
 Leave Link  401 at Tue Feb 25 12:21:57 2020, MaxMem=  6710886400 cpu:               4.2 elap:               0.3
 (Enter /opt/ohpc/pub/libs/gaussian/g16-A.03/haswell/g16/l502.exe)
 Keep R1 and R2 ints in memory in symmetry-blocked form, NReq=16815681.
 FoFCou: FMM=F IPFlag=           0 FMFlag=           0 FMFlg1=           0
         NFxFlg=           0 DoJE=F BraDBF=F KetDBF=F FulRan=T
         wScrn=  0.000000 ICntrl=       600 IOpCl=  0 I1Cent=           0 NGrid=           0
         NMat0=    1 NMatS0=   1653 NMatT0=    0 NMatD0=    1 NMtDS0=    0 NMtDT0=    0
 Petite list used in FoFCou.
 UHF open shell SCF:
 Using DIIS extrapolation, IDIIS=    10.
 NGot=  6710886400 LenX=  6710059561 LenY=  6710055871
 Requested convergence on RMS density matrix=1.00D-06 within  32 cycles.
 Requested convergence on MAX density matrix=1.00D-04.
 Requested convergence on             energy=1.00D-04.
 Virtual orbitals will be shifted by   0.500 hartree.
 No special actions if energy rises.
 Dynamic level shift is on during FON iterations.

 Cycle   1  Pass 1  IDiag  1:
 E= -193.652349533798    
 DIIS: error= 4.13D-02 at cycle   1 NSaved=   1.
 NSaved= 1 IEnMin= 1 EnMin= -193.652349533798     IErMin= 1 ErrMin= 4.13D-02
 ErrMax= 4.13D-02  0.00D+00 EMaxC= 1.00D+00 BMatC= 3.11D-01 BMatP= 3.11D-01
 IDIUse=1 WtCom= 1.00D+00 WtEn= 0.00D+00
 Coeff-Com:  0.100D+01
 Coeff:      0.100D+01
 Gap=     0.337 Goal=   None    Shift=    0.500
 T= 1689. Gap= 0.796 NK=0 IS=   19 IE=   57 IFin=   18
          NO(<0.9)=   0  NV(>0.1)=   0     18.00e < EF      0.00e >EF  Err=0.0D+00
 Gap=     0.337 Goal=   None    Shift=    0.500
 T= 1689. Gap= 0.796 NK=0 IS=   19 IE=   57 IFin=   18
          NO(<0.9)=   0  NV(>0.1)=   0     18.00e < EF      0.00e >EF  Err=0.0D+00
 GapD=    0.337 DampG=1.000 DampE=0.500 DampFc=0.5000 IDamp=-1.
 Damping current iteration by 5.00D-01
 RMSDP=6.74D-03 MaxDP=5.77D-02              OVMax= 7.64D-02

 Cycle   2  Pass 1  IDiag  1:
 E= -193.709622516531     Delta-E=       -0.057272982733 Rises=F Damp=T
 DIIS: error= 1.86D-02 at cycle   2 NSaved=   2.
 NSaved= 2 IEnMin= 2 EnMin= -193.709622516531     IErMin= 2 ErrMin= 1.86D-02
 ErrMax= 1.86D-02  0.00D+00 EMaxC= 1.00D+00 BMatC= 6.09D-02 BMatP= 3.11D-01
 IDIUse=1 WtCom= 1.00D+00 WtEn= 0.00D+00
 Coeff-Com: -0.709D+00 0.171D+01
 Coeff:     -0.709D+00 0.171D+01
 Gap=     0.399 Goal=   None    Shift=    0.500
 T= 1567. Gap= 0.885 NK=0 IS=   19 IE=   57 IFin=   18
          NO(<0.9)=   0  NV(>0.1)=   0     18.00e < EF      0.00e >EF  Err=0.0D+00
 Gap=     0.399 Goal=   None    Shift=    0.500
 T= 1567. Gap= 0.885 NK=0 IS=   19 IE=   57 IFin=   18
          NO(<0.9)=   0  NV(>0.1)=   0     18.00e < EF      0.00e >EF  Err=0.0D+00
 GapD=    0.399 DampG=1.000 DampE=0.500 DampFc=0.5000 IDamp=-1.
 Damping current iteration by 5.00D-01
 RMSDP=3.71D-03 MaxDP=2.32D-02 DE=-5.73D-02 OVMax= 7.96D-03

 Cycle   3  Pass 1  IDiag  1:
 E= -193.730361116830     Delta-E=       -0.020738600299 Rises=F Damp=T
 DIIS: error= 8.63D-03 at cycle   3 NSaved=   3.
 NSaved= 3 IEnMin= 3 EnMin= -193.730361116830     IErMin= 3 ErrMin= 8.63D-03
 ErrMax= 8.63D-03  0.00D+00 EMaxC= 1.00D+00 BMatC= 1.31D-02 BMatP= 6.09D-02
 IDIUse=1 WtCom= 1.00D+00 WtEn= 0.00D+00
 Coeff-Com:  0.159D+00-0.133D+01 0.217D+01
 Coeff:      0.159D+00-0.133D+01 0.217D+01
 Gap=     0.385 Goal=   None    Shift=    0.500
 T= 1333. Gap= 0.884 NK=0 IS=   19 IE=   57 IFin=   18
          NO(<0.9)=   0  NV(>0.1)=   0     18.00e < EF      0.00e >EF  Err=0.0D+00
 Gap=     0.385 Goal=   None    Shift=    0.500
 T= 1333. Gap= 0.884 NK=0 IS=   19 IE=   57 IFin=   18
          NO(<0.9)=   0  NV(>0.1)=   0     18.00e < EF      0.00e >EF  Err=0.0D+00
 GapD=    0.385 DampG=1.000 DampE=1.000 DampFc=1.0000 IDamp=-1.
 RMSDP=1.95D-03 MaxDP=1.21D-02 DE=-2.07D-02 OVMax= 6.94D-03

 Cycle   4  Pass 1  IDiag  1:
 E= -193.747557120174     Delta-E=       -0.017196003344 Rises=F Damp=F
 DIIS: error= 1.59D-03 at cycle   4 NSaved=   4.
 NSaved= 4 IEnMin= 4 EnMin= -193.747557120174     IErMin= 4 ErrMin= 1.59D-03
 ErrMax= 1.59D-03  0.00D+00 EMaxC= 1.00D+00 BMatC= 3.80D-04 BMatP= 1.31D-02
 IDIUse=1 WtCom= 1.00D+00 WtEn= 0.00D+00
 Coeff-Com:  0.113D+00-0.671D-01-0.323D+00 0.128D+01
 Coeff:      0.113D+00-0.671D-01-0.323D+00 0.128D+01
 Gap=     0.389 Goal=   None    Shift=    0.500
 T=  812. Gap= 0.888 NK=0 IS=   19 IE=   57 IFin=   18
          NO(<0.9)=   0  NV(>0.1)=   0     18.00e < EF      0.00e >EF  Err=0.0D+00
 Gap=     0.389 Goal=   None    Shift=    0.500
 T=  812. Gap= 0.888 NK=0 IS=   19 IE=   57 IFin=   18
          NO(<0.9)=   0  NV(>0.1)=   0     18.00e < EF      0.00e >EF  Err=0.0D+00
 GapD=    0.389 DampG=1.000 DampE=1.000 DampFc=1.0000 IDamp=-1.
 RMSDP=3.47D-04 MaxDP=3.06D-03 DE=-1.72D-02 OVMax= 3.25D-03

 Cycle   5  Pass 1  IDiag  1:
 E= -193.747731386553     Delta-E=       -0.000174266380 Rises=F Damp=F
 DIIS: error= 9.14D-04 at cycle   5 NSaved=   5.
 NSaved= 5 IEnMin= 5 EnMin= -193.747731386553     IErMin= 5 ErrMin= 9.14D-04
 ErrMax= 9.14D-04  0.00D+00 EMaxC= 1.00D+00 BMatC= 6.31D-05 BMatP= 3.80D-04
 IDIUse=1 WtCom= 1.00D+00 WtEn= 0.00D+00
 Coeff-Com: -0.506D-01 0.233D+00-0.287D+00-0.700D+00 0.181D+01
 Coeff:     -0.506D-01 0.233D+00-0.287D+00-0.700D+00 0.181D+01
 Gap=     0.389 Goal=   None    Shift=    0.500
 Gap=     0.389 Goal=   None    Shift=    0.500
 RMSDP=2.08D-04 MaxDP=1.84D-03 DE=-1.74D-04 OVMax= 2.86D-03

 Cycle   6  Pass 1  IDiag  1:
 E= -193.747781651661     Delta-E=       -0.000050265108 Rises=F Damp=F
 DIIS: error= 6.14D-04 at cycle   6 NSaved=   6.
 NSaved= 6 IEnMin= 6 EnMin= -193.747781651661     IErMin= 6 ErrMin= 6.14D-04
 ErrMax= 6.14D-04  0.00D+00 EMaxC= 1.00D+00 BMatC= 1.45D-05 BMatP= 6.31D-05
 IDIUse=1 WtCom= 1.00D+00 WtEn= 0.00D+00
 Coeff-Com:  0.423D-02-0.798D-01 0.140D+00 0.234D+00-0.183D+01 0.253D+01
 Coeff:      0.423D-02-0.798D-01 0.140D+00 0.234D+00-0.183D+01 0.253D+01
 Gap=     0.389 Goal=   None    Shift=    0.500
 Gap=     0.389 Goal=   None    Shift=    0.500
 RMSDP=1.10D-04 MaxDP=9.06D-04 DE=-5.03D-05 OVMax= 1.84D-03

 Cycle   7  Pass 1  IDiag  1:
 E= -193.747796585259     Delta-E=       -0.000014933597 Rises=F Damp=F
 DIIS: error= 3.85D-04 at cycle   7 NSaved=   7.
 NSaved= 7 IEnMin= 7 EnMin= -193.747796585259     IErMin= 7 ErrMin= 3.85D-04
 ErrMax= 3.85D-04  0.00D+00 EMaxC= 1.00D+00 BMatC= 4.02D-06 BMatP= 1.45D-05
 IDIUse=1 WtCom= 1.00D+00 WtEn= 0.00D+00
 Coeff-Com: -0.364D-02 0.769D-01-0.142D+00 0.596D-01 0.782D+00-0.283D+01
 Coeff-Com:  0.305D+01
 Coeff:     -0.364D-02 0.769D-01-0.142D+00 0.596D-01 0.782D+00-0.283D+01
 Coeff:      0.305D+01
 Gap=     0.389 Goal=   None    Shift=    0.500
 Gap=     0.389 Goal=   None    Shift=    0.500
 RMSDP=5.03D-05 MaxDP=4.14D-04 DE=-1.49D-05 OVMax= 1.09D-03

 Cycle   8  Pass 1  IDiag  1:
 E= -193.747800800436     Delta-E=       -0.000004215177 Rises=F Damp=F
 DIIS: error= 2.36D-04 at cycle   8 NSaved=   8.
 NSaved= 8 IEnMin= 8 EnMin= -193.747800800436     IErMin= 8 ErrMin= 2.36D-04
 ErrMax= 2.36D-04  0.00D+00 EMaxC= 1.00D+00 BMatC= 1.34D-06 BMatP= 4.02D-06
 IDIUse=1 WtCom= 1.00D+00 WtEn= 0.00D+00
 Coeff-Com: -0.409D-02 0.562D-01-0.982D-01 0.258D-01 0.504D+00-0.135D+01
 Coeff-Com:  0.400D+00 0.147D+01
 Coeff:     -0.409D-02 0.562D-01-0.982D-01 0.258D-01 0.504D+00-0.135D+01
 Coeff:      0.400D+00 0.147D+01
 Gap=     0.389 Goal=   None    Shift=    0.500
 Gap=     0.389 Goal=   None    Shift=    0.500
 RMSDP=2.27D-05 MaxDP=1.80D-04 DE=-4.22D-06 OVMax= 6.07D-04

 Cycle   9  Pass 1  IDiag  1:
 E= -193.747801960644     Delta-E=       -0.000001160207 Rises=F Damp=F
 DIIS: error= 1.32D-04 at cycle   9 NSaved=   9.
 NSaved= 9 IEnMin= 9 EnMin= -193.747801960644     IErMin= 9 ErrMin= 1.32D-04
 ErrMax= 1.32D-04  0.00D+00 EMaxC= 1.00D+00 BMatC= 4.26D-07 BMatP= 1.34D-06
 IDIUse=1 WtCom= 1.00D+00 WtEn= 0.00D+00
 Coeff-Com: -0.108D-02 0.498D-02-0.642D-02 0.934D-02-0.616D-01 0.382D+00
 Coeff-Com: -0.881D+00-0.241D+00 0.179D+01
 Coeff:     -0.108D-02 0.498D-02-0.642D-02 0.934D-02-0.616D-01 0.382D+00
 Coeff:     -0.881D+00-0.241D+00 0.179D+01
 Gap=     0.389 Goal=   None    Shift=    0.500
 Gap=     0.389 Goal=   None    Shift=    0.500
 RMSDP=1.10D-05 MaxDP=9.89D-05 DE=-1.16D-06 OVMax= 3.27D-04

 Cycle  10  Pass 1  IDiag  1:
 E= -193.747802283011     Delta-E=       -0.000000322367 Rises=F Damp=F
 DIIS: error= 7.59D-05 at cycle  10 NSaved=  10.
 NSaved=10 IEnMin=10 EnMin= -193.747802283011     IErMin=10 ErrMin= 7.59D-05
 ErrMax= 7.59D-05  0.00D+00 EMaxC= 1.00D+00 BMatC= 1.41D-07 BMatP= 4.26D-07
 IDIUse=1 WtCom= 1.00D+00 WtEn= 0.00D+00
 Coeff-Com:  0.766D-03-0.437D-02 0.567D-02 0.108D-01-0.551D-01 0.175D-01
 Coeff-Com:  0.402D+00-0.768D+00-0.908D+00 0.230D+01
 Coeff:      0.766D-03-0.437D-02 0.567D-02 0.108D-01-0.551D-01 0.175D-01
 Coeff:      0.402D+00-0.768D+00-0.908D+00 0.230D+01
 Gap=     0.389 Goal=   None    Shift=    0.500
 Gap=     0.389 Goal=   None    Shift=    0.500
 RMSDP=5.39D-06 MaxDP=5.05D-05 DE=-3.22D-07 OVMax= 1.80D-04

 Cycle  11  Pass 1  IDiag  1:
 E= -193.747802374900     Delta-E=       -0.000000091890 Rises=F Damp=F
 DIIS: error= 4.29D-05 at cycle  11 NSaved=  11.
 NSaved=11 IEnMin=11 EnMin= -193.747802374900     IErMin=11 ErrMin= 4.29D-05
 ErrMax= 4.29D-05  0.00D+00 EMaxC= 1.00D+00 BMatC= 4.63D-08 BMatP= 1.41D-07
 IDIUse=1 WtCom= 1.00D+00 WtEn= 0.00D+00
 Coeff-Com: -0.250D-03 0.236D-02-0.384D-02 0.462D-03 0.171D-01-0.229D-01
 Coeff-Com: -0.286D-01 0.662D-01 0.360D+00-0.220D+01 0.281D+01
 Coeff:     -0.250D-03 0.236D-02-0.384D-02 0.462D-03 0.171D-01-0.229D-01
 Coeff:     -0.286D-01 0.662D-01 0.360D+00-0.220D+01 0.281D+01
 Gap=     0.389 Goal=   None    Shift=    0.500
 Gap=     0.389 Goal=   None    Shift=    0.500
 RMSDP=2.66D-06 MaxDP=2.60D-05 DE=-9.19D-08 OVMax= 9.91D-05

 Cycle  12  Pass 1  IDiag  1:
 E= -193.747802401761     Delta-E=       -0.000000026860 Rises=F Damp=F
 DIIS: error= 2.37D-05 at cycle  12 NSaved=  12.
 NSaved=12 IEnMin=12 EnMin= -193.747802401761     IErMin=12 ErrMin= 2.37D-05
 ErrMax= 2.37D-05  0.00D+00 EMaxC= 1.00D+00 BMatC= 1.46D-08 BMatP= 4.63D-08
 IDIUse=1 WtCom= 1.00D+00 WtEn= 0.00D+00
 Coeff-Com:  0.490D-04-0.502D-03 0.807D-03 0.175D-02-0.138D-01 0.278D-01
 Coeff-Com: -0.646D-02-0.601D-01 0.155D-01 0.830D+00-0.311D+01 0.331D+01
 Coeff:      0.490D-04-0.502D-03 0.807D-03 0.175D-02-0.138D-01 0.278D-01
 Coeff:     -0.646D-02-0.601D-01 0.155D-01 0.830D+00-0.311D+01 0.331D+01
 Gap=     0.389 Goal=   None    Shift=    0.500
 Gap=     0.389 Goal=   None    Shift=    0.500
 RMSDP=1.35D-06 MaxDP=1.31D-05 DE=-2.69D-08 OVMax= 5.37D-05

 Cycle  13  Pass 1  IDiag  1:
 E= -193.747802409492     Delta-E=       -0.000000007731 Rises=F Damp=F
 DIIS: error= 1.31D-05 at cycle  13 NSaved=  13.
 NSaved=13 IEnMin=13 EnMin= -193.747802409492     IErMin=13 ErrMin= 1.31D-05
 ErrMax= 1.31D-05  0.00D+00 EMaxC= 1.00D+00 BMatC= 4.63D-09 BMatP= 1.46D-08
 IDIUse=1 WtCom= 1.00D+00 WtEn= 0.00D+00
 Coeff-Com:  0.628D-04-0.371D-03 0.488D-03 0.870D-03-0.486D-02 0.534D-02
 Coeff-Com:  0.235D-01-0.545D-01-0.222D-01-0.478D-01 0.106D+01-0.335D+01
 Coeff-Com:  0.339D+01
 Coeff:      0.628D-04-0.371D-03 0.488D-03 0.870D-03-0.486D-02 0.534D-02
 Coeff:      0.235D-01-0.545D-01-0.222D-01-0.478D-01 0.106D+01-0.335D+01
 Coeff:      0.339D+01
 Gap=     0.389 Goal=   None    Shift=    0.500
 Gap=     0.389 Goal=   None    Shift=    0.500
 RMSDP=6.95D-07 MaxDP=6.92D-06 DE=-7.73D-09 OVMax= 2.89D-05

 SCF Done:  E(ULC-wHPBE) =  -193.747802409     A.U. after   13 cycles
            NFock= 13  Conv=0.69D-06     -V/T= 2.0060
 <Sx>= 0.0000 <Sy>= 0.0000 <Sz>= 0.0000 <S**2>=-0.0000 S=-0.0000
 <L.S>= 0.000000000000E+00
 KE= 1.925934880377D+02 PE=-7.590832981146D+02 EE= 2.175951489600D+02
 Annihilation of the first spin contaminant:
 S**2 before annihilation    -0.0000,   after     0.0000
 Leave Link  502 at Tue Feb 25 12:21:58 2020, MaxMem=  6710886400 cpu:              18.0 elap:               1.1
 (Enter /opt/ohpc/pub/libs/gaussian/g16-A.03/haswell/g16/l508.exe)
 QCSCF skips out because SCF is already converged.
 Leave Link  508 at Tue Feb 25 12:21:58 2020, MaxMem=  6710886400 cpu:               0.3 elap:               0.0
 (Enter /opt/ohpc/pub/libs/gaussian/g16-A.03/haswell/g16/l601.exe)
 Copying SCF densities to generalized density rwf, IOpCl= 1 IROHF=0.

 **********************************************************************

            Population analysis using the SCF density.

 **********************************************************************

 Orbital symmetries:
 Alpha Orbitals:
       Occupied  (B2) (A1) (B2) (A1) (A1) (A1) (A1) (B2) (A1) (B2)
                 (A1) (B2) (A1) (A1) (B2) (B1) (A2) (B1)
       Virtual   (B2) (A2) (A1) (B1) (A1) (B2) (A1) (B2) (A1) (A1)
                 (B2) (A1) (B2) (B2) (B1) (A2) (B1) (A1) (A1) (B2)
                 (A1) (A2) (B1) (B2) (B2) (A1) (B2) (A1) (A1) (A1)
                 (B2) (A1) (A1) (B2) (A1) (B2) (A1) (A1) (B2)
 Beta  Orbitals:
       Occupied  (B2) (A1) (B2) (A1) (A1) (A1) (A1) (B2) (A1) (B2)
                 (A1) (B2) (A1) (A1) (B2) (B1) (A2) (B1)
       Virtual   (B2) (A2) (A1) (B1) (A1) (B2) (A1) (B2) (A1) (A1)
                 (B2) (A1) (B2) (B2) (B1) (A2) (B1) (A1) (A1) (B2)
                 (A1) (A2) (B1) (B2) (B2) (A1) (B2) (A1) (A1) (A1)
                 (B2) (A1) (A1) (B2) (A1) (B2) (A1) (A1) (B2)
 The electronic state is 1-A1.
 Alpha  occ. eigenvalues --  -10.10840 -10.10836 -10.07038 -10.07038 -10.03592
 Alpha  occ. eigenvalues --   -0.97501  -0.84809  -0.82262  -0.67797  -0.66593
 Alpha  occ. eigenvalues --   -0.62418  -0.51973  -0.50823  -0.47847  -0.46649
 Alpha  occ. eigenvalues --   -0.46088  -0.32470  -0.27953
 Alpha virt. eigenvalues --    0.10944   0.11334   0.16659   0.18841   0.19793
 Alpha virt. eigenvalues --    0.24369   0.26254   0.27835   0.28752   0.41698
 Alpha virt. eigenvalues --    0.42588   0.52300   0.53640   0.62148   0.64008
 Alpha virt. eigenvalues --    0.70666   0.71528   0.71658   0.73485   0.75021
 Alpha virt. eigenvalues --    0.75996   0.77105   0.79647   0.86816   0.92625
 Alpha virt. eigenvalues --    0.95387   0.97107   0.97370   0.99490   1.06090
 Alpha virt. eigenvalues --    1.06167   1.10118   1.13731   1.20077   1.28188
 Alpha virt. eigenvalues --    1.29929   1.36058   1.57735   1.58713
  Beta  occ. eigenvalues --  -10.10840 -10.10836 -10.07038 -10.07038 -10.03592
  Beta  occ. eigenvalues --   -0.97501  -0.84809  -0.82262  -0.67797  -0.66593
  Beta  occ. eigenvalues --   -0.62418  -0.51973  -0.50823  -0.47847  -0.46649
  Beta  occ. eigenvalues --   -0.46088  -0.32470  -0.27953
  Beta virt. eigenvalues --    0.10944   0.11334   0.16659   0.18841   0.19793
  Beta virt. eigenvalues --    0.24369   0.26254   0.27835   0.28752   0.41698
  Beta virt. eigenvalues --    0.42588   0.52300   0.53640   0.62148   0.64008
  Beta virt. eigenvalues --    0.70666   0.71528   0.71658   0.73485   0.75021
  Beta virt. eigenvalues --    0.75996   0.77105   0.79647   0.86816   0.92625
  Beta virt. eigenvalues --    0.95387   0.97107   0.97370   0.99490   1.06090
  Beta virt. eigenvalues --    1.06167   1.10118   1.13731   1.20077   1.28188
  Beta virt. eigenvalues --    1.29929   1.36058   1.57735   1.58713
          Condensed to atoms (all electrons):
               1          2          3          4          5          6
     1  C    5.423090   0.475303  -0.053504  -0.128675   0.252332   0.170311
     2  C    0.475303   4.899609   0.557675  -0.012443  -0.128675  -0.021481
     3  C   -0.053504   0.557675   4.813005   0.557675  -0.053504   0.004809
     4  C   -0.128675  -0.012443   0.557675   4.899609   0.475303  -0.021481
     5  C    0.252332  -0.128675  -0.053504   0.475303   5.423090   0.170311
     6  H    0.170311  -0.021481   0.004809  -0.021481   0.170311   0.402852
     7  H    0.346388  -0.001067   0.000076   0.004030  -0.023895  -0.011253
     8  H   -0.037900   0.364130  -0.016658   0.004622   0.001815   0.000962
     9  H    0.006753  -0.040444   0.375400  -0.040444   0.006753  -0.000100
    10  H    0.001815   0.004622  -0.016658   0.364130  -0.037900   0.000962
    11  H   -0.023895   0.004030   0.000076  -0.001067   0.346388  -0.011253
               7          8          9         10         11
     1  C    0.346388  -0.037900   0.006753   0.001815  -0.023895
     2  C   -0.001067   0.364130  -0.040444   0.004622   0.004030
     3  C    0.000076  -0.016658   0.375400  -0.016658   0.000076
     4  C    0.004030   0.004622  -0.040444   0.364130  -0.001067
     5  C   -0.023895   0.001815   0.006753  -0.037900   0.346388
     6  H   -0.011253   0.000962  -0.000100   0.000962  -0.011253
     7  H    0.466080  -0.000346  -0.000104  -0.000036   0.000761
     8  H   -0.000346   0.515437  -0.002435  -0.000166  -0.000036
     9  H   -0.000104  -0.002435   0.557463  -0.002435  -0.000104
    10  H   -0.000036  -0.000166  -0.002435   0.515437  -0.000346
    11  H    0.000761  -0.000036  -0.000104  -0.000346   0.466080
          Atomic-Atomic Spin Densities.
               1          2          3          4          5          6
     1  C    0.000000   0.000000   0.000000   0.000000   0.000000   0.000000
     2  C    0.000000   0.000000   0.000000   0.000000   0.000000   0.000000
     3  C    0.000000   0.000000   0.000000   0.000000   0.000000   0.000000
     4  C    0.000000   0.000000   0.000000   0.000000   0.000000   0.000000
     5  C    0.000000   0.000000   0.000000   0.000000   0.000000   0.000000
     6  H    0.000000   0.000000   0.000000   0.000000   0.000000   0.000000
     7  H    0.000000   0.000000   0.000000   0.000000   0.000000   0.000000
     8  H    0.000000   0.000000   0.000000   0.000000   0.000000   0.000000
     9  H    0.000000   0.000000   0.000000   0.000000   0.000000   0.000000
    10  H    0.000000   0.000000   0.000000   0.000000   0.000000   0.000000
    11  H    0.000000   0.000000   0.000000   0.000000   0.000000   0.000000
               7          8          9         10         11
     1  C    0.000000   0.000000   0.000000   0.000000   0.000000
     2  C    0.000000   0.000000   0.000000   0.000000   0.000000
     3  C    0.000000   0.000000   0.000000   0.000000   0.000000
     4  C    0.000000   0.000000   0.000000   0.000000   0.000000
     5  C    0.000000   0.000000   0.000000   0.000000   0.000000
     6  H    0.000000   0.000000   0.000000   0.000000   0.000000
     7  H    0.000000   0.000000   0.000000   0.000000   0.000000
     8  H    0.000000   0.000000   0.000000   0.000000   0.000000
     9  H    0.000000   0.000000   0.000000   0.000000   0.000000
    10  H    0.000000   0.000000   0.000000   0.000000   0.000000
    11  H    0.000000   0.000000   0.000000   0.000000   0.000000
 Mulliken charges and spin densities:
               1          2
     1  C   -0.432018   0.000000
     2  C   -0.101257   0.000000
     3  C   -0.168391   0.000000
     4  C   -0.101257   0.000000
     5  C   -0.432018   0.000000
     6  H    0.315360   0.000000
     7  H    0.219366   0.000000
     8  H    0.170576   0.000000
     9  H    0.139698   0.000000
    10  H    0.170576   0.000000
    11  H    0.219366   0.000000
 Sum of Mulliken charges =  -0.00000   0.00000
 Mulliken charges and spin densities with hydrogens summed into heavy atoms:
               1          2
     1  C    0.102707   0.000000
     2  C    0.069319   0.000000
     3  C   -0.028693   0.000000
     4  C    0.069319   0.000000
     5  C   -0.212652   0.000000
 Electronic spatial extent (au):  <R**2>=            340.0028
 Charge=             -0.0000 electrons
 Dipole moment (field-independent basis, Debye):
    X=             -0.0000    Y=             -0.0000    Z=             -1.9442  Tot=              1.9442
 Quadrupole moment (field-independent basis, Debye-Ang):
   XX=            -35.6574   YY=            -26.0429   ZZ=            -24.1459
   XY=              0.0000   XZ=              0.0000   YZ=             -0.0000
 Traceless Quadrupole moment (field-independent basis, Debye-Ang):
   XX=             -7.0420   YY=              2.5725   ZZ=              4.4695
   XY=              0.0000   XZ=              0.0000   YZ=             -0.0000
 Octapole moment (field-independent basis, Debye-Ang**2):
  XXX=              0.0000  YYY=             -0.0000  ZZZ=             -8.7656  XYY=              0.0000
  XXY=             -0.0000  XXZ=              0.8874  XZZ=              0.0000  YZZ=              0.0000
  YYZ=             -1.0437  XYZ=             -0.0000
 Hexadecapole moment (field-independent basis, Debye-Ang**3):
 XXXX=            -38.4604 YYYY=           -190.7337 ZZZZ=           -176.2489 XXXY=             -0.0000
 XXXZ=             -0.0000 YYYX=             -0.0000 YYYZ=              0.0000 ZZZX=             -0.0000
 ZZZY=             -0.0000 XXYY=            -48.3627 XXZZ=            -46.9056 YYZZ=            -59.9640
 XXYZ=              0.0000 YYXZ=             -0.0000 ZZXY=             -0.0000
 N-N= 1.551468587074D+02 E-N=-7.590832757285D+02  KE= 1.925934880377D+02
 Symmetry A1   KE= 1.108232657879D+02
 Symmetry A2   KE= 2.398961732038D+00
 Symmetry B1   KE= 4.202693121588D+00
 Symmetry B2   KE= 7.516856739619D+01
 Symmetry A1   SP= 0.000000000000D+00
 Symmetry A2   SP= 0.000000000000D+00
 Symmetry B1   SP= 0.000000000000D+00
 Symmetry B2   SP= 0.000000000000D+00
                          Isotropic Fermi Contact Couplings
        Atom                 a.u.       MegaHertz       Gauss      10(-4) cm-1
     1  C(13)              0.00000       0.00000       0.00000       0.00000
     2  C(13)              0.00000       0.00000       0.00000       0.00000
     3  C(13)              0.00000       0.00000       0.00000       0.00000
     4  C(13)              0.00000       0.00000       0.00000       0.00000
     5  C(13)              0.00000       0.00000       0.00000       0.00000
     6  H(1)               0.00000       0.00000       0.00000       0.00000
     7  H(1)               0.00000       0.00000       0.00000       0.00000
     8  H(1)               0.00000       0.00000       0.00000       0.00000
     9  H(1)               0.00000       0.00000       0.00000       0.00000
    10  H(1)               0.00000       0.00000       0.00000       0.00000
    11  H(1)               0.00000       0.00000       0.00000       0.00000
 --------------------------------------------------------
       Center         ----  Spin Dipole Couplings  ----
                      3XX-RR        3YY-RR        3ZZ-RR
 --------------------------------------------------------
     1   Atom        0.000000      0.000000      0.000000
     2   Atom        0.000000      0.000000      0.000000
     3   Atom        0.000000      0.000000      0.000000
     4   Atom        0.000000      0.000000      0.000000
     5   Atom        0.000000      0.000000      0.000000
     6   Atom        0.000000      0.000000      0.000000
     7   Atom        0.000000      0.000000      0.000000
     8   Atom        0.000000      0.000000      0.000000
     9   Atom        0.000000      0.000000      0.000000
    10   Atom        0.000000      0.000000      0.000000
    11   Atom        0.000000      0.000000      0.000000
 --------------------------------------------------------
                        XY            XZ            YZ
 --------------------------------------------------------
     1   Atom        0.000000      0.000000      0.000000
     2   Atom        0.000000      0.000000      0.000000
     3   Atom        0.000000      0.000000      0.000000
     4   Atom        0.000000      0.000000      0.000000
     5   Atom        0.000000      0.000000      0.000000
     6   Atom        0.000000      0.000000      0.000000
     7   Atom        0.000000      0.000000      0.000000
     8   Atom        0.000000      0.000000      0.000000
     9   Atom        0.000000      0.000000      0.000000
    10   Atom        0.000000      0.000000      0.000000
    11   Atom        0.000000      0.000000      0.000000
 --------------------------------------------------------


 ---------------------------------------------------------------------------------
              Anisotropic Spin Dipole Couplings in Principal Axis System
 ---------------------------------------------------------------------------------

       Atom             a.u.   MegaHertz   Gauss  10(-4) cm-1        Axes

              Baa     0.0000     0.000     0.000     0.000  1.0000  0.0000  0.0000
     1 C(13)  Bbb     0.0000     0.000     0.000     0.000 -0.0000  1.0000  0.0000
              Bcc     0.0000     0.000     0.000     0.000  0.0000  0.0000  1.0000
 
              Baa     0.0000     0.000     0.000     0.000  1.0000  0.0000  0.0000
     2 C(13)  Bbb     0.0000     0.000     0.000     0.000 -0.0000  1.0000  0.0000
              Bcc     0.0000     0.000     0.000     0.000  0.0000  0.0000  1.0000
 
              Baa     0.0000     0.000     0.000     0.000  1.0000  0.0000  0.0000
     3 C(13)  Bbb     0.0000     0.000     0.000     0.000 -0.0000  1.0000  0.0000
              Bcc     0.0000     0.000     0.000     0.000  0.0000  0.0000  1.0000
 
              Baa     0.0000     0.000     0.000     0.000  1.0000  0.0000  0.0000
     4 C(13)  Bbb     0.0000     0.000     0.000     0.000 -0.0000  1.0000  0.0000
              Bcc     0.0000     0.000     0.000     0.000  0.0000  0.0000  1.0000
 
              Baa     0.0000     0.000     0.000     0.000  1.0000  0.0000  0.0000
     5 C(13)  Bbb     0.0000     0.000     0.000     0.000 -0.0000  1.0000  0.0000
              Bcc     0.0000     0.000     0.000     0.000  0.0000  0.0000  1.0000
 
              Baa     0.0000     0.000     0.000     0.000  1.0000  0.0000  0.0000
     6 H(1)   Bbb     0.0000     0.000     0.000     0.000 -0.0000  1.0000  0.0000
              Bcc     0.0000     0.000     0.000     0.000  0.0000  0.0000  1.0000
 
              Baa     0.0000     0.000     0.000     0.000  1.0000  0.0000  0.0000
     7 H(1)   Bbb     0.0000     0.000     0.000     0.000 -0.0000  1.0000  0.0000
              Bcc     0.0000     0.000     0.000     0.000  0.0000  0.0000  1.0000
 
              Baa     0.0000     0.000     0.000     0.000  1.0000  0.0000  0.0000
     8 H(1)   Bbb     0.0000     0.000     0.000     0.000 -0.0000  1.0000  0.0000
              Bcc     0.0000     0.000     0.000     0.000  0.0000  0.0000  1.0000
 
              Baa     0.0000     0.000     0.000     0.000  1.0000  0.0000  0.0000
     9 H(1)   Bbb     0.0000     0.000     0.000     0.000 -0.0000  1.0000  0.0000
              Bcc     0.0000     0.000     0.000     0.000  0.0000  0.0000  1.0000
 
              Baa     0.0000     0.000     0.000     0.000  1.0000  0.0000  0.0000
    10 H(1)   Bbb     0.0000     0.000     0.000     0.000 -0.0000  1.0000  0.0000
              Bcc     0.0000     0.000     0.000     0.000  0.0000  0.0000  1.0000
 
              Baa     0.0000     0.000     0.000     0.000  1.0000  0.0000  0.0000
    11 H(1)   Bbb     0.0000     0.000     0.000     0.000 -0.0000  1.0000  0.0000
              Bcc     0.0000     0.000     0.000     0.000  0.0000  0.0000  1.0000
 

 ---------------------------------------------------------------------------------

 No NMR shielding tensors so no spin-rotation constants.
 Leave Link  601 at Tue Feb 25 12:21:58 2020, MaxMem=  6710886400 cpu:               2.9 elap:               0.2
 (Enter /opt/ohpc/pub/libs/gaussian/g16-A.03/haswell/g16/l9999.exe)

 Test job not archived.
 1\1\GINC-HASWELL008\SP\ULC-wHPBE\6-31G\C5H6\SMGO234\25-Feb-2020\0\\#P 
 uLC-wHPBE/6-31G iop(3/107=0315600000, 3/108=0315600000) scf=(conver=6,
 fermi,ndamp=35,noincfock,novaracc,vshift=500,xqc)\\H6 C5\\0,1\C,0,0.,0
 .897082,-0.935245\C,0,0.,1.134094,0.425375\C,0,0.,0.,1.243051\C,0,0.,-
 1.134094,0.425375\C,0,0.,-0.897082,-0.935245\H,0,0.,0.,-1.723356\H,0,0
 .,1.622537,-1.745737\H,0,0.,2.164126,0.77433\H,0,0.,0.,2.326294\H,0,0.
 ,-2.164126,0.77433\H,0,0.,-1.622537,-1.745737\\Version=ES64L-G16RevA.0
 3\State=1-A1\HF=-193.7478024\S2=0.\S2-1=0.\S2A=0.\RMSD=6.948e-07\Dipol
 e=0.,0.,-0.7648901\Quadrupole=-5.2355721,1.912615,3.3229571,0.,0.,0.\P
 G=C02V [C2(H1C1H1),SGV(C4H4)]\\@


 LOVE IS BLIND, THAT'S WHY ALL THE WORLD LOVES A LOUVER.
 Job cpu time:       0 days  0 hours  0 minutes 42.4 seconds.
 Elapsed time:       0 days  0 hours  0 minutes  2.9 seconds.
 File lengths (MBytes):  RWF=    272 Int=      0 D2E=      0 Chk=     32 Scr=     32
 Normal termination of Gaussian 16 at Tue Feb 25 12:21:58 2020.
