 Entering Gaussian System, Link 0=g16
 Input=1b_tune_n5.gjf
 Output=1b_tune_n5.log
 Initial command:
 /opt/ohpc/pub/libs/gaussian/g16-A.03/haswell/g16/l1.exe "/scratch/smgo234/Ocelot/test/1b/tuning_1b_ocycle1/Gau-40625.inp" -scrdir="/scratch/smgo234/Ocelot/test/1b/tuning_1b_ocycle1/"
 Entering Link 1 = /opt/ohpc/pub/libs/gaussian/g16-A.03/haswell/g16/l1.exe PID=     40626.
  
 Copyright (c) 1988,1990,1992,1993,1995,1998,2003,2009,2016,
            Gaussian, Inc.  All Rights Reserved.
  
 This is part of the Gaussian(R) 16 program.  It is based on
 the Gaussian(R) 09 system (copyright 2009, Gaussian, Inc.),
 the Gaussian(R) 03 system (copyright 2003, Gaussian, Inc.),
 the Gaussian(R) 98 system (copyright 1998, Gaussian, Inc.),
 the Gaussian(R) 94 system (copyright 1995, Gaussian, Inc.),
 the Gaussian 92(TM) system (copyright 1992, Gaussian, Inc.),
 the Gaussian 90(TM) system (copyright 1990, Gaussian, Inc.),
 the Gaussian 88(TM) system (copyright 1988, Gaussian, Inc.),
 the Gaussian 86(TM) system (copyright 1986, Carnegie Mellon
 University), and the Gaussian 82(TM) system (copyright 1983,
 Carnegie Mellon University). Gaussian is a federally registered
 trademark of Gaussian, Inc.
  
 This software contains proprietary and confidential information,
 including trade secrets, belonging to Gaussian, Inc.
  
 This software is provided under written license and may be
 used, copied, transmitted, or stored only in accord with that
 written license.
  
 The following legend is applicable only to US Government
 contracts under FAR:
  
                    RESTRICTED RIGHTS LEGEND
  
 Use, reproduction and disclosure by the US Government is
 subject to restrictions as set forth in subparagraphs (a)
 and (c) of the Commercial Computer Software - Restricted
 Rights clause in FAR 52.227-19.
  
 Gaussian, Inc.
 340 Quinnipiac St., Bldg. 40, Wallingford CT 06492
  
  
 ---------------------------------------------------------------
 Warning -- This program may not be used in any manner that
 competes with the business of Gaussian, Inc. or will provide
 assistance to any competitor of Gaussian, Inc.  The licensee
 of this program is prohibited from giving any competitor of
 Gaussian, Inc. access to this program.  By using this program,
 the user acknowledges that Gaussian, Inc. is engaged in the
 business of creating and licensing software in the field of
 computational chemistry and represents and warrants to the
 licensee that it is not a competitor of Gaussian, Inc. and that
 it will not use this program in any manner prohibited above.
 ---------------------------------------------------------------
  

 Cite this work as:
 Gaussian 16, Revision A.03,
 M. J. Frisch, G. W. Trucks, H. B. Schlegel, G. E. Scuseria, 
 M. A. Robb, J. R. Cheeseman, G. Scalmani, V. Barone, 
 G. A. Petersson, H. Nakatsuji, X. Li, M. Caricato, A. V. Marenich, 
 J. Bloino, B. G. Janesko, R. Gomperts, B. Mennucci, H. P. Hratchian, 
 J. V. Ortiz, A. F. Izmaylov, J. L. Sonnenberg, D. Williams-Young, 
 F. Ding, F. Lipparini, F. Egidi, J. Goings, B. Peng, A. Petrone, 
 T. Henderson, D. Ranasinghe, V. G. Zakrzewski, J. Gao, N. Rega, 
 G. Zheng, W. Liang, M. Hada, M. Ehara, K. Toyota, R. Fukuda, 
 J. Hasegawa, M. Ishida, T. Nakajima, Y. Honda, O. Kitao, H. Nakai, 
 T. Vreven, K. Throssell, J. A. Montgomery, Jr., J. E. Peralta, 
 F. Ogliaro, M. J. Bearpark, J. J. Heyd, E. N. Brothers, K. N. Kudin, 
 V. N. Staroverov, T. A. Keith, R. Kobayashi, J. Normand, 
 K. Raghavachari, A. P. Rendell, J. C. Burant, S. S. Iyengar, 
 J. Tomasi, M. Cossi, J. M. Millam, M. Klene, C. Adamo, R. Cammi, 
 J. W. Ochterski, R. L. Martin, K. Morokuma, O. Farkas, 
 J. B. Foresman, and D. J. Fox, Gaussian, Inc., Wallingford CT, 2016.
 
 ******************************************
 Gaussian 16:  ES64L-G16RevA.03 25-Dec-2016
                25-Feb-2020 
 ******************************************
 %mem=50GB
 %nproc=16
 Will use up to   16 processors via shared memory.
 ----------------------------------------------------------------------
 #P uLC-wHPBE/6-31G iop(3/107=0308100000, 3/108=0308100000) scf=(conver
 =6,fermi,ndamp=35,noincfock,novaracc,vshift=500,xqc)
 ----------------------------------------------------------------------
 1/38=1,172=1/1;
 2/12=2,17=6,18=5,40=1/2;
 3/5=1,6=6,11=2,25=1,30=1,74=-71,107=308100000,108=308100000,116=2/1,2,3;
 4//1;
 5/5=100002,6=6,8=3,10=500,13=1,18=-1,22=13,38=1,93=35/2,8;
 6/7=2,8=2,9=2,10=2,28=1/1;
 99/5=1,9=1/99;
 Leave Link    1 at Tue Feb 25 12:22:10 2020, MaxMem=  6710886400 cpu:               9.4 elap:               0.6
 (Enter /opt/ohpc/pub/libs/gaussian/g16-A.03/haswell/g16/l101.exe)
 -----
 H6 C5
 -----
 Symbolic Z-matrix:
 Charge =  0 Multiplicity = 1
 C                     0.        0.89708  -0.93525 
 C                     0.        1.13409   0.42538 
 C                     0.        0.        1.24305 
 C                     0.       -1.13409   0.42538 
 C                     0.       -0.89708  -0.93525 
 H                     0.        0.       -1.72336 
 H                     0.        1.62254  -1.74574 
 H                     0.        2.16413   0.77433 
 H                     0.        0.        2.32629 
 H                     0.       -2.16413   0.77433 
 H                     0.       -1.62254  -1.74574 
 
 ITRead=  0  0  0  0  0  0  0  0  0  0  0
 MicOpt= -1 -1 -1 -1 -1 -1 -1 -1 -1 -1 -1
 NAtoms=     11 NQM=       11 NQMF=       0 NMMI=      0 NMMIF=      0
                NMic=       0 NMicF=      0.
                    Isotopes and Nuclear Properties:
 (Nuclear quadrupole moments (NQMom) in fm**2, nuclear magnetic moments (NMagM)
  in nuclear magnetons)

  Atom         1           2           3           4           5           6           7           8           9          10
 IAtWgt=          12          12          12          12          12           1           1           1           1           1
 AtmWgt=  12.0000000  12.0000000  12.0000000  12.0000000  12.0000000   1.0078250   1.0078250   1.0078250   1.0078250   1.0078250
 NucSpn=           0           0           0           0           0           1           1           1           1           1
 AtZEff=  -0.0000000  -0.0000000  -0.0000000  -0.0000000  -0.0000000  -0.0000000  -0.0000000  -0.0000000  -0.0000000  -0.0000000
 NQMom=    0.0000000   0.0000000   0.0000000   0.0000000   0.0000000   0.0000000   0.0000000   0.0000000   0.0000000   0.0000000
 NMagM=    0.0000000   0.0000000   0.0000000   0.0000000   0.0000000   2.7928460   2.7928460   2.7928460   2.7928460   2.7928460
 AtZNuc=   6.0000000   6.0000000   6.0000000   6.0000000   6.0000000   1.0000000   1.0000000   1.0000000   1.0000000   1.0000000

  Atom        11
 IAtWgt=           1
 AtmWgt=   1.0078250
 NucSpn=           1
 AtZEff=  -0.0000000
 NQMom=    0.0000000
 NMagM=    2.7928460
 AtZNuc=   1.0000000
 Leave Link  101 at Tue Feb 25 12:22:10 2020, MaxMem=  6710886400 cpu:               2.6 elap:               0.2
 (Enter /opt/ohpc/pub/libs/gaussian/g16-A.03/haswell/g16/l202.exe)
                          Input orientation:                          
 ---------------------------------------------------------------------
 Center     Atomic      Atomic             Coordinates (Angstroms)
 Number     Number       Type             X           Y           Z
 ---------------------------------------------------------------------
      1          6           0        0.000000    0.897082   -0.935245
      2          6           0        0.000000    1.134094    0.425375
      3          6           0        0.000000    0.000000    1.243051
      4          6           0        0.000000   -1.134094    0.425375
      5          6           0        0.000000   -0.897082   -0.935245
      6          1           0        0.000000    0.000000   -1.723356
      7          1           0        0.000000    1.622537   -1.745737
      8          1           0        0.000000    2.164126    0.774330
      9          1           0        0.000000    0.000000    2.326294
     10          1           0        0.000000   -2.164126    0.774330
     11          1           0        0.000000   -1.622537   -1.745737
 ---------------------------------------------------------------------
                    Distance matrix (angstroms):
                    1          2          3          4          5
     1  C    0.000000
     2  C    1.381109   0.000000
     3  C    2.355786   1.398128   0.000000
     4  C    2.444783   2.268188   1.398128   0.000000
     5  C    1.794164   2.444783   2.355786   1.381109   0.000000
     6  H    1.194100   2.429653   2.966407   2.429653   1.194100
     7  H    1.087742   2.225377   3.400806   3.508952   2.646767
     8  H    2.127921   1.087536   2.214304   3.316629   3.506229
     9  H    3.382661   2.213518   1.083243   2.213518   3.382661
    10  H    3.506229   3.316629   2.214304   1.087536   2.127921
    11  H    2.646767   3.508952   3.400806   2.225377   1.087742
                    6          7          8          9         10
     6  H    0.000000
     7  H    1.622691   0.000000
     8  H    3.304826   2.577607   0.000000
     9  H    4.049650   4.383385   2.663087   0.000000
    10  H    3.304826   4.548577   4.328252   2.663087   0.000000
    11  H    1.622691   3.245074   4.548577   4.383385   2.577607
                   11
    11  H    0.000000
 Stoichiometry    C5H6
 Framework group  C2V[C2(HCH),SGV(C4H4)]
 Deg. of freedom    10
 Full point group                 C2V     NOp   4
 Largest Abelian subgroup         C2V     NOp   4
 Largest concise Abelian subgroup C2      NOp   2
                         Standard orientation:                         
 ---------------------------------------------------------------------
 Center     Atomic      Atomic             Coordinates (Angstroms)
 Number     Number       Type             X           Y           Z
 ---------------------------------------------------------------------
      1          6           0        0.000000    0.897082   -0.935245
      2          6           0        0.000000    1.134094    0.425375
      3          6           0        0.000000   -0.000000    1.243051
      4          6           0       -0.000000   -1.134094    0.425375
      5          6           0       -0.000000   -0.897082   -0.935245
      6          1           0       -0.000000    0.000000   -1.723356
      7          1           0        0.000000    1.622537   -1.745737
      8          1           0        0.000000    2.164126    0.774330
      9          1           0        0.000000   -0.000000    2.326294
     10          1           0       -0.000000   -2.164126    0.774330
     11          1           0       -0.000000   -1.622537   -1.745737
 ---------------------------------------------------------------------
 Rotational constants (GHZ):           8.4725427           7.7835829           4.0567316
 Leave Link  202 at Tue Feb 25 12:22:10 2020, MaxMem=  6710886400 cpu:               0.2 elap:               0.0
 (Enter /opt/ohpc/pub/libs/gaussian/g16-A.03/haswell/g16/l301.exe)
 Standard basis: 6-31G (6D, 7F)
 Ernie: Thresh=  0.10000D-02 Tol=  0.10000D-05 Strict=F.
 There are    27 symmetry adapted cartesian basis functions of A1  symmetry.
 There are     4 symmetry adapted cartesian basis functions of A2  symmetry.
 There are     6 symmetry adapted cartesian basis functions of B1  symmetry.
 There are    20 symmetry adapted cartesian basis functions of B2  symmetry.
 There are    27 symmetry adapted basis functions of A1  symmetry.
 There are     4 symmetry adapted basis functions of A2  symmetry.
 There are     6 symmetry adapted basis functions of B1  symmetry.
 There are    20 symmetry adapted basis functions of B2  symmetry.
    57 basis functions,   134 primitive gaussians,    57 cartesian basis functions
    18 alpha electrons       18 beta electrons
       nuclear repulsion energy       155.1468587074 Hartrees.
 IExCor=33909 DFT=T Ex+Corr=LC-wHPBE ExCW=0 ScaHFX=  1.000000
 ScaDFX=  1.000000  1.000000  1.000000  1.000000 ScalE2=  1.000000  1.000000
 IRadAn=      5 IRanWt=     -1 IRanGd=            0 ICorTp=0 IEmpDi=  4
 HFx  wShort=  0.000000 wLong=  0.308100 cFull=  0.000000 cShort=  0.000000 cLong=  1.000000
 DFx  wShort=  0.000000 wLong=  0.308100 cFull=  0.000000 cShort=  1.000000 cLong=  0.000000
 NAtoms=   11 NActive=   11 NUniq=    7 SFac= 2.47D+00 NAtFMM=   60 NAOKFM=F Big=F
 Integral buffers will be    131072 words long.
 Raffenetti 2 integral format.
 Two-electron integral symmetry is turned on.
 Leave Link  301 at Tue Feb 25 12:22:10 2020, MaxMem=  6710886400 cpu:               1.0 elap:               0.1
 (Enter /opt/ohpc/pub/libs/gaussian/g16-A.03/haswell/g16/l302.exe)
 NPDir=0 NMtPBC=     1 NCelOv=     1 NCel=       1 NClECP=     1 NCelD=      1
         NCelK=      1 NCelE2=     1 NClLst=     1 CellRange=     0.0.
 One-electron integrals computed using PRISM.
 One-electron integral symmetry used in STVInt
 NBasis=    57 RedAO= T EigKep=  1.93D-03  NBF=    27     4     6    20
 NBsUse=    57 1.00D-06 EigRej= -1.00D+00 NBFU=    27     4     6    20
 Precomputing XC quadrature grid using
 IXCGrd= 4 IRadAn=           5 IRanWt=          -1 IRanGd=           0 AccXCQ= 0.00D+00.
 Generated NRdTot=       0 NPtTot=           0 NUsed=           0 NTot=          32
 NSgBfM=    57    57    57    57    57 MxSgAt=    11 MxSgA2=    11.
 Leave Link  302 at Tue Feb 25 12:22:10 2020, MaxMem=  6710886400 cpu:               3.0 elap:               0.2
 (Enter /opt/ohpc/pub/libs/gaussian/g16-A.03/haswell/g16/l303.exe)
 DipDrv:  MaxL=1.
 Leave Link  303 at Tue Feb 25 12:22:10 2020, MaxMem=  6710886400 cpu:               0.5 elap:               0.1
 (Enter /opt/ohpc/pub/libs/gaussian/g16-A.03/haswell/g16/l401.exe)
 ExpMin= 1.61D-01 ExpMax= 3.05D+03 ExpMxC= 4.57D+02 IAcc=3 IRadAn=         5 AccDes= 0.00D+00
 Harris functional with IExCor=33909 and IRadAn=       5 diagonalized for initial guess.
 HarFok:  IExCor=33909 AccDes= 0.00D+00 IRadAn=         5 IDoV= 1 UseB2=F ITyADJ=14
 ICtDFT=  3500011 ScaDFX=  1.000000  1.000000  1.000000  1.000000
 FoFCou: FMM=F IPFlag=           0 FMFlag=      100000 FMFlg1=           0
         NFxFlg=           0 DoJE=T BraDBF=F KetDBF=T FulRan=T
         wScrn=  0.000000 ICntrl=       500 IOpCl=  0 I1Cent=   200000004 NGrid=           0
         NMat0=    1 NMatS0=      1 NMatT0=    0 NMatD0=    1 NMtDS0=    0 NMtDT0=    0
 Petite list used in FoFCou.
 Harris En= -188.125495669122    
 JPrj=0 DoOrth=F DoCkMO=F.
 Initial guess orbital symmetries:
 Alpha Orbitals:
       Occupied  (A1) (B2) (A1) (B2) (A1) (A1) (B2) (A1) (A1) (B2)
                 (A1) (B2) (A1) (B2) (A1) (B1) (A2) (B1)
       Virtual   (A2) (B2) (B1) (A1) (A1) (B2) (A1) (B2) (A1) (B2)
                 (A1) (B2) (A1) (B2) (B1) (A1) (A2) (B1) (B2) (A1)
                 (A1) (A2) (B1) (B2) (B2) (A1) (B2) (A1) (A1) (B2)
                 (A1) (A1) (A1) (B2) (A1) (B2) (A1) (A1) (B2)
 Beta  Orbitals:
       Occupied  (A1) (B2) (A1) (B2) (A1) (A1) (B2) (A1) (A1) (B2)
                 (A1) (B2) (A1) (B2) (A1) (B1) (A2) (B1)
       Virtual   (A2) (B2) (B1) (A1) (A1) (B2) (A1) (B2) (A1) (B2)
                 (A1) (B2) (A1) (B2) (B1) (A1) (A2) (B1) (B2) (A1)
                 (A1) (A2) (B1) (B2) (B2) (A1) (B2) (A1) (A1) (B2)
                 (A1) (A1) (A1) (B2) (A1) (B2) (A1) (A1) (B2)
 The electronic state of the initial guess is 1-A1.
 Initial guess <Sx>= 0.0000 <Sy>= 0.0000 <Sz>= 0.0000 <S**2>= 0.0000 S= 0.0000
 Leave Link  401 at Tue Feb 25 12:22:11 2020, MaxMem=  6710886400 cpu:               4.4 elap:               0.3
 (Enter /opt/ohpc/pub/libs/gaussian/g16-A.03/haswell/g16/l502.exe)
 Keep R1 and R2 ints in memory in symmetry-blocked form, NReq=16815681.
 FoFCou: FMM=F IPFlag=           0 FMFlag=           0 FMFlg1=           0
         NFxFlg=           0 DoJE=F BraDBF=F KetDBF=F FulRan=T
         wScrn=  0.000000 ICntrl=       600 IOpCl=  0 I1Cent=           0 NGrid=           0
         NMat0=    1 NMatS0=   1653 NMatT0=    0 NMatD0=    1 NMtDS0=    0 NMtDT0=    0
 Petite list used in FoFCou.
 UHF open shell SCF:
 Using DIIS extrapolation, IDIIS=    10.
 NGot=  6710886400 LenX=  6710059561 LenY=  6710055871
 Requested convergence on RMS density matrix=1.00D-06 within  32 cycles.
 Requested convergence on MAX density matrix=1.00D-04.
 Requested convergence on             energy=1.00D-04.
 Virtual orbitals will be shifted by   0.500 hartree.
 No special actions if energy rises.
 Dynamic level shift is on during FON iterations.

 Cycle   1  Pass 1  IDiag  1:
 E= -193.649719785251    
 DIIS: error= 4.16D-02 at cycle   1 NSaved=   1.
 NSaved= 1 IEnMin= 1 EnMin= -193.649719785251     IErMin= 1 ErrMin= 4.16D-02
 ErrMax= 4.16D-02  0.00D+00 EMaxC= 1.00D+00 BMatC= 3.16D-01 BMatP= 3.16D-01
 IDIUse=1 WtCom= 1.00D+00 WtEn= 0.00D+00
 Coeff-Com:  0.100D+01
 Coeff:      0.100D+01
 Gap=     0.334 Goal=   None    Shift=    0.500
 T= 1692. Gap= 0.793 NK=0 IS=   19 IE=   57 IFin=   18
          NO(<0.9)=   0  NV(>0.1)=   0     18.00e < EF      0.00e >EF  Err=0.0D+00
 Gap=     0.334 Goal=   None    Shift=    0.500
 T= 1692. Gap= 0.793 NK=0 IS=   19 IE=   57 IFin=   18
          NO(<0.9)=   0  NV(>0.1)=   0     18.00e < EF      0.00e >EF  Err=0.0D+00
 GapD=    0.334 DampG=1.000 DampE=0.500 DampFc=0.5000 IDamp=-1.
 Damping current iteration by 5.00D-01
 RMSDP=6.78D-03 MaxDP=5.85D-02              OVMax= 7.68D-02

 Cycle   2  Pass 1  IDiag  1:
 E= -193.707993070513     Delta-E=       -0.058273285262 Rises=F Damp=T
 DIIS: error= 1.86D-02 at cycle   2 NSaved=   2.
 NSaved= 2 IEnMin= 2 EnMin= -193.707993070513     IErMin= 2 ErrMin= 1.86D-02
 ErrMax= 1.86D-02  0.00D+00 EMaxC= 1.00D+00 BMatC= 6.14D-02 BMatP= 3.16D-01
 IDIUse=1 WtCom= 1.00D+00 WtEn= 0.00D+00
 Coeff-Com: -0.705D+00 0.171D+01
 Coeff:     -0.705D+00 0.171D+01
 Gap=     0.396 Goal=   None    Shift=    0.500
 T= 1570. Gap= 0.883 NK=0 IS=   19 IE=   57 IFin=   18
          NO(<0.9)=   0  NV(>0.1)=   0     18.00e < EF      0.00e >EF  Err=0.0D+00
 Gap=     0.396 Goal=   None    Shift=    0.500
 T= 1570. Gap= 0.883 NK=0 IS=   19 IE=   57 IFin=   18
          NO(<0.9)=   0  NV(>0.1)=   0     18.00e < EF      0.00e >EF  Err=0.0D+00
 GapD=    0.396 DampG=1.000 DampE=0.500 DampFc=0.5000 IDamp=-1.
 Damping current iteration by 5.00D-01
 RMSDP=3.71D-03 MaxDP=2.36D-02 DE=-5.83D-02 OVMax= 7.94D-03

 Cycle   3  Pass 1  IDiag  1:
 E= -193.729016617496     Delta-E=       -0.021023546983 Rises=F Damp=T
 DIIS: error= 8.60D-03 at cycle   3 NSaved=   3.
 NSaved= 3 IEnMin= 3 EnMin= -193.729016617496     IErMin= 3 ErrMin= 8.60D-03
 ErrMax= 8.60D-03  0.00D+00 EMaxC= 1.00D+00 BMatC= 1.31D-02 BMatP= 6.14D-02
 IDIUse=1 WtCom= 1.00D+00 WtEn= 0.00D+00
 Coeff-Com:  0.158D+00-0.132D+01 0.217D+01
 Coeff:      0.158D+00-0.132D+01 0.217D+01
 Gap=     0.382 Goal=   None    Shift=    0.500
 T= 1335. Gap= 0.881 NK=0 IS=   19 IE=   57 IFin=   18
          NO(<0.9)=   0  NV(>0.1)=   0     18.00e < EF      0.00e >EF  Err=0.0D+00
 Gap=     0.382 Goal=   None    Shift=    0.500
 T= 1335. Gap= 0.881 NK=0 IS=   19 IE=   57 IFin=   18
          NO(<0.9)=   0  NV(>0.1)=   0     18.00e < EF      0.00e >EF  Err=0.0D+00
 GapD=    0.382 DampG=1.000 DampE=1.000 DampFc=1.0000 IDamp=-1.
 RMSDP=1.95D-03 MaxDP=1.22D-02 DE=-2.10D-02 OVMax= 6.83D-03

 Cycle   4  Pass 1  IDiag  1:
 E= -193.746405812899     Delta-E=       -0.017389195404 Rises=F Damp=F
 DIIS: error= 1.61D-03 at cycle   4 NSaved=   4.
 NSaved= 4 IEnMin= 4 EnMin= -193.746405812899     IErMin= 4 ErrMin= 1.61D-03
 ErrMax= 1.61D-03  0.00D+00 EMaxC= 1.00D+00 BMatC= 3.85D-04 BMatP= 1.31D-02
 IDIUse=1 WtCom= 1.00D+00 WtEn= 0.00D+00
 Coeff-Com:  0.114D+00-0.795D-01-0.297D+00 0.126D+01
 Coeff:      0.114D+00-0.795D-01-0.297D+00 0.126D+01
 Gap=     0.386 Goal=   None    Shift=    0.500
 T=  812. Gap= 0.886 NK=0 IS=   19 IE=   57 IFin=   18
          NO(<0.9)=   0  NV(>0.1)=   0     18.00e < EF      0.00e >EF  Err=0.0D+00
 Gap=     0.386 Goal=   None    Shift=    0.500
 T=  812. Gap= 0.886 NK=0 IS=   19 IE=   57 IFin=   18
          NO(<0.9)=   0  NV(>0.1)=   0     18.00e < EF      0.00e >EF  Err=0.0D+00
 GapD=    0.386 DampG=1.000 DampE=1.000 DampFc=1.0000 IDamp=-1.
 RMSDP=3.46D-04 MaxDP=3.02D-03 DE=-1.74D-02 OVMax= 3.11D-03

 Cycle   5  Pass 1  IDiag  1:
 E= -193.746577698803     Delta-E=       -0.000171885904 Rises=F Damp=F
 DIIS: error= 8.69D-04 at cycle   5 NSaved=   5.
 NSaved= 5 IEnMin= 5 EnMin= -193.746577698803     IErMin= 5 ErrMin= 8.69D-04
 ErrMax= 8.69D-04  0.00D+00 EMaxC= 1.00D+00 BMatC= 6.24D-05 BMatP= 3.85D-04
 IDIUse=1 WtCom= 1.00D+00 WtEn= 0.00D+00
 Coeff-Com: -0.495D-01 0.225D+00-0.277D+00-0.703D+00 0.180D+01
 Coeff:     -0.495D-01 0.225D+00-0.277D+00-0.703D+00 0.180D+01
 Gap=     0.386 Goal=   None    Shift=    0.500
 Gap=     0.386 Goal=   None    Shift=    0.500
 RMSDP=2.07D-04 MaxDP=1.82D-03 DE=-1.72D-04 OVMax= 2.76D-03

 Cycle   6  Pass 1  IDiag  1:
 E= -193.746626365884     Delta-E=       -0.000048667080 Rises=F Damp=F
 DIIS: error= 5.88D-04 at cycle   6 NSaved=   6.
 NSaved= 6 IEnMin= 6 EnMin= -193.746626365884     IErMin= 6 ErrMin= 5.88D-04
 ErrMax= 5.88D-04  0.00D+00 EMaxC= 1.00D+00 BMatC= 1.41D-05 BMatP= 6.24D-05
 IDIUse=1 WtCom= 1.00D+00 WtEn= 0.00D+00
 Coeff-Com:  0.349D-02-0.755D-01 0.134D+00 0.227D+00-0.181D+01 0.252D+01
 Coeff:      0.349D-02-0.755D-01 0.134D+00 0.227D+00-0.181D+01 0.252D+01
 Gap=     0.386 Goal=   None    Shift=    0.500
 Gap=     0.386 Goal=   None    Shift=    0.500
 RMSDP=1.09D-04 MaxDP=8.96D-04 DE=-4.87D-05 OVMax= 1.77D-03

 Cycle   7  Pass 1  IDiag  1:
 E= -193.746640711038     Delta-E=       -0.000014345155 Rises=F Damp=F
 DIIS: error= 3.71D-04 at cycle   7 NSaved=   7.
 NSaved= 7 IEnMin= 7 EnMin= -193.746640711038     IErMin= 7 ErrMin= 3.71D-04
 ErrMax= 3.71D-04  0.00D+00 EMaxC= 1.00D+00 BMatC= 3.86D-06 BMatP= 1.41D-05
 IDIUse=1 WtCom= 1.00D+00 WtEn= 0.00D+00
 Coeff-Com: -0.302D-02 0.717D-01-0.133D+00 0.629D-01 0.749D+00-0.278D+01
 Coeff-Com:  0.304D+01
 Coeff:     -0.302D-02 0.717D-01-0.133D+00 0.629D-01 0.749D+00-0.278D+01
 Coeff:      0.304D+01
 Gap=     0.386 Goal=   None    Shift=    0.500
 Gap=     0.386 Goal=   None    Shift=    0.500
 RMSDP=4.97D-05 MaxDP=4.10D-04 DE=-1.43D-05 OVMax= 1.05D-03

 Cycle   8  Pass 1  IDiag  1:
 E= -193.746644757999     Delta-E=       -0.000004046960 Rises=F Damp=F
 DIIS: error= 2.28D-04 at cycle   8 NSaved=   8.
 NSaved= 8 IEnMin= 8 EnMin= -193.746644757999     IErMin= 8 ErrMin= 2.28D-04
 ErrMax= 2.28D-04  0.00D+00 EMaxC= 1.00D+00 BMatC= 1.28D-06 BMatP= 3.86D-06
 IDIUse=1 WtCom= 1.00D+00 WtEn= 0.00D+00
 Coeff-Com: -0.373D-02 0.514D-01-0.897D-01 0.250D-01 0.461D+00-0.121D+01
 Coeff-Com:  0.197D+00 0.157D+01
 Coeff:     -0.373D-02 0.514D-01-0.897D-01 0.250D-01 0.461D+00-0.121D+01
 Coeff:      0.197D+00 0.157D+01
 Gap=     0.386 Goal=   None    Shift=    0.500
 Gap=     0.386 Goal=   None    Shift=    0.500
 RMSDP=2.24D-05 MaxDP=1.77D-04 DE=-4.05D-06 OVMax= 5.85D-04

 Cycle   9  Pass 1  IDiag  1:
 E= -193.746645871359     Delta-E=       -0.000001113360 Rises=F Damp=F
 DIIS: error= 1.27D-04 at cycle   9 NSaved=   9.
 NSaved= 9 IEnMin= 9 EnMin= -193.746645871359     IErMin= 9 ErrMin= 1.27D-04
 ErrMax= 1.27D-04  0.00D+00 EMaxC= 1.00D+00 BMatC= 4.08D-07 BMatP= 1.28D-06
 IDIUse=1 WtCom= 1.00D+00 WtEn= 0.00D+00
 Coeff-Com: -0.123D-02 0.645D-02-0.879D-02 0.899D-02-0.484D-01 0.355D+00
 Coeff-Com: -0.897D+00-0.139D+00 0.172D+01
 Coeff:     -0.123D-02 0.645D-02-0.879D-02 0.899D-02-0.484D-01 0.355D+00
 Coeff:     -0.897D+00-0.139D+00 0.172D+01
 Gap=     0.386 Goal=   None    Shift=    0.500
 Gap=     0.386 Goal=   None    Shift=    0.500
 RMSDP=1.08D-05 MaxDP=9.67D-05 DE=-1.11D-06 OVMax= 3.14D-04

 Cycle  10  Pass 1  IDiag  1:
 E= -193.746646180641     Delta-E=       -0.000000309282 Rises=F Damp=F
 DIIS: error= 7.36D-05 at cycle  10 NSaved=  10.
 NSaved=10 IEnMin=10 EnMin= -193.746646180641     IErMin=10 ErrMin= 7.36D-05
 ErrMax= 7.36D-05  0.00D+00 EMaxC= 1.00D+00 BMatC= 1.35D-07 BMatP= 4.08D-07
 IDIUse=1 WtCom= 1.00D+00 WtEn= 0.00D+00
 Coeff-Com:  0.775D-03-0.459D-02 0.607D-02 0.109D-01-0.591D-01 0.267D-01
 Coeff-Com:  0.403D+00-0.806D+00-0.849D+00 0.227D+01
 Coeff:      0.775D-03-0.459D-02 0.607D-02 0.109D-01-0.591D-01 0.267D-01
 Coeff:      0.403D+00-0.806D+00-0.849D+00 0.227D+01
 Gap=     0.386 Goal=   None    Shift=    0.500
 Gap=     0.386 Goal=   None    Shift=    0.500
 RMSDP=5.32D-06 MaxDP=4.96D-05 DE=-3.09D-07 OVMax= 1.73D-04

 Cycle  11  Pass 1  IDiag  1:
 E= -193.746646268584     Delta-E=       -0.000000087943 Rises=F Damp=F
 DIIS: error= 4.17D-05 at cycle  11 NSaved=  11.
 NSaved=11 IEnMin=11 EnMin= -193.746646268584     IErMin=11 ErrMin= 4.17D-05
 ErrMax= 4.17D-05  0.00D+00 EMaxC= 1.00D+00 BMatC= 4.43D-08 BMatP= 1.35D-07
 IDIUse=1 WtCom= 1.00D+00 WtEn= 0.00D+00
 Coeff-Com: -0.208D-03 0.206D-02-0.341D-02 0.824D-03 0.145D-01-0.216D-01
 Coeff-Com: -0.154D-01 0.511D-01 0.303D+00-0.208D+01 0.275D+01
 Coeff:     -0.208D-03 0.206D-02-0.341D-02 0.824D-03 0.145D-01-0.216D-01
 Coeff:     -0.154D-01 0.511D-01 0.303D+00-0.208D+01 0.275D+01
 Gap=     0.386 Goal=   None    Shift=    0.500
 Gap=     0.386 Goal=   None    Shift=    0.500
 RMSDP=2.62D-06 MaxDP=2.56D-05 DE=-8.79D-08 OVMax= 9.58D-05

 Cycle  12  Pass 1  IDiag  1:
 E= -193.746646294325     Delta-E=       -0.000000025741 Rises=F Damp=F
 DIIS: error= 2.32D-05 at cycle  12 NSaved=  12.
 NSaved=12 IEnMin=12 EnMin= -193.746646294325     IErMin=12 ErrMin= 2.32D-05
 ErrMax= 2.32D-05  0.00D+00 EMaxC= 1.00D+00 BMatC= 1.40D-08 BMatP= 4.43D-08
 IDIUse=1 WtCom= 1.00D+00 WtEn= 0.00D+00
 Coeff-Com:  0.268D-04-0.340D-03 0.568D-03 0.158D-02-0.123D-01 0.256D-01
 Coeff-Com: -0.107D-01-0.465D-01 0.223D-01 0.798D+00-0.311D+01 0.334D+01
 Coeff:      0.268D-04-0.340D-03 0.568D-03 0.158D-02-0.123D-01 0.256D-01
 Coeff:     -0.107D-01-0.465D-01 0.223D-01 0.798D+00-0.311D+01 0.334D+01
 Gap=     0.386 Goal=   None    Shift=    0.500
 Gap=     0.386 Goal=   None    Shift=    0.500
 RMSDP=1.33D-06 MaxDP=1.29D-05 DE=-2.57D-08 OVMax= 5.20D-05

 Cycle  13  Pass 1  IDiag  1:
 E= -193.746646301749     Delta-E=       -0.000000007424 Rises=F Damp=F
 DIIS: error= 1.28D-05 at cycle  13 NSaved=  13.
 NSaved=13 IEnMin=13 EnMin= -193.746646301749     IErMin=13 ErrMin= 1.28D-05
 ErrMax= 1.28D-05  0.00D+00 EMaxC= 1.00D+00 BMatC= 4.48D-09 BMatP= 1.40D-08
 IDIUse=1 WtCom= 1.00D+00 WtEn= 0.00D+00
 Coeff-Com:  0.720D-04-0.437D-03 0.585D-03 0.996D-03-0.586D-02 0.670D-02
 Coeff-Com:  0.263D-01-0.626D-01-0.239D-01-0.388D-01 0.109D+01-0.342D+01
 Coeff-Com:  0.342D+01
 Coeff:      0.720D-04-0.437D-03 0.585D-03 0.996D-03-0.586D-02 0.670D-02
 Coeff:      0.263D-01-0.626D-01-0.239D-01-0.388D-01 0.109D+01-0.342D+01
 Coeff:      0.342D+01
 Gap=     0.386 Goal=   None    Shift=    0.500
 Gap=     0.386 Goal=   None    Shift=    0.500
 RMSDP=6.83D-07 MaxDP=6.85D-06 DE=-7.42D-09 OVMax= 2.81D-05

 SCF Done:  E(ULC-wHPBE) =  -193.746646302     A.U. after   13 cycles
            NFock= 13  Conv=0.68D-06     -V/T= 2.0060
 <Sx>= 0.0000 <Sy>= 0.0000 <Sz>= 0.0000 <S**2>= 0.0000 S= 0.0000
 <L.S>= 0.000000000000E+00
 KE= 1.925979681223D+02 PE=-7.590906503083D+02 EE= 2.175991771769D+02
 Annihilation of the first spin contaminant:
 S**2 before annihilation     0.0000,   after     0.0000
 Leave Link  502 at Tue Feb 25 12:22:12 2020, MaxMem=  6710886400 cpu:              18.6 elap:               1.2
 (Enter /opt/ohpc/pub/libs/gaussian/g16-A.03/haswell/g16/l508.exe)
 QCSCF skips out because SCF is already converged.
 Leave Link  508 at Tue Feb 25 12:22:12 2020, MaxMem=  6710886400 cpu:               0.0 elap:               0.0
 (Enter /opt/ohpc/pub/libs/gaussian/g16-A.03/haswell/g16/l601.exe)
 Copying SCF densities to generalized density rwf, IOpCl= 1 IROHF=0.

 **********************************************************************

            Population analysis using the SCF density.

 **********************************************************************

 Orbital symmetries:
 Alpha Orbitals:
       Occupied  (B2) (A1) (B2) (A1) (A1) (A1) (A1) (B2) (A1) (B2)
                 (A1) (B2) (A1) (A1) (B2) (B1) (A2) (B1)
       Virtual   (B2) (A2) (A1) (B1) (A1) (B2) (A1) (B2) (A1) (A1)
                 (B2) (A1) (B2) (B2) (B1) (A2) (B1) (A1) (A1) (B2)
                 (A1) (A2) (B1) (B2) (B2) (A1) (B2) (A1) (A1) (A1)
                 (B2) (A1) (A1) (B2) (A1) (B2) (A1) (A1) (B2)
 Beta  Orbitals:
       Occupied  (B2) (A1) (B2) (A1) (A1) (A1) (A1) (B2) (A1) (B2)
                 (A1) (B2) (A1) (A1) (B2) (B1) (A2) (B1)
       Virtual   (B2) (A2) (A1) (B1) (A1) (B2) (A1) (B2) (A1) (A1)
                 (B2) (A1) (B2) (B2) (B1) (A2) (B1) (A1) (A1) (B2)
                 (A1) (A2) (B1) (B2) (B2) (A1) (B2) (A1) (A1) (A1)
                 (B2) (A1) (A1) (B2) (A1) (B2) (A1) (A1) (B2)
 The electronic state is 1-A1.
 Alpha  occ. eigenvalues --  -10.10415 -10.10410 -10.06598 -10.06598 -10.03179
 Alpha  occ. eigenvalues --   -0.97075  -0.84442  -0.81883  -0.67498  -0.66298
 Alpha  occ. eigenvalues --   -0.62141  -0.51733  -0.50610  -0.47618  -0.46419
 Alpha  occ. eigenvalues --   -0.45836  -0.32304  -0.27821
 Alpha virt. eigenvalues --    0.10789   0.11253   0.16530   0.18717   0.19668
 Alpha virt. eigenvalues --    0.24233   0.26120   0.27704   0.28614   0.41559
 Alpha virt. eigenvalues --    0.42434   0.52127   0.53463   0.61952   0.63807
 Alpha virt. eigenvalues --    0.70467   0.71319   0.71471   0.73266   0.74790
 Alpha virt. eigenvalues --    0.75794   0.76887   0.79421   0.86570   0.92380
 Alpha virt. eigenvalues --    0.95150   0.96872   0.97106   0.99244   1.05840
 Alpha virt. eigenvalues --    1.05920   1.09870   1.13495   1.19845   1.27946
 Alpha virt. eigenvalues --    1.29702   1.35809   1.57488   1.58468
  Beta  occ. eigenvalues --  -10.10415 -10.10410 -10.06598 -10.06598 -10.03179
  Beta  occ. eigenvalues --   -0.97075  -0.84442  -0.81883  -0.67498  -0.66298
  Beta  occ. eigenvalues --   -0.62141  -0.51733  -0.50610  -0.47618  -0.46419
  Beta  occ. eigenvalues --   -0.45836  -0.32304  -0.27821
  Beta virt. eigenvalues --    0.10789   0.11253   0.16530   0.18717   0.19668
  Beta virt. eigenvalues --    0.24233   0.26120   0.27704   0.28614   0.41559
  Beta virt. eigenvalues --    0.42434   0.52127   0.53463   0.61952   0.63807
  Beta virt. eigenvalues --    0.70467   0.71319   0.71471   0.73266   0.74790
  Beta virt. eigenvalues --    0.75794   0.76887   0.79421   0.86570   0.92380
  Beta virt. eigenvalues --    0.95150   0.96872   0.97106   0.99244   1.05840
  Beta virt. eigenvalues --    1.05920   1.09870   1.13495   1.19845   1.27946
  Beta virt. eigenvalues --    1.29702   1.35809   1.57488   1.58468
          Condensed to atoms (all electrons):
               1          2          3          4          5          6
     1  C    5.422328   0.475113  -0.053261  -0.128493   0.252022   0.170075
     2  C    0.475113   4.899277   0.558079  -0.012260  -0.128493  -0.021316
     3  C   -0.053261   0.558079   4.810531   0.558079  -0.053261   0.004687
     4  C   -0.128493  -0.012260   0.558079   4.899277   0.475113  -0.021316
     5  C    0.252022  -0.128493  -0.053261   0.475113   5.422328   0.170075
     6  H    0.170075  -0.021316   0.004687  -0.021316   0.170075   0.403679
     7  H    0.346040  -0.001242   0.000114   0.004039  -0.024061  -0.011124
     8  H   -0.038099   0.363867  -0.016815   0.004648   0.001842   0.000976
     9  H    0.006806  -0.040693   0.375157  -0.040693   0.006806  -0.000103
    10  H    0.001842   0.004648  -0.016815   0.363867  -0.038099   0.000976
    11  H   -0.024061   0.004039   0.000114  -0.001242   0.346040  -0.011124
               7          8          9         10         11
     1  C    0.346040  -0.038099   0.006806   0.001842  -0.024061
     2  C   -0.001242   0.363867  -0.040693   0.004648   0.004039
     3  C    0.000114  -0.016815   0.375157  -0.016815   0.000114
     4  C    0.004039   0.004648  -0.040693   0.363867  -0.001242
     5  C   -0.024061   0.001842   0.006806  -0.038099   0.346040
     6  H   -0.011124   0.000976  -0.000103   0.000976  -0.011124
     7  H    0.467518  -0.000371  -0.000105  -0.000037   0.000763
     8  H   -0.000371   0.517039  -0.002475  -0.000168  -0.000037
     9  H   -0.000105  -0.002475   0.559233  -0.002475  -0.000105
    10  H   -0.000037  -0.000168  -0.002475   0.517039  -0.000371
    11  H    0.000763  -0.000037  -0.000105  -0.000371   0.467518
          Atomic-Atomic Spin Densities.
               1          2          3          4          5          6
     1  C    0.000000   0.000000   0.000000   0.000000   0.000000   0.000000
     2  C    0.000000   0.000000   0.000000   0.000000   0.000000   0.000000
     3  C    0.000000   0.000000   0.000000   0.000000   0.000000   0.000000
     4  C    0.000000   0.000000   0.000000   0.000000   0.000000   0.000000
     5  C    0.000000   0.000000   0.000000   0.000000   0.000000   0.000000
     6  H    0.000000   0.000000   0.000000   0.000000   0.000000   0.000000
     7  H    0.000000   0.000000   0.000000   0.000000   0.000000   0.000000
     8  H    0.000000   0.000000   0.000000   0.000000   0.000000   0.000000
     9  H    0.000000   0.000000   0.000000   0.000000   0.000000   0.000000
    10  H    0.000000   0.000000   0.000000   0.000000   0.000000   0.000000
    11  H    0.000000   0.000000   0.000000   0.000000   0.000000   0.000000
               7          8          9         10         11
     1  C    0.000000   0.000000   0.000000   0.000000   0.000000
     2  C    0.000000   0.000000   0.000000   0.000000   0.000000
     3  C    0.000000   0.000000   0.000000   0.000000   0.000000
     4  C    0.000000   0.000000   0.000000   0.000000   0.000000
     5  C    0.000000   0.000000   0.000000   0.000000   0.000000
     6  H    0.000000   0.000000   0.000000   0.000000   0.000000
     7  H    0.000000   0.000000   0.000000   0.000000   0.000000
     8  H    0.000000   0.000000   0.000000   0.000000   0.000000
     9  H    0.000000   0.000000   0.000000   0.000000   0.000000
    10  H    0.000000   0.000000   0.000000   0.000000   0.000000
    11  H    0.000000   0.000000   0.000000   0.000000   0.000000
 Mulliken charges and spin densities:
               1          2
     1  C   -0.430313   0.000000
     2  C   -0.101021   0.000000
     3  C   -0.166609   0.000000
     4  C   -0.101021   0.000000
     5  C   -0.430313   0.000000
     6  H    0.314515   0.000000
     7  H    0.218466   0.000000
     8  H    0.169593   0.000000
     9  H    0.138645   0.000000
    10  H    0.169593   0.000000
    11  H    0.218466   0.000000
 Sum of Mulliken charges =   0.00000   0.00000
 Mulliken charges and spin densities with hydrogens summed into heavy atoms:
               1          2
     1  C    0.102667   0.000000
     2  C    0.068572   0.000000
     3  C   -0.027964   0.000000
     4  C    0.068572   0.000000
     5  C   -0.211848   0.000000
 Electronic spatial extent (au):  <R**2>=            340.0078
 Charge=             -0.0000 electrons
 Dipole moment (field-independent basis, Debye):
    X=             -0.0000    Y=              0.0000    Z=             -1.9439  Tot=              1.9439
 Quadrupole moment (field-independent basis, Debye-Ang):
   XX=            -35.6497   YY=            -26.0538   ZZ=            -24.1495
   XY=              0.0000   XZ=              0.0000   YZ=             -0.0000
 Traceless Quadrupole moment (field-independent basis, Debye-Ang):
   XX=             -7.0320   YY=              2.5638   ZZ=              4.4682
   XY=              0.0000   XZ=              0.0000   YZ=             -0.0000
 Octapole moment (field-independent basis, Debye-Ang**2):
  XXX=              0.0000  YYY=              0.0000  ZZZ=             -8.7535  XYY=              0.0000
  XXY=              0.0000  XXZ=              0.8861  XZZ=              0.0000  YZZ=              0.0000
  YYZ=             -1.0571  XYZ=             -0.0000
 Hexadecapole moment (field-independent basis, Debye-Ang**3):
 XXXX=            -38.4439 YYYY=           -190.8522 ZZZZ=           -176.3386 XXXY=             -0.0000
 XXXZ=             -0.0000 YYYX=             -0.0000 YYYZ=             -0.0000 ZZZX=             -0.0000
 ZZZY=              0.0000 XXYY=            -48.3607 XXZZ=            -46.8933 YYZZ=            -59.9907
 XXYZ=             -0.0000 YYXZ=             -0.0000 ZZXY=             -0.0000
 N-N= 1.551468587074D+02 E-N=-7.590906278469D+02  KE= 1.925979681223D+02
 Symmetry A1   KE= 1.108249292364D+02
 Symmetry A2   KE= 2.399674181520D+00
 Symmetry B1   KE= 4.203812718530D+00
 Symmetry B2   KE= 7.516955198581D+01
 Symmetry A1   SP= 0.000000000000D+00
 Symmetry A2   SP= 0.000000000000D+00
 Symmetry B1   SP= 0.000000000000D+00
 Symmetry B2   SP= 0.000000000000D+00
                          Isotropic Fermi Contact Couplings
        Atom                 a.u.       MegaHertz       Gauss      10(-4) cm-1
     1  C(13)              0.00000       0.00000       0.00000       0.00000
     2  C(13)              0.00000       0.00000       0.00000       0.00000
     3  C(13)              0.00000       0.00000       0.00000       0.00000
     4  C(13)              0.00000       0.00000       0.00000       0.00000
     5  C(13)              0.00000       0.00000       0.00000       0.00000
     6  H(1)               0.00000       0.00000       0.00000       0.00000
     7  H(1)               0.00000       0.00000       0.00000       0.00000
     8  H(1)               0.00000       0.00000       0.00000       0.00000
     9  H(1)               0.00000       0.00000       0.00000       0.00000
    10  H(1)               0.00000       0.00000       0.00000       0.00000
    11  H(1)               0.00000       0.00000       0.00000       0.00000
 --------------------------------------------------------
       Center         ----  Spin Dipole Couplings  ----
                      3XX-RR        3YY-RR        3ZZ-RR
 --------------------------------------------------------
     1   Atom        0.000000      0.000000      0.000000
     2   Atom        0.000000      0.000000      0.000000
     3   Atom        0.000000      0.000000      0.000000
     4   Atom        0.000000      0.000000      0.000000
     5   Atom        0.000000      0.000000      0.000000
     6   Atom        0.000000      0.000000      0.000000
     7   Atom        0.000000      0.000000      0.000000
     8   Atom        0.000000      0.000000      0.000000
     9   Atom        0.000000      0.000000      0.000000
    10   Atom        0.000000      0.000000      0.000000
    11   Atom        0.000000      0.000000      0.000000
 --------------------------------------------------------
                        XY            XZ            YZ
 --------------------------------------------------------
     1   Atom        0.000000      0.000000      0.000000
     2   Atom        0.000000      0.000000      0.000000
     3   Atom        0.000000      0.000000      0.000000
     4   Atom        0.000000      0.000000      0.000000
     5   Atom        0.000000      0.000000      0.000000
     6   Atom        0.000000      0.000000      0.000000
     7   Atom        0.000000      0.000000      0.000000
     8   Atom        0.000000      0.000000      0.000000
     9   Atom        0.000000      0.000000      0.000000
    10   Atom        0.000000      0.000000      0.000000
    11   Atom        0.000000      0.000000      0.000000
 --------------------------------------------------------


 ---------------------------------------------------------------------------------
              Anisotropic Spin Dipole Couplings in Principal Axis System
 ---------------------------------------------------------------------------------

       Atom             a.u.   MegaHertz   Gauss  10(-4) cm-1        Axes

              Baa     0.0000     0.000     0.000     0.000  1.0000  0.0000  0.0000
     1 C(13)  Bbb     0.0000     0.000     0.000     0.000 -0.0000  1.0000  0.0000
              Bcc     0.0000     0.000     0.000     0.000  0.0000  0.0000  1.0000
 
              Baa     0.0000     0.000     0.000     0.000  1.0000  0.0000  0.0000
     2 C(13)  Bbb     0.0000     0.000     0.000     0.000 -0.0000  1.0000  0.0000
              Bcc     0.0000     0.000     0.000     0.000  0.0000  0.0000  1.0000
 
              Baa     0.0000     0.000     0.000     0.000  1.0000  0.0000  0.0000
     3 C(13)  Bbb     0.0000     0.000     0.000     0.000 -0.0000  1.0000  0.0000
              Bcc     0.0000     0.000     0.000     0.000  0.0000  0.0000  1.0000
 
              Baa     0.0000     0.000     0.000     0.000  1.0000  0.0000  0.0000
     4 C(13)  Bbb     0.0000     0.000     0.000     0.000 -0.0000  1.0000  0.0000
              Bcc     0.0000     0.000     0.000     0.000  0.0000  0.0000  1.0000
 
              Baa     0.0000     0.000     0.000     0.000  1.0000  0.0000  0.0000
     5 C(13)  Bbb     0.0000     0.000     0.000     0.000 -0.0000  1.0000  0.0000
              Bcc     0.0000     0.000     0.000     0.000  0.0000  0.0000  1.0000
 
              Baa     0.0000     0.000     0.000     0.000  1.0000  0.0000  0.0000
     6 H(1)   Bbb     0.0000     0.000     0.000     0.000 -0.0000  1.0000  0.0000
              Bcc     0.0000     0.000     0.000     0.000  0.0000  0.0000  1.0000
 
              Baa     0.0000     0.000     0.000     0.000  1.0000  0.0000  0.0000
     7 H(1)   Bbb     0.0000     0.000     0.000     0.000 -0.0000  1.0000  0.0000
              Bcc     0.0000     0.000     0.000     0.000  0.0000  0.0000  1.0000
 
              Baa     0.0000     0.000     0.000     0.000  1.0000  0.0000  0.0000
     8 H(1)   Bbb     0.0000     0.000     0.000     0.000 -0.0000  1.0000  0.0000
              Bcc     0.0000     0.000     0.000     0.000  0.0000  0.0000  1.0000
 
              Baa     0.0000     0.000     0.000     0.000  1.0000  0.0000  0.0000
     9 H(1)   Bbb     0.0000     0.000     0.000     0.000 -0.0000  1.0000  0.0000
              Bcc     0.0000     0.000     0.000     0.000  0.0000  0.0000  1.0000
 
              Baa     0.0000     0.000     0.000     0.000  1.0000  0.0000  0.0000
    10 H(1)   Bbb     0.0000     0.000     0.000     0.000 -0.0000  1.0000  0.0000
              Bcc     0.0000     0.000     0.000     0.000  0.0000  0.0000  1.0000
 
              Baa     0.0000     0.000     0.000     0.000  1.0000  0.0000  0.0000
    11 H(1)   Bbb     0.0000     0.000     0.000     0.000 -0.0000  1.0000  0.0000
              Bcc     0.0000     0.000     0.000     0.000  0.0000  0.0000  1.0000
 

 ---------------------------------------------------------------------------------

 No NMR shielding tensors so no spin-rotation constants.
 Leave Link  601 at Tue Feb 25 12:22:12 2020, MaxMem=  6710886400 cpu:               3.8 elap:               0.3
 (Enter /opt/ohpc/pub/libs/gaussian/g16-A.03/haswell/g16/l9999.exe)

 Test job not archived.
 1\1\GINC-HASWELL008\SP\ULC-wHPBE\6-31G\C5H6\SMGO234\25-Feb-2020\0\\#P 
 uLC-wHPBE/6-31G iop(3/107=0308100000, 3/108=0308100000) scf=(conver=6,
 fermi,ndamp=35,noincfock,novaracc,vshift=500,xqc)\\H6 C5\\0,1\C,0,0.,0
 .897082,-0.935245\C,0,0.,1.134094,0.425375\C,0,0.,0.,1.243051\C,0,0.,-
 1.134094,0.425375\C,0,0.,-0.897082,-0.935245\H,0,0.,0.,-1.723356\H,0,0
 .,1.622537,-1.745737\H,0,0.,2.164126,0.77433\H,0,0.,0.,2.326294\H,0,0.
 ,-2.164126,0.77433\H,0,0.,-1.622537,-1.745737\\Version=ES64L-G16RevA.0
 3\State=1-A1\HF=-193.7466463\S2=0.\S2-1=0.\S2A=0.\RMSD=6.831e-07\Dipol
 e=0.,0.,-0.7648011\Quadrupole=-5.2281406,1.9061477,3.3219928,0.,0.,0.\
 PG=C02V [C2(H1C1H1),SGV(C4H4)]\\@


 A warm smile is the universal language of kindness.
                             -- William Arthur Ward
 Job cpu time:       0 days  0 hours  0 minutes 44.2 seconds.
 Elapsed time:       0 days  0 hours  0 minutes  3.1 seconds.
 File lengths (MBytes):  RWF=    272 Int=      0 D2E=      0 Chk=     32 Scr=     32
 Normal termination of Gaussian 16 at Tue Feb 25 12:22:12 2020.
