 Entering Gaussian System, Link 0=g16
 Input=1b_tune_c2.gjf
 Output=1b_tune_c2.log
 Initial command:
 /opt/ohpc/pub/libs/gaussian/g16-A.03/sandybridge/g16/l1.exe "/pscratch/cmri235_uksr/ocelot/fw/dev/ocelot_api/tests/wtuning_test/1b/tuning_1b_ocycle1/Gau-64159.inp" -scrdir="/pscratch/cmri235_uksr/ocelot/fw/dev/ocelot_api/tests/wtuning_test/1b/tuning_1b_ocycle1/"
 Entering Link 1 = /opt/ohpc/pub/libs/gaussian/g16-A.03/sandybridge/g16/l1.exe PID=     64160.
  
 Copyright (c) 1988,1990,1992,1993,1995,1998,2003,2009,2016,
            Gaussian, Inc.  All Rights Reserved.
  
 This is part of the Gaussian(R) 16 program.  It is based on
 the Gaussian(R) 09 system (copyright 2009, Gaussian, Inc.),
 the Gaussian(R) 03 system (copyright 2003, Gaussian, Inc.),
 the Gaussian(R) 98 system (copyright 1998, Gaussian, Inc.),
 the Gaussian(R) 94 system (copyright 1995, Gaussian, Inc.),
 the Gaussian 92(TM) system (copyright 1992, Gaussian, Inc.),
 the Gaussian 90(TM) system (copyright 1990, Gaussian, Inc.),
 the Gaussian 88(TM) system (copyright 1988, Gaussian, Inc.),
 the Gaussian 86(TM) system (copyright 1986, Carnegie Mellon
 University), and the Gaussian 82(TM) system (copyright 1983,
 Carnegie Mellon University). Gaussian is a federally registered
 trademark of Gaussian, Inc.
  
 This software contains proprietary and confidential information,
 including trade secrets, belonging to Gaussian, Inc.
  
 This software is provided under written license and may be
 used, copied, transmitted, or stored only in accord with that
 written license.
  
 The following legend is applicable only to US Government
 contracts under FAR:
  
                    RESTRICTED RIGHTS LEGEND
  
 Use, reproduction and disclosure by the US Government is
 subject to restrictions as set forth in subparagraphs (a)
 and (c) of the Commercial Computer Software - Restricted
 Rights clause in FAR 52.227-19.
  
 Gaussian, Inc.
 340 Quinnipiac St., Bldg. 40, Wallingford CT 06492
  
  
 ---------------------------------------------------------------
 Warning -- This program may not be used in any manner that
 competes with the business of Gaussian, Inc. or will provide
 assistance to any competitor of Gaussian, Inc.  The licensee
 of this program is prohibited from giving any competitor of
 Gaussian, Inc. access to this program.  By using this program,
 the user acknowledges that Gaussian, Inc. is engaged in the
 business of creating and licensing software in the field of
 computational chemistry and represents and warrants to the
 licensee that it is not a competitor of Gaussian, Inc. and that
 it will not use this program in any manner prohibited above.
 ---------------------------------------------------------------
  

 Cite this work as:
 Gaussian 16, Revision A.03,
 M. J. Frisch, G. W. Trucks, H. B. Schlegel, G. E. Scuseria, 
 M. A. Robb, J. R. Cheeseman, G. Scalmani, V. Barone, 
 G. A. Petersson, H. Nakatsuji, X. Li, M. Caricato, A. V. Marenich, 
 J. Bloino, B. G. Janesko, R. Gomperts, B. Mennucci, H. P. Hratchian, 
 J. V. Ortiz, A. F. Izmaylov, J. L. Sonnenberg, D. Williams-Young, 
 F. Ding, F. Lipparini, F. Egidi, J. Goings, B. Peng, A. Petrone, 
 T. Henderson, D. Ranasinghe, V. G. Zakrzewski, J. Gao, N. Rega, 
 G. Zheng, W. Liang, M. Hada, M. Ehara, K. Toyota, R. Fukuda, 
 J. Hasegawa, M. Ishida, T. Nakajima, Y. Honda, O. Kitao, H. Nakai, 
 T. Vreven, K. Throssell, J. A. Montgomery, Jr., J. E. Peralta, 
 F. Ogliaro, M. J. Bearpark, J. J. Heyd, E. N. Brothers, K. N. Kudin, 
 V. N. Staroverov, T. A. Keith, R. Kobayashi, J. Normand, 
 K. Raghavachari, A. P. Rendell, J. C. Burant, S. S. Iyengar, 
 J. Tomasi, M. Cossi, J. M. Millam, M. Klene, C. Adamo, R. Cammi, 
 J. W. Ochterski, R. L. Martin, K. Morokuma, O. Farkas, 
 J. B. Foresman, and D. J. Fox, Gaussian, Inc., Wallingford CT, 2016.
 
 ******************************************
 Gaussian 16:  EM64L-G16RevA.03 25-Dec-2016
                16-Mar-2020 
 ******************************************
 %mem=50GB
 %nproc=16
 Will use up to   16 processors via shared memory.
 ----------------------------------------------------------------------
 #P uLC-wHPBE/6-31G iop(3/107=0419600000, 3/108=0419600000) scf=(conver
 =6,fermi,ndamp=35,noincfock,novaracc,vshift=500,xqc)
 ----------------------------------------------------------------------
 1/38=1,172=1/1;
 2/12=2,17=6,18=5,40=1/2;
 3/5=1,6=6,11=2,25=1,30=1,74=-71,107=419600000,108=419600000,116=2/1,2,3;
 4//1;
 5/5=100002,6=6,8=3,10=500,13=1,18=-1,22=13,38=1,93=35/2,8;
 6/7=2,8=2,9=2,10=2,28=1/1;
 99/5=1,9=1/99;
 Leave Link    1 at Mon Mar 16 03:50:42 2020, MaxMem=  6710886400 cpu:              14.0 elap:               0.9
 (Enter /opt/ohpc/pub/libs/gaussian/g16-A.03/sandybridge/g16/l101.exe)
 -----
 H6 C6
 -----
 Symbolic Z-matrix:
 Charge =  1 Multiplicity = 2
 C                     0.        1.39638   0. 
 C                    -1.2093    0.69819   0. 
 C                    -1.2093   -0.69819   0. 
 C                     0.       -1.39638   0. 
 C                     1.2093   -0.69819   0. 
 C                     1.2093    0.69819   0. 
 H                     0.        2.48461   0. 
 H                    -2.15174   1.24231   0. 
 H                    -2.15174  -1.24231   0. 
 H                     0.       -2.48461   0. 
 H                     2.15174  -1.24231   0. 
 H                     2.15174   1.24231   0. 
 
 ITRead=  0  0  0  0  0  0  0  0  0  0  0  0
 MicOpt= -1 -1 -1 -1 -1 -1 -1 -1 -1 -1 -1 -1
 NAtoms=     12 NQM=       12 NQMF=       0 NMMI=      0 NMMIF=      0
                NMic=       0 NMicF=      0.
                    Isotopes and Nuclear Properties:
 (Nuclear quadrupole moments (NQMom) in fm**2, nuclear magnetic moments (NMagM)
  in nuclear magnetons)

  Atom         1           2           3           4           5           6           7           8           9          10
 IAtWgt=          12          12          12          12          12          12           1           1           1           1
 AtmWgt=  12.0000000  12.0000000  12.0000000  12.0000000  12.0000000  12.0000000   1.0078250   1.0078250   1.0078250   1.0078250
 NucSpn=           0           0           0           0           0           0           1           1           1           1
 AtZEff=  -0.0000000  -0.0000000  -0.0000000  -0.0000000  -0.0000000  -0.0000000  -0.0000000  -0.0000000  -0.0000000  -0.0000000
 NQMom=    0.0000000   0.0000000   0.0000000   0.0000000   0.0000000   0.0000000   0.0000000   0.0000000   0.0000000   0.0000000
 NMagM=    0.0000000   0.0000000   0.0000000   0.0000000   0.0000000   0.0000000   2.7928460   2.7928460   2.7928460   2.7928460
 AtZNuc=   6.0000000   6.0000000   6.0000000   6.0000000   6.0000000   6.0000000   1.0000000   1.0000000   1.0000000   1.0000000

  Atom        11          12
 IAtWgt=           1           1
 AtmWgt=   1.0078250   1.0078250
 NucSpn=           1           1
 AtZEff=  -0.0000000  -0.0000000
 NQMom=    0.0000000   0.0000000
 NMagM=    2.7928460   2.7928460
 AtZNuc=   1.0000000   1.0000000
 Leave Link  101 at Mon Mar 16 03:50:42 2020, MaxMem=  6710886400 cpu:               2.2 elap:               0.2
 (Enter /opt/ohpc/pub/libs/gaussian/g16-A.03/sandybridge/g16/l202.exe)
                          Input orientation:                          
 ---------------------------------------------------------------------
 Center     Atomic      Atomic             Coordinates (Angstroms)
 Number     Number       Type             X           Y           Z
 ---------------------------------------------------------------------
      1          6           0        0.000000    1.396379    0.000000
      2          6           0       -1.209300    0.698190    0.000000
      3          6           0       -1.209300   -0.698190    0.000000
      4          6           0        0.000000   -1.396379    0.000000
      5          6           0        1.209300   -0.698190    0.000000
      6          6           0        1.209300    0.698190    0.000000
      7          1           0        0.000000    2.484613    0.000000
      8          1           0       -2.151738    1.242306    0.000000
      9          1           0       -2.151738   -1.242306    0.000000
     10          1           0        0.000000   -2.484613    0.000000
     11          1           0        2.151738   -1.242306    0.000000
     12          1           0        2.151738    1.242306    0.000000
 ---------------------------------------------------------------------
                    Distance matrix (angstroms):
                    1          2          3          4          5
     1  C    0.000000
     2  C    1.396379   0.000000
     3  C    2.418600   1.396380   0.000000
     4  C    2.792758   2.418600   1.396379   0.000000
     5  C    2.418600   2.792759   2.418600   1.396379   0.000000
     6  C    1.396379   2.418600   2.792759   2.418600   1.396380
     7  H    1.088234   2.157247   3.404797   3.880992   3.404797
     8  H    2.157247   1.088233   2.157247   3.404796   3.880992
     9  H    3.404796   2.157247   1.088233   2.157247   3.404796
    10  H    3.880992   3.404797   2.157247   1.088234   2.157247
    11  H    3.404796   3.880992   3.404796   2.157247   1.088233
    12  H    2.157247   3.404796   3.880992   3.404796   2.157247
                    6          7          8          9         10
     6  C    0.000000
     7  H    2.157247   0.000000
     8  H    3.404796   2.484613   0.000000
     9  H    3.880992   4.303476   2.484612   0.000000
    10  H    3.404797   4.969226   4.303476   2.484613   0.000000
    11  H    2.157247   4.303476   4.969226   4.303476   2.484613
    12  H    1.088233   2.484613   4.303476   4.969226   4.303476
                   11         12
    11  H    0.000000
    12  H    2.484612   0.000000
 Stoichiometry    C6H6(1+,2)
 Framework group  D6H[3C2'(HC.CH)]
 Deg. of freedom     2
 Full point group                 D6H     NOp  24
 Largest Abelian subgroup         D2H     NOp   8
 Largest concise Abelian subgroup D2      NOp   4
                         Standard orientation:                         
 ---------------------------------------------------------------------
 Center     Atomic      Atomic             Coordinates (Angstroms)
 Number     Number       Type             X           Y           Z
 ---------------------------------------------------------------------
      1          6           0       -0.000000    1.396379   -0.000000
      2          6           0       -1.209300    0.698190   -0.000000
      3          6           0       -1.209300   -0.698189   -0.000000
      4          6           0       -0.000000   -1.396379   -0.000000
      5          6           0        1.209300   -0.698190   -0.000000
      6          6           0        1.209300    0.698189   -0.000000
      7          1           0       -0.000000    2.484613   -0.000000
      8          1           0       -2.151738    1.242307   -0.000000
      9          1           0       -2.151738   -1.242307   -0.000000
     10          1           0       -0.000000   -2.484613   -0.000000
     11          1           0        2.151738   -1.242307   -0.000000
     12          1           0        2.151738    1.242306   -0.000000
 ---------------------------------------------------------------------
 Rotational constants (GHZ):           5.6873431           5.6873431           2.8436715
 Leave Link  202 at Mon Mar 16 03:50:43 2020, MaxMem=  6710886400 cpu:               0.6 elap:               0.1
 (Enter /opt/ohpc/pub/libs/gaussian/g16-A.03/sandybridge/g16/l301.exe)
 Standard basis: 6-31G (6D, 7F)
 Ernie: Thresh=  0.10000D-02 Tol=  0.10000D-05 Strict=F.
 There are    16 symmetry adapted cartesian basis functions of AG  symmetry.
 There are    11 symmetry adapted cartesian basis functions of B1G symmetry.
 There are     2 symmetry adapted cartesian basis functions of B2G symmetry.
 There are     4 symmetry adapted cartesian basis functions of B3G symmetry.
 There are     2 symmetry adapted cartesian basis functions of AU  symmetry.
 There are     4 symmetry adapted cartesian basis functions of B1U symmetry.
 There are    16 symmetry adapted cartesian basis functions of B2U symmetry.
 There are    11 symmetry adapted cartesian basis functions of B3U symmetry.
 There are    16 symmetry adapted basis functions of AG  symmetry.
 There are    11 symmetry adapted basis functions of B1G symmetry.
 There are     2 symmetry adapted basis functions of B2G symmetry.
 There are     4 symmetry adapted basis functions of B3G symmetry.
 There are     2 symmetry adapted basis functions of AU  symmetry.
 There are     4 symmetry adapted basis functions of B1U symmetry.
 There are    16 symmetry adapted basis functions of B2U symmetry.
 There are    11 symmetry adapted basis functions of B3U symmetry.
    66 basis functions,   156 primitive gaussians,    66 cartesian basis functions
    21 alpha electrons       20 beta electrons
       nuclear repulsion energy       203.1815835396 Hartrees.
 IExCor=33909 DFT=T Ex+Corr=LC-wHPBE ExCW=0 ScaHFX=  1.000000
 ScaDFX=  1.000000  1.000000  1.000000  1.000000 ScalE2=  1.000000  1.000000
 IRadAn=      5 IRanWt=     -1 IRanGd=            0 ICorTp=0 IEmpDi=  4
 HFx  wShort=  0.000000 wLong=  0.419600 cFull=  0.000000 cShort=  0.000000 cLong=  1.000000
 DFx  wShort=  0.000000 wLong=  0.419600 cFull=  0.000000 cShort=  1.000000 cLong=  0.000000
 NAtoms=   12 NActive=   12 NUniq=    2 SFac= 4.00D+00 NAtFMM=   60 NAOKFM=F Big=F
 Integral buffers will be    131072 words long.
 Raffenetti 2 integral format.
 Two-electron integral symmetry is turned on.
 Leave Link  301 at Mon Mar 16 03:50:43 2020, MaxMem=  6710886400 cpu:               1.0 elap:               0.1
 (Enter /opt/ohpc/pub/libs/gaussian/g16-A.03/sandybridge/g16/l302.exe)
 NPDir=0 NMtPBC=     1 NCelOv=     1 NCel=       1 NClECP=     1 NCelD=      1
         NCelK=      1 NCelE2=     1 NClLst=     1 CellRange=     0.0.
 One-electron integrals computed using PRISM.
 One-electron integral symmetry used in STVInt
 NBasis=    66 RedAO= T EigKep=  7.02D-04  NBF=    16    11     2     4     2     4    16    11
 NBsUse=    66 1.00D-06 EigRej= -1.00D+00 NBFU=    16    11     2     4     2     4    16    11
 Precomputing XC quadrature grid using
 IXCGrd= 4 IRadAn=           5 IRanWt=          -1 IRanGd=           0 AccXCQ= 0.00D+00.
 Generated NRdTot=       0 NPtTot=           0 NUsed=           0 NTot=          32
 NSgBfM=    66    66    66    66    66 MxSgAt=    12 MxSgA2=    12.
 Leave Link  302 at Mon Mar 16 03:50:43 2020, MaxMem=  6710886400 cpu:               2.3 elap:               0.2
 (Enter /opt/ohpc/pub/libs/gaussian/g16-A.03/sandybridge/g16/l303.exe)
 DipDrv:  MaxL=1.
 Leave Link  303 at Mon Mar 16 03:50:43 2020, MaxMem=  6710886400 cpu:               0.8 elap:               0.1
 (Enter /opt/ohpc/pub/libs/gaussian/g16-A.03/sandybridge/g16/l401.exe)
 ExpMin= 1.61D-01 ExpMax= 3.05D+03 ExpMxC= 4.57D+02 IAcc=3 IRadAn=         5 AccDes= 0.00D+00
 Harris functional with IExCor=33909 and IRadAn=       5 diagonalized for initial guess.
 HarFok:  IExCor=33909 AccDes= 0.00D+00 IRadAn=         5 IDoV= 1 UseB2=F ITyADJ=14
 ICtDFT=  3500011 ScaDFX=  1.000000  1.000000  1.000000  1.000000
 FoFCou: FMM=F IPFlag=           0 FMFlag=      100000 FMFlg1=           0
         NFxFlg=           0 DoJE=T BraDBF=F KetDBF=T FulRan=T
         wScrn=  0.000000 ICntrl=       500 IOpCl=  0 I1Cent=   200000004 NGrid=           0
         NMat0=    1 NMatS0=      1 NMatT0=    0 NMatD0=    1 NMtDS0=    0 NMtDT0=    0
 Petite list used in FoFCou.
 Harris En= -223.322467587236    
 JPrj=0 DoOrth=F DoCkMO=F.
 Initial guess orbital symmetries:
 Alpha Orbitals:
       Occupied  (A1G) (E1U) (E1U) (E2G) (E2G) (B1U) (A1G) (E1U)
                 (E1U) (E2G) (E2G) (A1G) (B2U) (B1U) (E1U) (E1U)
                 (A2U) (E2G) (E2G) (E1G) (E1G)
       Virtual   (E2U) (E2U) (A1G) (B2G) (E1U) (E1U) (E2G) (E2G)
                 (B1U) (E2G) (E2G) (E1U) (E1U) (B2U) (A2U) (B1U)
                 (A2G) (A1G) (E2G) (E2G) (E1G) (E1G) (A1G) (E1U)
                 (E1U) (E2U) (E2U) (B2G) (B1U) (E2G) (E2G) (E1U)
                 (E1U) (A2G) (A1G) (E1U) (E1U) (E2G) (E2G) (E1U)
                 (E1U) (B1U) (E2G) (E2G) (B1U)
 Beta  Orbitals:
       Occupied  (A1G) (E1U) (E1U) (E2G) (E2G) (B1U) (A1G) (E1U)
                 (E1U) (E2G) (E2G) (A1G) (B2U) (B1U) (E1U) (E1U)
                 (A2U) (E2G) (E2G) (E1G)
       Virtual   (E1G) (E2U) (E2U) (A1G) (B2G) (E1U) (E1U) (E2G)
                 (E2G) (B1U) (E2G) (E2G) (E1U) (E1U) (B2U) (A2U)
                 (B1U) (A2G) (A1G) (E2G) (E2G) (E1G) (E1G) (A1G)
                 (E1U) (E1U) (E2U) (E2U) (B2G) (B1U) (E2G) (E2G)
                 (E1U) (E1U) (A2G) (A1G) (E1U) (E1U) (E2G) (E2G)
                 (E1U) (E1U) (B1U) (E2G) (E2G) (B1U)
 Initial guess <Sx>= 0.0000 <Sy>= 0.0000 <Sz>= 0.5000 <S**2>= 0.7500 S= 0.5000
 Leave Link  401 at Mon Mar 16 03:50:43 2020, MaxMem=  6710886400 cpu:               2.8 elap:               0.2
 (Enter /opt/ohpc/pub/libs/gaussian/g16-A.03/sandybridge/g16/l502.exe)
 Keep R1 and R2 ints in memory in symmetry-blocked form, NReq=19109854.
 FoFCou: FMM=F IPFlag=           0 FMFlag=           0 FMFlg1=           0
         NFxFlg=           0 DoJE=F BraDBF=F KetDBF=F FulRan=T
         wScrn=  0.000000 ICntrl=       600 IOpCl=  0 I1Cent=           0 NGrid=           0
         NMat0=    1 NMatS0=   2211 NMatT0=    0 NMatD0=    1 NMtDS0=    0 NMtDT0=    0
 Petite list used in FoFCou.
 UHF open shell SCF:
 Using DIIS extrapolation, IDIIS=    10.
 NGot=  6710886400 LenX=  6710146038 LenY=  6710141241
 Requested convergence on RMS density matrix=1.00D-06 within  32 cycles.
 Requested convergence on MAX density matrix=1.00D-04.
 Requested convergence on             energy=1.00D-04.
 Virtual orbitals will be shifted by   0.500 hartree.
 No special actions if energy rises.
 Dynamic level shift is on during FON iterations.

 Cycle   1  Pass 1  IDiag  1:
 Density matrix breaks symmetry, PCut= 1.00D-04
 Density has only Abelian symmetry.
 E= -231.661016286514    
 DIIS: error= 1.67D-02 at cycle   1 NSaved=   1.
 NSaved= 1 IEnMin= 1 EnMin= -231.661016286514     IErMin= 1 ErrMin= 1.67D-02
 ErrMax= 1.67D-02  0.00D+00 EMaxC= 1.00D+00 BMatC= 5.05D-02 BMatP= 5.05D-02
 IDIUse=1 WtCom= 1.00D+00 WtEn= 0.00D+00
 Coeff-Com:  0.100D+01
 Coeff:      0.100D+01
 Gap=     0.409 Goal=   None    Shift=    0.500
 T= 1143. Gap= 0.910 NK=0 IS=   22 IE=   66 IFin=   21
          NO(<0.9)=   0  NV(>0.1)=   0     21.00e < EF      0.00e >EF  Err=0.0D+00
 Gap=     0.220 Goal=   None    Shift=    0.500
 T= 1143. Gap= 0.719 NK=0 IS=   21 IE=   66 IFin=   20
          NO(<0.9)=   0  NV(>0.1)=   0     20.00e < EF      0.00e >EF  Err=0.0D+00
 GapD=    0.220 DampG=1.000 DampE=0.500 DampFc=0.5000 IDamp=-1.
 Damping current iteration by 5.00D-01
 RMSDP=3.68D-03 MaxDP=2.27D-02              OVMax= 2.97D-02

 Cycle   2  Pass 1  IDiag  1:
 Density matrix breaks symmetry, PCut= 1.00D-04
 Density has only Abelian symmetry.
 E= -231.668983459435     Delta-E=       -0.007967172921 Rises=F Damp=T
 DIIS: error= 1.04D-02 at cycle   2 NSaved=   2.
 NSaved= 2 IEnMin= 2 EnMin= -231.668983459435     IErMin= 2 ErrMin= 1.04D-02
 ErrMax= 1.04D-02  0.00D+00 EMaxC= 1.00D+00 BMatC= 1.53D-02 BMatP= 5.05D-02
 IDIUse=1 WtCom= 1.00D+00 WtEn= 0.00D+00
 Coeff-Com: -0.937D+00 0.194D+01
 Coeff:     -0.937D+00 0.194D+01
 Gap=     0.425 Goal=   None    Shift=    0.500
 T= 1063. Gap= 0.925 NK=0 IS=   22 IE=   66 IFin=   21
          NO(<0.9)=   0  NV(>0.1)=   0     21.00e < EF      0.00e >EF  Err=0.0D+00
 Gap=     0.243 Goal=   None    Shift=    0.500
 T= 1063. Gap= 0.743 NK=0 IS=   21 IE=   66 IFin=   20
          NO(<0.9)=   0  NV(>0.1)=   0     20.00e < EF      0.00e >EF  Err=0.0D+00
 GapD=    0.243 DampG=1.000 DampE=0.500 DampFc=0.5000 IDamp=-1.
 Damping current iteration by 5.00D-01
 RMSDP=3.08D-03 MaxDP=1.63D-02 DE=-7.97D-03 OVMax= 2.14D-02

 Cycle   3  Pass 1  IDiag  1:
 Density matrix breaks symmetry, PCut= 1.00D-04
 Density has only Abelian symmetry.
 E= -231.673193014688     Delta-E=       -0.004209555253 Rises=F Damp=T
 DIIS: error= 7.81D-03 at cycle   3 NSaved=   3.
 NSaved= 3 IEnMin= 3 EnMin= -231.673193014688     IErMin= 3 ErrMin= 7.81D-03
 ErrMax= 7.81D-03  0.00D+00 EMaxC= 1.00D+00 BMatC= 5.63D-03 BMatP= 1.53D-02
 IDIUse=1 WtCom= 1.00D+00 WtEn= 0.00D+00
 Coeff-Com:  0.238D+00-0.201D+01 0.278D+01
 Coeff:      0.238D+00-0.201D+01 0.278D+01
 Gap=     0.418 Goal=   None    Shift=    0.500
 T=  928. Gap= 0.918 NK=0 IS=   22 IE=   66 IFin=   21
          NO(<0.9)=   0  NV(>0.1)=   0     21.00e < EF      0.00e >EF  Err=0.0D+00
 Gap=     0.246 Goal=   None    Shift=    0.500
 T=  928. Gap= 0.746 NK=0 IS=   21 IE=   66 IFin=   20
          NO(<0.9)=   0  NV(>0.1)=   0     20.00e < EF      0.00e >EF  Err=0.0D+00
 GapD=    0.246 DampG=1.000 DampE=1.000 DampFc=1.0000 IDamp=-1.
 RMSDP=2.21D-03 MaxDP=1.17D-02 DE=-4.21D-03 OVMax= 1.65D-02

 Cycle   4  Pass 1  IDiag  1:
 Density matrix breaks symmetry, PCut= 1.00D-04
 Density has only Abelian symmetry.
 E= -231.678690359476     Delta-E=       -0.005497344789 Rises=F Damp=F
 DIIS: error= 5.44D-03 at cycle   4 NSaved=   4.
 NSaved= 4 IEnMin= 4 EnMin= -231.678690359476     IErMin= 4 ErrMin= 5.44D-03
 ErrMax= 5.44D-03  0.00D+00 EMaxC= 1.00D+00 BMatC= 5.72D-04 BMatP= 5.63D-03
 IDIUse=1 WtCom= 1.00D+00 WtEn= 0.00D+00
 Coeff-Com:  0.898D-01 0.857D+00-0.202D+01 0.207D+01
 Coeff:      0.898D-01 0.857D+00-0.202D+01 0.207D+01
 Gap=     0.414 Goal=   None    Shift=    0.500
 T=  695. Gap= 0.914 NK=0 IS=   22 IE=   66 IFin=   21
          NO(<0.9)=   0  NV(>0.1)=   0     21.00e < EF      0.00e >EF  Err=0.0D+00
 Gap=     0.252 Goal=   None    Shift=    0.500
 T=  695. Gap= 0.752 NK=0 IS=   21 IE=   66 IFin=   20
          NO(<0.9)=   0  NV(>0.1)=   0     20.00e < EF      0.00e >EF  Err=0.0D+00
 GapD=    0.252 DampG=1.000 DampE=1.000 DampFc=1.0000 IDamp=-1.
 RMSDP=4.11D-04 MaxDP=5.03D-03 DE=-5.50D-03 OVMax= 1.61D-02

 Cycle   5  Pass 1  IDiag  1:
 Density matrix breaks symmetry, PCut= 1.00D-04
 Density has only Abelian symmetry.
 E= -231.679328697637     Delta-E=       -0.000638338161 Rises=F Damp=F
 DIIS: error= 3.33D-03 at cycle   5 NSaved=   5.
 NSaved= 5 IEnMin= 5 EnMin= -231.679328697637     IErMin= 5 ErrMin= 3.33D-03
 ErrMax= 3.33D-03  0.00D+00 EMaxC= 1.00D+00 BMatC= 2.28D-04 BMatP= 5.72D-04
 IDIUse=1 WtCom= 1.00D+00 WtEn= 0.00D+00
 Coeff-Com: -0.117D+00 0.952D+00-0.127D+01-0.770D+00 0.221D+01
 Coeff:     -0.117D+00 0.952D+00-0.127D+01-0.770D+00 0.221D+01
 Gap=     0.411 Goal=   None    Shift=    0.500
 T=  481. Gap= 0.911 NK=0 IS=   22 IE=   66 IFin=   21
          NO(<0.9)=   0  NV(>0.1)=   0     21.00e < EF      0.00e >EF  Err=0.0D+00
 Gap=     0.256 Goal=   None    Shift=    0.500
 T=  481. Gap= 0.756 NK=0 IS=   21 IE=   66 IFin=   20
          NO(<0.9)=   0  NV(>0.1)=   0     20.00e < EF      0.00e >EF  Err=0.0D+00
 GapD=    0.256 DampG=1.000 DampE=1.000 DampFc=1.0000 IDamp=-1.
 RMSDP=2.80D-04 MaxDP=4.69D-03 DE=-6.38D-04 OVMax= 1.30D-02

 Cycle   6  Pass 1  IDiag  1:
 Density matrix breaks symmetry, PCut= 1.00D-04
 Density has only Abelian symmetry.
 E= -231.679656023647     Delta-E=       -0.000327326010 Rises=F Damp=F
 DIIS: error= 1.82D-03 at cycle   6 NSaved=   6.
 NSaved= 6 IEnMin= 6 EnMin= -231.679656023647     IErMin= 6 ErrMin= 1.82D-03
 ErrMax= 1.82D-03  0.00D+00 EMaxC= 1.00D+00 BMatC= 6.51D-05 BMatP= 2.28D-04
 IDIUse=1 WtCom= 1.00D+00 WtEn= 0.00D+00
 Coeff-Com:  0.220D-01-0.287D+00 0.472D+00-0.299D+00-0.101D+01 0.210D+01
 Coeff:      0.220D-01-0.287D+00 0.472D+00-0.299D+00-0.101D+01 0.210D+01
 Gap=     0.410 Goal=   None    Shift=    0.500
 T=  211. Gap= 0.910 NK=0 IS=   22 IE=   66 IFin=   21
          NO(<0.9)=   0  NV(>0.1)=   0     21.00e < EF      0.00e >EF  Err=0.0D+00
 Gap=     0.257 Goal=   None    Shift=    0.500
 T=  211. Gap= 0.757 NK=0 IS=   21 IE=   66 IFin=   20
          NO(<0.9)=   0  NV(>0.1)=   0     20.00e < EF      0.00e >EF  Err=0.0D+00
 GapD=    0.257 DampG=1.000 DampE=1.000 DampFc=1.0000 IDamp=-1.
 RMSDP=1.61D-04 MaxDP=2.89D-03 DE=-3.27D-04 OVMax= 7.62D-03

 Cycle   7  Pass 1  IDiag  1:
 Density matrix breaks symmetry, PCut= 1.00D-04
 Density has only Abelian symmetry.
 E= -231.679756025639     Delta-E=       -0.000100001992 Rises=F Damp=F
 DIIS: error= 9.14D-04 at cycle   7 NSaved=   7.
 NSaved= 7 IEnMin= 7 EnMin= -231.679756025639     IErMin= 7 ErrMin= 9.14D-04
 ErrMax= 9.14D-04  0.00D+00 EMaxC= 1.00D+00 BMatC= 1.77D-05 BMatP= 6.51D-05
 IDIUse=1 WtCom= 1.00D+00 WtEn= 0.00D+00
 Coeff-Com: -0.201D-01 0.281D+00-0.466D+00 0.245D+00 0.110D+01-0.370D+01
 Coeff-Com:  0.356D+01
 Coeff:     -0.201D-01 0.281D+00-0.466D+00 0.245D+00 0.110D+01-0.370D+01
 Coeff:      0.356D+01
 Gap=     0.409 Goal=   None    Shift=    0.500
 Gap=     0.257 Goal=   None    Shift=    0.500
 RMSDP=8.15D-05 MaxDP=1.44D-03 DE=-1.00D-04 OVMax= 3.92D-03

 Cycle   8  Pass 1  IDiag  1:
 Density matrix breaks symmetry, PCut= 1.00D-04
 Density has only Abelian symmetry.
 E= -231.679781412832     Delta-E=       -0.000025387193 Rises=F Damp=F
 DIIS: error= 4.59D-04 at cycle   8 NSaved=   8.
 NSaved= 8 IEnMin= 8 EnMin= -231.679781412832     IErMin= 8 ErrMin= 4.59D-04
 ErrMax= 4.59D-04  0.00D+00 EMaxC= 1.00D+00 BMatC= 4.48D-06 BMatP= 1.77D-05
 IDIUse=1 WtCom= 1.00D+00 WtEn= 0.00D+00
 Coeff-Com:  0.826D-02-0.955D-01 0.160D+00-0.131D+00-0.443D+00 0.197D+01
 Coeff-Com: -0.356D+01 0.309D+01
 Coeff:      0.826D-02-0.955D-01 0.160D+00-0.131D+00-0.443D+00 0.197D+01
 Coeff:     -0.356D+01 0.309D+01
 Gap=     0.409 Goal=   None    Shift=    0.500
 Gap=     0.257 Goal=   None    Shift=    0.500
 RMSDP=3.83D-05 MaxDP=6.22D-04 DE=-2.54D-05 OVMax= 1.96D-03

 Cycle   9  Pass 1  IDiag  1:
 Density matrix breaks symmetry, PCut= 1.00D-04
 Density has only Abelian symmetry.
 E= -231.679787303710     Delta-E=       -0.000005890878 Rises=F Damp=F
 DIIS: error= 2.23D-04 at cycle   9 NSaved=   9.
 NSaved= 9 IEnMin= 9 EnMin= -231.679787303710     IErMin= 9 ErrMin= 2.23D-04
 ErrMax= 2.23D-04  0.00D+00 EMaxC= 1.00D+00 BMatC= 9.83D-07 BMatP= 4.48D-06
 IDIUse=1 WtCom= 1.00D+00 WtEn= 0.00D+00
 Coeff-Com: -0.464D-02 0.508D-01-0.824D-01 0.506D-01 0.237D+00-0.102D+01
 Coeff-Com:  0.195D+01-0.299D+01 0.280D+01
 Coeff:     -0.464D-02 0.508D-01-0.824D-01 0.506D-01 0.237D+00-0.102D+01
 Coeff:      0.195D+01-0.299D+01 0.280D+01
 Gap=     0.409 Goal=   None    Shift=    0.500
 Gap=     0.257 Goal=   None    Shift=    0.500
 RMSDP=1.74D-05 MaxDP=2.92D-04 DE=-5.89D-06 OVMax= 9.42D-04

 Cycle  10  Pass 1  IDiag  1:
 Density matrix breaks symmetry, PCut= 1.00D-04
 Density has only Abelian symmetry.
 E= -231.679788576822     Delta-E=       -0.000001273112 Rises=F Damp=F
 DIIS: error= 1.07D-04 at cycle  10 NSaved=  10.
 NSaved=10 IEnMin=10 EnMin= -231.679788576822     IErMin=10 ErrMin= 1.07D-04
 ErrMax= 1.07D-04  0.00D+00 EMaxC= 1.00D+00 BMatC= 2.06D-07 BMatP= 9.83D-07
 IDIUse=1 WtCom= 1.00D+00 WtEn= 0.00D+00
 Coeff-Com:  0.291D-02-0.265D-01 0.419D-01-0.311D-01-0.113D+00 0.525D+00
 Coeff-Com: -0.109D+01 0.185D+01-0.304D+01 0.288D+01
 Coeff:      0.291D-02-0.265D-01 0.419D-01-0.311D-01-0.113D+00 0.525D+00
 Coeff:     -0.109D+01 0.185D+01-0.304D+01 0.288D+01
 Gap=     0.409 Goal=   None    Shift=    0.500
 Gap=     0.257 Goal=   None    Shift=    0.500
 RMSDP=7.98D-06 MaxDP=1.34D-04 DE=-1.27D-06 OVMax= 4.42D-04

 Cycle  11  Pass 1  IDiag  1:
 Density matrix breaks symmetry, PCut= 1.00D-04
 Density has only Abelian symmetry.
 E= -231.679788842261     Delta-E=       -0.000000265439 Rises=F Damp=F
 DIIS: error= 5.13D-05 at cycle  11 NSaved=  11.
 NSaved=11 IEnMin=11 EnMin= -231.679788842261     IErMin=11 ErrMin= 5.13D-05
 ErrMax= 5.13D-05  0.00D+00 EMaxC= 1.00D+00 BMatC= 4.21D-08 BMatP= 2.06D-07
 IDIUse=1 WtCom= 1.00D+00 WtEn= 0.00D+00
 Coeff-Com: -0.151D-02 0.131D-01-0.203D-01 0.128D-01 0.547D-01-0.251D+00
 Coeff-Com:  0.542D+00-0.103D+01 0.192D+01-0.310D+01 0.286D+01
 Coeff:     -0.151D-02 0.131D-01-0.203D-01 0.128D-01 0.547D-01-0.251D+00
 Coeff:      0.542D+00-0.103D+01 0.192D+01-0.310D+01 0.286D+01
 Gap=     0.409 Goal=   None    Shift=    0.500
 Gap=     0.257 Goal=   None    Shift=    0.500
 RMSDP=3.57D-06 MaxDP=5.99D-05 DE=-2.65D-07 OVMax= 2.07D-04

 Cycle  12  Pass 1  IDiag  1:
 Density matrix breaks symmetry, PCut= 1.00D-04
 Density has only Abelian symmetry.
 E= -231.679788896504     Delta-E=       -0.000000054243 Rises=F Damp=F
 DIIS: error= 2.48D-05 at cycle  12 NSaved=  12.
 NSaved=12 IEnMin=12 EnMin= -231.679788896504     IErMin=12 ErrMin= 2.48D-05
 ErrMax= 2.48D-05  0.00D+00 EMaxC= 1.00D+00 BMatC= 8.83D-09 BMatP= 4.21D-08
 IDIUse=1 WtCom= 1.00D+00 WtEn= 0.00D+00
 Coeff-Com:  0.291D-03-0.154D-02 0.204D-02-0.188D-02-0.261D-02 0.218D-01
 Coeff-Com: -0.624D-01 0.161D+00-0.437D+00 0.114D+01-0.265D+01 0.282D+01
 Coeff:      0.291D-03-0.154D-02 0.204D-02-0.188D-02-0.261D-02 0.218D-01
 Coeff:     -0.624D-01 0.161D+00-0.437D+00 0.114D+01-0.265D+01 0.282D+01
 Gap=     0.409 Goal=   None    Shift=    0.500
 Gap=     0.257 Goal=   None    Shift=    0.500
 RMSDP=1.59D-06 MaxDP=2.67D-05 DE=-5.42D-08 OVMax= 9.79D-05

 Cycle  13  Pass 1  IDiag  1:
 Density matrix breaks symmetry, PCut= 1.00D-04
 Density has only Abelian symmetry.
 E= -231.679788907748     Delta-E=       -0.000000011244 Rises=F Damp=F
 DIIS: error= 1.19D-05 at cycle  13 NSaved=  13.
 NSaved=13 IEnMin=13 EnMin= -231.679788907748     IErMin=13 ErrMin= 1.19D-05
 ErrMax= 1.19D-05  0.00D+00 EMaxC= 1.00D+00 BMatC= 1.85D-09 BMatP= 8.83D-09
 IDIUse=1 WtCom= 1.00D+00 WtEn= 0.00D+00
 Coeff-Com:  0.126D-03-0.146D-02 0.239D-02-0.153D-02-0.675D-02 0.261D-01
 Coeff-Com: -0.429D-01 0.448D-01-0.110D-01-0.172D+00 0.853D+00-0.240D+01
 Coeff-Com:  0.271D+01
 Coeff:      0.126D-03-0.146D-02 0.239D-02-0.153D-02-0.675D-02 0.261D-01
 Coeff:     -0.429D-01 0.448D-01-0.110D-01-0.172D+00 0.853D+00-0.240D+01
 Coeff:      0.271D+01
 Gap=     0.409 Goal=   None    Shift=    0.500
 Gap=     0.257 Goal=   None    Shift=    0.500
 RMSDP=7.05D-07 MaxDP=1.19D-05 DE=-1.12D-08 OVMax= 4.60D-05

 Density matrix breaks symmetry, PCut= 1.00D-04
 Density has only Abelian symmetry.
 SCF Done:  E(ULC-wHPBE) =  -231.679788908     A.U. after   13 cycles
            NFock= 13  Conv=0.70D-06     -V/T= 2.0051
 <Sx>= 0.0000 <Sy>= 0.0000 <Sz>= 0.5000 <S**2>= 0.7910 S= 0.5203
 <L.S>= 0.000000000000E+00
 KE= 2.305002754066D+02 PE=-9.340483248827D+02 EE= 2.686866770288D+02
 Annihilation of the first spin contaminant:
 S**2 before annihilation     0.7910,   after     0.7508
 Leave Link  502 at Mon Mar 16 03:50:44 2020, MaxMem=  6710886400 cpu:              17.4 elap:               1.1
 (Enter /opt/ohpc/pub/libs/gaussian/g16-A.03/sandybridge/g16/l508.exe)
 QCSCF skips out because SCF is already converged.
 Leave Link  508 at Mon Mar 16 03:50:44 2020, MaxMem=  6710886400 cpu:               0.2 elap:               0.0
 (Enter /opt/ohpc/pub/libs/gaussian/g16-A.03/sandybridge/g16/l601.exe)
 Copying SCF densities to generalized density rwf, IOpCl= 1 IROHF=0.
 SCF density gives NOpUse=  8 NOpAll= 24.
 Marking SCF density as not fully symmetric.

 **********************************************************************

            Population analysis using the SCF density.

 **********************************************************************

 Orbital symmetries:
 Alpha Orbitals:
       Occupied  (?A) (?A) (?A) (?A) (?A) (?A) (?B) (?B) (?B) (?B)
                 (?B) (?B) (?B) (?B) (?B) (?B) (?C) (?B) (?B) (?C)
                 (?C)
       Virtual   (?C) (?C) (?B) (?C) (?B) (?B) (?B) (?B) (?B) (?B)
                 (?B) (?B) (?B) (?B) (?C) (?B) (?B) (?B) (?C) (?C)
                 (?B) (?B) (?B) (?C) (?B) (?B) (?C) (?C) (?B) (?B)
                 (?B) (?B) (?B) (?B) (?B) (?B) (?B) (?B) (?B) (?B)
                 (?B) (?B) (?B) (?B) (?B)
 Beta  Orbitals:
       Occupied  (?A) (?A) (?A) (?A) (?A) (?A) (?B) (B2G) (B2G)
                 (?B) (?B) (?B) (B2G) (B2G) (B2G) (B2G) (?C) (?B)
                 (?B) (?D)
       Virtual   (?D) (?C) (?C) (?D) (B2G) (?D) (B2G) (?D) (?D)
                 (B2G) (?D) (?D) (B2G) (B2G) (B2G) (?C) (B2G) (?D)
                 (?D) (?D) (?D) (?D) (?D) (?D) (B2G) (B2G) (E2U)
                 (E2U) (?D) (B2G) (?A) (?A) (B2G) (B2G) (?A) (?D)
                 (B2G) (B2G) (?D) (?D) (B2G) (B2G) (B2G) (E2G)
                 (E2G) (B1U)
 Unable to determine electronic state:  an orbital has unidentified symmetry.
 Alpha  occ. eigenvalues --  -10.39341 -10.39337 -10.39307 -10.39303 -10.35195
 Alpha  occ. eigenvalues --  -10.35191  -1.27115  -1.16172  -1.13230  -0.98319
 Alpha  occ. eigenvalues --   -0.98226  -0.89397  -0.82080  -0.81233  -0.79121
 Alpha  occ. eigenvalues --   -0.76823  -0.75492  -0.69108  -0.68776  -0.63073
 Alpha  occ. eigenvalues --   -0.58332
 Alpha virt. eigenvalues --   -0.17387  -0.13216   0.00511   0.03818   0.05744
 Alpha virt. eigenvalues --    0.06961   0.09308   0.10493   0.11964   0.19463
 Alpha virt. eigenvalues --    0.19991   0.20739   0.21357   0.39749   0.40969
 Alpha virt. eigenvalues --    0.43560   0.45478   0.46217   0.49103   0.51589
 Alpha virt. eigenvalues --    0.51899   0.52487   0.54913   0.55714   0.56340
 Alpha virt. eigenvalues --    0.56844   0.58027   0.65123   0.75673   0.76999
 Alpha virt. eigenvalues --    0.78551   0.81266   0.83115   0.88937   0.88974
 Alpha virt. eigenvalues --    0.91021   0.91060   1.02696   1.04420   1.08854
 Alpha virt. eigenvalues --    1.09894   1.14264   1.36672   1.36966   1.81894
  Beta  occ. eigenvalues --  -10.38844 -10.38844 -10.38821 -10.38816 -10.35445
  Beta  occ. eigenvalues --  -10.35440  -1.25758  -1.13395  -1.13104  -0.97687
  Beta  occ. eigenvalues --   -0.97215  -0.89082  -0.81603  -0.80764  -0.78525
  Beta  occ. eigenvalues --   -0.76870  -0.69306  -0.68898  -0.68485  -0.58565
  Beta virt. eigenvalues --   -0.32824  -0.11136  -0.10814   0.00715   0.06032
  Beta virt. eigenvalues --    0.06406   0.07010   0.10120   0.10604   0.12257
  Beta virt. eigenvalues --    0.20093   0.20165   0.21217   0.21715   0.40086
  Beta virt. eigenvalues --    0.42654   0.44640   0.45899   0.46571   0.51878
  Beta virt. eigenvalues --    0.52000   0.52646   0.53093   0.55217   0.57103
  Beta virt. eigenvalues --    0.57672   0.57993   0.58239   0.66044   0.76012
  Beta virt. eigenvalues --    0.77402   0.78624   0.81930   0.83096   0.89147
  Beta virt. eigenvalues --    0.89211   0.91293   0.92008   1.03974   1.04655
  Beta virt. eigenvalues --    1.09693   1.09971   1.14718   1.37147   1.37701
  Beta virt. eigenvalues --    1.82554
          Condensed to atoms (all electrons):
               1          2          3          4          5          6
     1  C    4.932200   0.520684  -0.064618  -0.020125  -0.064618   0.520684
     2  C    0.520684   4.976863   0.407806  -0.064618  -0.021291  -0.050889
     3  C   -0.064618   0.407806   4.976863   0.520684  -0.050889  -0.021291
     4  C   -0.020125  -0.064618   0.520684   4.932200   0.520684  -0.064618
     5  C   -0.064618  -0.021291  -0.050889   0.520684   4.976863   0.407806
     6  C    0.520684  -0.050889  -0.021291  -0.064618   0.407806   4.976863
     7  H    0.371740  -0.022145   0.002790   0.000065   0.002790  -0.022145
     8  H   -0.018086   0.365480  -0.026209   0.002554   0.000052   0.002711
     9  H    0.002554  -0.026209   0.365480  -0.018086   0.002711   0.000052
    10  H    0.000065   0.002790  -0.022145   0.371740  -0.022145   0.002790
    11  H    0.002554   0.000052   0.002711  -0.018086   0.365480  -0.026209
    12  H   -0.018086   0.002711   0.000052   0.002554  -0.026209   0.365480
               7          8          9         10         11         12
     1  C    0.371740  -0.018086   0.002554   0.000065   0.002554  -0.018086
     2  C   -0.022145   0.365480  -0.026209   0.002790   0.000052   0.002711
     3  C    0.002790  -0.026209   0.365480  -0.022145   0.002711   0.000052
     4  C    0.000065   0.002554  -0.018086   0.371740  -0.018086   0.002554
     5  C    0.002790   0.000052   0.002711  -0.022145   0.365480  -0.026209
     6  C   -0.022145   0.002711   0.000052   0.002790  -0.026209   0.365480
     7  H    0.399672  -0.001950  -0.000063   0.000002  -0.000063  -0.001950
     8  H   -0.001950   0.389145  -0.001660  -0.000063   0.000004  -0.000060
     9  H   -0.000063  -0.001660   0.389145  -0.001950  -0.000060   0.000004
    10  H    0.000002  -0.000063  -0.001950   0.399672  -0.001950  -0.000063
    11  H   -0.000063   0.000004  -0.000060  -0.001950   0.389145  -0.001660
    12  H   -0.001950  -0.000060   0.000004  -0.000063  -0.001660   0.389145
          Atomic-Atomic Spin Densities.
               1          2          3          4          5          6
     1  C   -0.227545  -0.005936  -0.008930   0.006384  -0.008930  -0.005936
     2  C   -0.005936   0.378398   0.041205  -0.008930  -0.007031  -0.005885
     3  C   -0.008930   0.041205   0.378398  -0.005936  -0.005885  -0.007031
     4  C    0.006384  -0.008930  -0.005936  -0.227545  -0.005936  -0.008930
     5  C   -0.008930  -0.007031  -0.005885  -0.005936   0.378398   0.041205
     6  C   -0.005936  -0.005885  -0.007031  -0.008930   0.041205   0.378398
     7  H    0.001608  -0.000844   0.000118  -0.000035   0.000118  -0.000844
     8  H    0.000145  -0.000363  -0.001815  -0.000024  -0.000047   0.000082
     9  H   -0.000024  -0.001815  -0.000363   0.000145   0.000082  -0.000047
    10  H   -0.000035   0.000118  -0.000844   0.001608  -0.000844   0.000118
    11  H   -0.000024  -0.000047   0.000082   0.000145  -0.000363  -0.001815
    12  H    0.000145   0.000082  -0.000047  -0.000024  -0.001815  -0.000363
               7          8          9         10         11         12
     1  C    0.001608   0.000145  -0.000024  -0.000035  -0.000024   0.000145
     2  C   -0.000844  -0.000363  -0.001815   0.000118  -0.000047   0.000082
     3  C    0.000118  -0.001815  -0.000363  -0.000844   0.000082  -0.000047
     4  C   -0.000035  -0.000024   0.000145   0.001608   0.000145  -0.000024
     5  C    0.000118  -0.000047   0.000082  -0.000844  -0.000363  -0.001815
     6  C   -0.000844   0.000082  -0.000047   0.000118  -0.001815  -0.000363
     7  H    0.006665  -0.000010   0.000003  -0.000001   0.000003  -0.000010
     8  H   -0.000010  -0.015708  -0.000063   0.000003  -0.000000   0.000005
     9  H    0.000003  -0.000063  -0.015708  -0.000010   0.000005  -0.000000
    10  H   -0.000001   0.000003  -0.000010   0.006665  -0.000010   0.000003
    11  H    0.000003  -0.000000   0.000005  -0.000010  -0.015708  -0.000063
    12  H   -0.000010   0.000005  -0.000000   0.000003  -0.000063  -0.015708
 Mulliken charges and spin densities:
               1          2
     1  C   -0.164949  -0.249079
     2  C   -0.091234   0.388951
     3  C   -0.091234   0.388951
     4  C   -0.164949  -0.249079
     5  C   -0.091234   0.388951
     6  C   -0.091234   0.388951
     7  H    0.271258   0.006771
     8  H    0.288080  -0.017797
     9  H    0.288080  -0.017797
    10  H    0.271258   0.006771
    11  H    0.288080  -0.017797
    12  H    0.288080  -0.017797
 Sum of Mulliken charges =   1.00000   1.00000
 Mulliken charges and spin densities with hydrogens summed into heavy atoms:
               1          2
     1  C    0.106309  -0.242308
     2  C    0.196846   0.371154
     3  C    0.196846   0.371154
     4  C    0.106309  -0.242308
     5  C    0.196846   0.371154
     6  C    0.196846   0.371154
 Electronic spatial extent (au):  <R**2>=            438.3723
 Charge=              1.0000 electrons
 Dipole moment (field-independent basis, Debye):
    X=             -0.0000    Y=              0.0000    Z=             -0.0000  Tot=              0.0000
 Quadrupole moment (field-independent basis, Debye-Ang):
   XX=            -17.6730   YY=            -21.6973   ZZ=            -35.1824
   XY=             -0.0000   XZ=              0.0000   YZ=              0.0000
 Traceless Quadrupole moment (field-independent basis, Debye-Ang):
   XX=              7.1779   YY=              3.1536   ZZ=            -10.3315
   XY=             -0.0000   XZ=              0.0000   YZ=              0.0000
 Octapole moment (field-independent basis, Debye-Ang**2):
  XXX=              0.0000  YYY=              0.0000  ZZZ=              0.0000  XYY=              0.0000
  XXY=              0.0000  XXZ=              0.0000  XZZ=              0.0000  YZZ=              0.0000
  YYZ=              0.0000  XYZ=              0.0000
 Hexadecapole moment (field-independent basis, Debye-Ang**3):
 XXXX=           -193.9032 YYYY=           -209.8225 ZZZZ=            -34.5080 XXXY=              0.0000
 XXXZ=              0.0000 YYYX=             -0.0000 YYYZ=              0.0000 ZZZX=             -0.0000
 ZZZY=             -0.0000 XXYY=            -65.5765 XXZZ=            -52.1248 YYZZ=            -55.7670
 XXYZ=              0.0000 YYXZ=              0.0000 ZZXY=              0.0000
 N-N= 2.031815835396D+02 E-N=-9.340483266974D+02  KE= 2.305002754066D+02
 Symmetry AG   KE= 7.450595932879D+01
 Symmetry B1G  KE= 3.776255609421D+01
 Symmetry B2G  KE= 1.188412717539D+00
 Symmetry B3G  KE= 2.318154147957D+00
 Symmetry AU   KE= 2.273899220382D-16
 Symmetry B1U  KE= 1.945278961158D+00
 Symmetry B2U  KE= 7.218388678525D+01
 Symmetry B3U  KE= 4.059602737165D+01
 Symmetry AG   SP=-1.316498586578D-14
 Symmetry B1G  SP=-6.026681771362D-15
 Symmetry B2G  SP= 1.000000000000D+00
 Symmetry B3G  SP=-2.780707521882D-16
 Symmetry AU   SP= 9.937965514700D-17
 Symmetry B1U  SP=-1.343895697850D-15
 Symmetry B2U  SP=-1.334509217542D-14
 Symmetry B3U  SP= 5.039398802767D-15
                          Isotropic Fermi Contact Couplings
        Atom                 a.u.       MegaHertz       Gauss      10(-4) cm-1
     1  C(13)             -0.03837     -43.13959     -15.39328     -14.38982
     2  C(13)              0.04724      53.10345      18.94863      17.71340
     3  C(13)              0.04724      53.10345      18.94863      17.71340
     4  C(13)             -0.03837     -43.13959     -15.39328     -14.38982
     5  C(13)              0.04724      53.10345      18.94863      17.71340
     6  C(13)              0.04724      53.10345      18.94863      17.71340
     7  H(1)               0.00272      12.15548       4.33738       4.05463
     8  H(1)              -0.00703     -31.41162     -11.20845     -10.47779
     9  H(1)              -0.00703     -31.41162     -11.20845     -10.47779
    10  H(1)               0.00272      12.15548       4.33738       4.05463
    11  H(1)              -0.00703     -31.41162     -11.20845     -10.47779
    12  H(1)              -0.00703     -31.41162     -11.20845     -10.47779
 --------------------------------------------------------
       Center         ----  Spin Dipole Couplings  ----
                      3XX-RR        3YY-RR        3ZZ-RR
 --------------------------------------------------------
     1   Atom        0.086500      0.078842     -0.165343
     2   Atom       -0.194877     -0.188668      0.383545
     3   Atom       -0.194877     -0.188668      0.383545
     4   Atom        0.086500      0.078842     -0.165343
     5   Atom       -0.194877     -0.188668      0.383545
     6   Atom       -0.194877     -0.188668      0.383545
     7   Atom        0.008668     -0.003167     -0.005501
     8   Atom        0.011308     -0.003749     -0.007559
     9   Atom        0.011308     -0.003749     -0.007559
    10   Atom        0.008668     -0.003167     -0.005501
    11   Atom        0.011308     -0.003749     -0.007559
    12   Atom        0.011308     -0.003749     -0.007559
 --------------------------------------------------------
                        XY            XZ            YZ
 --------------------------------------------------------
     1   Atom       -0.000000     -0.000000      0.000000
     2   Atom       -0.005291     -0.000000     -0.000000
     3   Atom        0.005291     -0.000000      0.000000
     4   Atom       -0.000000     -0.000000     -0.000000
     5   Atom       -0.005291      0.000000      0.000000
     6   Atom        0.005291      0.000000     -0.000000
     7   Atom        0.000000     -0.000000     -0.000000
     8   Atom       -0.029687     -0.000000      0.000000
     9   Atom        0.029687     -0.000000     -0.000000
    10   Atom        0.000000      0.000000      0.000000
    11   Atom       -0.029687      0.000000     -0.000000
    12   Atom        0.029687      0.000000      0.000000
 --------------------------------------------------------


 ---------------------------------------------------------------------------------
              Anisotropic Spin Dipole Couplings in Principal Axis System
 ---------------------------------------------------------------------------------

       Atom             a.u.   MegaHertz   Gauss  10(-4) cm-1        Axes

              Baa    -0.1653   -22.187    -7.917    -7.401  0.0000  0.0000  1.0000
     1 C(13)  Bbb     0.0788    10.580     3.775     3.529  0.0000  1.0000  0.0000
              Bcc     0.0865    11.608     4.142     3.872  1.0000 -0.0000  0.0000
 
              Baa    -0.1979   -26.557    -9.476    -8.859  0.8678  0.4970 -0.0000
     2 C(13)  Bbb    -0.1856   -24.911    -8.889    -8.309 -0.4970  0.8678 -0.0000
              Bcc     0.3835    51.468    18.365    17.168  0.0000  0.0000  1.0000
 
              Baa    -0.1979   -26.557    -9.476    -8.859  0.8678 -0.4970  0.0000
     3 C(13)  Bbb    -0.1856   -24.911    -8.889    -8.309  0.4970  0.8678  0.0000
              Bcc     0.3835    51.468    18.365    17.168  0.0000  0.0000  1.0000
 
              Baa    -0.1653   -22.187    -7.917    -7.401  0.0000  0.0000  1.0000
     4 C(13)  Bbb     0.0788    10.580     3.775     3.529  0.0000  1.0000 -0.0000
              Bcc     0.0865    11.608     4.142     3.872  1.0000 -0.0000 -0.0000
 
              Baa    -0.1979   -26.557    -9.476    -8.859  0.8678  0.4970 -0.0000
     5 C(13)  Bbb    -0.1856   -24.911    -8.889    -8.309 -0.4970  0.8678 -0.0000
              Bcc     0.3835    51.468    18.365    17.168  0.0000  0.0000  1.0000
 
              Baa    -0.1979   -26.557    -9.476    -8.859  0.8678 -0.4970  0.0000
     6 C(13)  Bbb    -0.1856   -24.911    -8.889    -8.309  0.4970  0.8678  0.0000
              Bcc     0.3835    51.468    18.365    17.168  0.0000  0.0000  1.0000
 
              Baa    -0.0055    -2.935    -1.047    -0.979  0.0000  0.0000  1.0000
     7 H(1)   Bbb    -0.0032    -1.690    -0.603    -0.564 -0.0000  1.0000 -0.0000
              Bcc     0.0087     4.625     1.650     1.543  1.0000  0.0000 -0.0000
 
              Baa    -0.0268   -14.325    -5.111    -4.778  0.6141  0.7892  0.0000
     8 H(1)   Bbb    -0.0076    -4.033    -1.439    -1.345  0.0000  0.0000  1.0000
              Bcc     0.0344    18.358     6.550     6.123  0.7892 -0.6141  0.0000
 
              Baa    -0.0268   -14.325    -5.111    -4.778 -0.6141  0.7892  0.0000
     9 H(1)   Bbb    -0.0076    -4.033    -1.439    -1.345  0.0000  0.0000  1.0000
              Bcc     0.0344    18.358     6.550     6.123  0.7892  0.6141 -0.0000
 
              Baa    -0.0055    -2.935    -1.047    -0.979  0.0000  0.0000  1.0000
    10 H(1)   Bbb    -0.0032    -1.690    -0.603    -0.564 -0.0000  1.0000 -0.0000
              Bcc     0.0087     4.625     1.650     1.543  1.0000  0.0000 -0.0000
 
              Baa    -0.0268   -14.325    -5.111    -4.778  0.6141  0.7892  0.0000
    11 H(1)   Bbb    -0.0076    -4.033    -1.439    -1.345  0.0000  0.0000  1.0000
              Bcc     0.0344    18.358     6.550     6.123  0.7892 -0.6141  0.0000
 
              Baa    -0.0268   -14.325    -5.111    -4.778 -0.6141  0.7892  0.0000
    12 H(1)   Bbb    -0.0076    -4.033    -1.439    -1.345  0.0000  0.0000  1.0000
              Bcc     0.0344    18.358     6.550     6.123  0.7892  0.6141 -0.0000
 

 ---------------------------------------------------------------------------------

 No NMR shielding tensors so no spin-rotation constants.
 Leave Link  601 at Mon Mar 16 03:50:44 2020, MaxMem=  6710886400 cpu:               3.2 elap:               0.2
 (Enter /opt/ohpc/pub/libs/gaussian/g16-A.03/sandybridge/g16/l9999.exe)

 Test job not archived.
 1\1\GINC-CNODE145\SP\ULC-wHPBE\6-31G\C6H6(1+,2)\QAI222\16-Mar-2020\0\\
 #P uLC-wHPBE/6-31G iop(3/107=0419600000, 3/108=0419600000) scf=(conver
 =6,fermi,ndamp=35,noincfock,novaracc,vshift=500,xqc)\\H6 C6\\1,2\C,0,0
 .,1.396379,0.\C,0,-1.2093,0.69819,0.\C,0,-1.2093,-0.69819,0.\C,0,0.,-1
 .396379,0.\C,0,1.2093,-0.69819,0.\C,0,1.2093,0.69819,0.\H,0,0.,2.48461
 3,0.\H,0,-2.151738,1.242306,0.\H,0,-2.151738,-1.242306,0.\H,0,0.,-2.48
 4613,0.\H,0,2.151738,-1.242306,0.\H,0,2.151738,1.242306,0.\\Version=EM
 64L-G16RevA.03\HF=-231.6797889\S2=0.791001\S2-1=0.\S2A=0.750791\RMSD=7
 .048e-07\Dipole=0.,0.,0.\Quadrupole=5.3365874,2.3446141,-7.6812015,0.,
 0.,0.\PG=D06H [3C2'(H1C1.C1H1)]\\@



 IN THIS SHORT LIFE

 THAT ONLY LASTS AN HOUR

 HOW MUCH, HOW LITTLE, IS WITHIN OUR POWER....


 EMILY DICKINSON BOLTS OF MELODY NO. 521
 Job cpu time:       0 days  0 hours  0 minutes 45.2 seconds.
 Elapsed time:       0 days  0 hours  0 minutes  3.1 seconds.
 File lengths (MBytes):  RWF=    272 Int=      0 D2E=      0 Chk=     32 Scr=     32
 Normal termination of Gaussian 16 at Mon Mar 16 03:50:45 2020.
