 Entering Gaussian System, Link 0=g16
 Input=1b_tune_c3.gjf
 Output=1b_tune_c3.log
 Initial command:
 /opt/ohpc/pub/libs/gaussian/g16-A.03/sandybridge/g16/l1.exe "/pscratch/cmri235_uksr/ocelot/fw/dev/ocelot_api/tests/wtuning_test/1b/tuning_1b_ocycle1/Gau-64497.inp" -scrdir="/pscratch/cmri235_uksr/ocelot/fw/dev/ocelot_api/tests/wtuning_test/1b/tuning_1b_ocycle1/"
 Entering Link 1 = /opt/ohpc/pub/libs/gaussian/g16-A.03/sandybridge/g16/l1.exe PID=     64498.
  
 Copyright (c) 1988,1990,1992,1993,1995,1998,2003,2009,2016,
            Gaussian, Inc.  All Rights Reserved.
  
 This is part of the Gaussian(R) 16 program.  It is based on
 the Gaussian(R) 09 system (copyright 2009, Gaussian, Inc.),
 the Gaussian(R) 03 system (copyright 2003, Gaussian, Inc.),
 the Gaussian(R) 98 system (copyright 1998, Gaussian, Inc.),
 the Gaussian(R) 94 system (copyright 1995, Gaussian, Inc.),
 the Gaussian 92(TM) system (copyright 1992, Gaussian, Inc.),
 the Gaussian 90(TM) system (copyright 1990, Gaussian, Inc.),
 the Gaussian 88(TM) system (copyright 1988, Gaussian, Inc.),
 the Gaussian 86(TM) system (copyright 1986, Carnegie Mellon
 University), and the Gaussian 82(TM) system (copyright 1983,
 Carnegie Mellon University). Gaussian is a federally registered
 trademark of Gaussian, Inc.
  
 This software contains proprietary and confidential information,
 including trade secrets, belonging to Gaussian, Inc.
  
 This software is provided under written license and may be
 used, copied, transmitted, or stored only in accord with that
 written license.
  
 The following legend is applicable only to US Government
 contracts under FAR:
  
                    RESTRICTED RIGHTS LEGEND
  
 Use, reproduction and disclosure by the US Government is
 subject to restrictions as set forth in subparagraphs (a)
 and (c) of the Commercial Computer Software - Restricted
 Rights clause in FAR 52.227-19.
  
 Gaussian, Inc.
 340 Quinnipiac St., Bldg. 40, Wallingford CT 06492
  
  
 ---------------------------------------------------------------
 Warning -- This program may not be used in any manner that
 competes with the business of Gaussian, Inc. or will provide
 assistance to any competitor of Gaussian, Inc.  The licensee
 of this program is prohibited from giving any competitor of
 Gaussian, Inc. access to this program.  By using this program,
 the user acknowledges that Gaussian, Inc. is engaged in the
 business of creating and licensing software in the field of
 computational chemistry and represents and warrants to the
 licensee that it is not a competitor of Gaussian, Inc. and that
 it will not use this program in any manner prohibited above.
 ---------------------------------------------------------------
  

 Cite this work as:
 Gaussian 16, Revision A.03,
 M. J. Frisch, G. W. Trucks, H. B. Schlegel, G. E. Scuseria, 
 M. A. Robb, J. R. Cheeseman, G. Scalmani, V. Barone, 
 G. A. Petersson, H. Nakatsuji, X. Li, M. Caricato, A. V. Marenich, 
 J. Bloino, B. G. Janesko, R. Gomperts, B. Mennucci, H. P. Hratchian, 
 J. V. Ortiz, A. F. Izmaylov, J. L. Sonnenberg, D. Williams-Young, 
 F. Ding, F. Lipparini, F. Egidi, J. Goings, B. Peng, A. Petrone, 
 T. Henderson, D. Ranasinghe, V. G. Zakrzewski, J. Gao, N. Rega, 
 G. Zheng, W. Liang, M. Hada, M. Ehara, K. Toyota, R. Fukuda, 
 J. Hasegawa, M. Ishida, T. Nakajima, Y. Honda, O. Kitao, H. Nakai, 
 T. Vreven, K. Throssell, J. A. Montgomery, Jr., J. E. Peralta, 
 F. Ogliaro, M. J. Bearpark, J. J. Heyd, E. N. Brothers, K. N. Kudin, 
 V. N. Staroverov, T. A. Keith, R. Kobayashi, J. Normand, 
 K. Raghavachari, A. P. Rendell, J. C. Burant, S. S. Iyengar, 
 J. Tomasi, M. Cossi, J. M. Millam, M. Klene, C. Adamo, R. Cammi, 
 J. W. Ochterski, R. L. Martin, K. Morokuma, O. Farkas, 
 J. B. Foresman, and D. J. Fox, Gaussian, Inc., Wallingford CT, 2016.
 
 ******************************************
 Gaussian 16:  EM64L-G16RevA.03 25-Dec-2016
                16-Mar-2020 
 ******************************************
 %mem=50GB
 %nproc=16
 Will use up to   16 processors via shared memory.
 ----------------------------------------------------------------------
 #P uLC-wHPBE/6-31G iop(3/107=0324300000, 3/108=0324300000) scf=(conver
 =6,fermi,ndamp=35,noincfock,novaracc,vshift=500,xqc)
 ----------------------------------------------------------------------
 1/38=1,172=1/1;
 2/12=2,17=6,18=5,40=1/2;
 3/5=1,6=6,11=2,25=1,30=1,74=-71,107=324300000,108=324300000,116=2/1,2,3;
 4//1;
 5/5=100002,6=6,8=3,10=500,13=1,18=-1,22=13,38=1,93=35/2,8;
 6/7=2,8=2,9=2,10=2,28=1/1;
 99/5=1,9=1/99;
 Leave Link    1 at Mon Mar 16 03:50:48 2020, MaxMem=  6710886400 cpu:              15.5 elap:               1.0
 (Enter /opt/ohpc/pub/libs/gaussian/g16-A.03/sandybridge/g16/l101.exe)
 -----
 H6 C6
 -----
 Symbolic Z-matrix:
 Charge =  1 Multiplicity = 2
 C                     0.        1.39638   0. 
 C                    -1.2093    0.69819   0. 
 C                    -1.2093   -0.69819   0. 
 C                     0.       -1.39638   0. 
 C                     1.2093   -0.69819   0. 
 C                     1.2093    0.69819   0. 
 H                     0.        2.48461   0. 
 H                    -2.15174   1.24231   0. 
 H                    -2.15174  -1.24231   0. 
 H                     0.       -2.48461   0. 
 H                     2.15174  -1.24231   0. 
 H                     2.15174   1.24231   0. 
 
 ITRead=  0  0  0  0  0  0  0  0  0  0  0  0
 MicOpt= -1 -1 -1 -1 -1 -1 -1 -1 -1 -1 -1 -1
 NAtoms=     12 NQM=       12 NQMF=       0 NMMI=      0 NMMIF=      0
                NMic=       0 NMicF=      0.
                    Isotopes and Nuclear Properties:
 (Nuclear quadrupole moments (NQMom) in fm**2, nuclear magnetic moments (NMagM)
  in nuclear magnetons)

  Atom         1           2           3           4           5           6           7           8           9          10
 IAtWgt=          12          12          12          12          12          12           1           1           1           1
 AtmWgt=  12.0000000  12.0000000  12.0000000  12.0000000  12.0000000  12.0000000   1.0078250   1.0078250   1.0078250   1.0078250
 NucSpn=           0           0           0           0           0           0           1           1           1           1
 AtZEff=  -0.0000000  -0.0000000  -0.0000000  -0.0000000  -0.0000000  -0.0000000  -0.0000000  -0.0000000  -0.0000000  -0.0000000
 NQMom=    0.0000000   0.0000000   0.0000000   0.0000000   0.0000000   0.0000000   0.0000000   0.0000000   0.0000000   0.0000000
 NMagM=    0.0000000   0.0000000   0.0000000   0.0000000   0.0000000   0.0000000   2.7928460   2.7928460   2.7928460   2.7928460
 AtZNuc=   6.0000000   6.0000000   6.0000000   6.0000000   6.0000000   6.0000000   1.0000000   1.0000000   1.0000000   1.0000000

  Atom        11          12
 IAtWgt=           1           1
 AtmWgt=   1.0078250   1.0078250
 NucSpn=           1           1
 AtZEff=  -0.0000000  -0.0000000
 NQMom=    0.0000000   0.0000000
 NMagM=    2.7928460   2.7928460
 AtZNuc=   1.0000000   1.0000000
 Leave Link  101 at Mon Mar 16 03:50:49 2020, MaxMem=  6710886400 cpu:               2.7 elap:               0.2
 (Enter /opt/ohpc/pub/libs/gaussian/g16-A.03/sandybridge/g16/l202.exe)
                          Input orientation:                          
 ---------------------------------------------------------------------
 Center     Atomic      Atomic             Coordinates (Angstroms)
 Number     Number       Type             X           Y           Z
 ---------------------------------------------------------------------
      1          6           0        0.000000    1.396379    0.000000
      2          6           0       -1.209300    0.698190    0.000000
      3          6           0       -1.209300   -0.698190    0.000000
      4          6           0        0.000000   -1.396379    0.000000
      5          6           0        1.209300   -0.698190    0.000000
      6          6           0        1.209300    0.698190    0.000000
      7          1           0        0.000000    2.484613    0.000000
      8          1           0       -2.151738    1.242306    0.000000
      9          1           0       -2.151738   -1.242306    0.000000
     10          1           0        0.000000   -2.484613    0.000000
     11          1           0        2.151738   -1.242306    0.000000
     12          1           0        2.151738    1.242306    0.000000
 ---------------------------------------------------------------------
                    Distance matrix (angstroms):
                    1          2          3          4          5
     1  C    0.000000
     2  C    1.396379   0.000000
     3  C    2.418600   1.396380   0.000000
     4  C    2.792758   2.418600   1.396379   0.000000
     5  C    2.418600   2.792759   2.418600   1.396379   0.000000
     6  C    1.396379   2.418600   2.792759   2.418600   1.396380
     7  H    1.088234   2.157247   3.404797   3.880992   3.404797
     8  H    2.157247   1.088233   2.157247   3.404796   3.880992
     9  H    3.404796   2.157247   1.088233   2.157247   3.404796
    10  H    3.880992   3.404797   2.157247   1.088234   2.157247
    11  H    3.404796   3.880992   3.404796   2.157247   1.088233
    12  H    2.157247   3.404796   3.880992   3.404796   2.157247
                    6          7          8          9         10
     6  C    0.000000
     7  H    2.157247   0.000000
     8  H    3.404796   2.484613   0.000000
     9  H    3.880992   4.303476   2.484612   0.000000
    10  H    3.404797   4.969226   4.303476   2.484613   0.000000
    11  H    2.157247   4.303476   4.969226   4.303476   2.484613
    12  H    1.088233   2.484613   4.303476   4.969226   4.303476
                   11         12
    11  H    0.000000
    12  H    2.484612   0.000000
 Stoichiometry    C6H6(1+,2)
 Framework group  D6H[3C2'(HC.CH)]
 Deg. of freedom     2
 Full point group                 D6H     NOp  24
 Largest Abelian subgroup         D2H     NOp   8
 Largest concise Abelian subgroup D2      NOp   4
                         Standard orientation:                         
 ---------------------------------------------------------------------
 Center     Atomic      Atomic             Coordinates (Angstroms)
 Number     Number       Type             X           Y           Z
 ---------------------------------------------------------------------
      1          6           0       -0.000000    1.396379   -0.000000
      2          6           0       -1.209300    0.698190   -0.000000
      3          6           0       -1.209300   -0.698189   -0.000000
      4          6           0       -0.000000   -1.396379   -0.000000
      5          6           0        1.209300   -0.698190   -0.000000
      6          6           0        1.209300    0.698189   -0.000000
      7          1           0       -0.000000    2.484613   -0.000000
      8          1           0       -2.151738    1.242307   -0.000000
      9          1           0       -2.151738   -1.242307   -0.000000
     10          1           0       -0.000000   -2.484613   -0.000000
     11          1           0        2.151738   -1.242307   -0.000000
     12          1           0        2.151738    1.242306   -0.000000
 ---------------------------------------------------------------------
 Rotational constants (GHZ):           5.6873431           5.6873431           2.8436715
 Leave Link  202 at Mon Mar 16 03:50:49 2020, MaxMem=  6710886400 cpu:               0.3 elap:               0.0
 (Enter /opt/ohpc/pub/libs/gaussian/g16-A.03/sandybridge/g16/l301.exe)
 Standard basis: 6-31G (6D, 7F)
 Ernie: Thresh=  0.10000D-02 Tol=  0.10000D-05 Strict=F.
 There are    16 symmetry adapted cartesian basis functions of AG  symmetry.
 There are    11 symmetry adapted cartesian basis functions of B1G symmetry.
 There are     2 symmetry adapted cartesian basis functions of B2G symmetry.
 There are     4 symmetry adapted cartesian basis functions of B3G symmetry.
 There are     2 symmetry adapted cartesian basis functions of AU  symmetry.
 There are     4 symmetry adapted cartesian basis functions of B1U symmetry.
 There are    16 symmetry adapted cartesian basis functions of B2U symmetry.
 There are    11 symmetry adapted cartesian basis functions of B3U symmetry.
 There are    16 symmetry adapted basis functions of AG  symmetry.
 There are    11 symmetry adapted basis functions of B1G symmetry.
 There are     2 symmetry adapted basis functions of B2G symmetry.
 There are     4 symmetry adapted basis functions of B3G symmetry.
 There are     2 symmetry adapted basis functions of AU  symmetry.
 There are     4 symmetry adapted basis functions of B1U symmetry.
 There are    16 symmetry adapted basis functions of B2U symmetry.
 There are    11 symmetry adapted basis functions of B3U symmetry.
    66 basis functions,   156 primitive gaussians,    66 cartesian basis functions
    21 alpha electrons       20 beta electrons
       nuclear repulsion energy       203.1815835396 Hartrees.
 IExCor=33909 DFT=T Ex+Corr=LC-wHPBE ExCW=0 ScaHFX=  1.000000
 ScaDFX=  1.000000  1.000000  1.000000  1.000000 ScalE2=  1.000000  1.000000
 IRadAn=      5 IRanWt=     -1 IRanGd=            0 ICorTp=0 IEmpDi=  4
 HFx  wShort=  0.000000 wLong=  0.324300 cFull=  0.000000 cShort=  0.000000 cLong=  1.000000
 DFx  wShort=  0.000000 wLong=  0.324300 cFull=  0.000000 cShort=  1.000000 cLong=  0.000000
 NAtoms=   12 NActive=   12 NUniq=    2 SFac= 4.00D+00 NAtFMM=   60 NAOKFM=F Big=F
 Integral buffers will be    131072 words long.
 Raffenetti 2 integral format.
 Two-electron integral symmetry is turned on.
 Leave Link  301 at Mon Mar 16 03:50:49 2020, MaxMem=  6710886400 cpu:               1.1 elap:               0.1
 (Enter /opt/ohpc/pub/libs/gaussian/g16-A.03/sandybridge/g16/l302.exe)
 NPDir=0 NMtPBC=     1 NCelOv=     1 NCel=       1 NClECP=     1 NCelD=      1
         NCelK=      1 NCelE2=     1 NClLst=     1 CellRange=     0.0.
 One-electron integrals computed using PRISM.
 One-electron integral symmetry used in STVInt
 NBasis=    66 RedAO= T EigKep=  7.02D-04  NBF=    16    11     2     4     2     4    16    11
 NBsUse=    66 1.00D-06 EigRej= -1.00D+00 NBFU=    16    11     2     4     2     4    16    11
 Precomputing XC quadrature grid using
 IXCGrd= 4 IRadAn=           5 IRanWt=          -1 IRanGd=           0 AccXCQ= 0.00D+00.
 Generated NRdTot=       0 NPtTot=           0 NUsed=           0 NTot=          32
 NSgBfM=    66    66    66    66    66 MxSgAt=    12 MxSgA2=    12.
 Leave Link  302 at Mon Mar 16 03:50:49 2020, MaxMem=  6710886400 cpu:               2.3 elap:               0.2
 (Enter /opt/ohpc/pub/libs/gaussian/g16-A.03/sandybridge/g16/l303.exe)
 DipDrv:  MaxL=1.
 Leave Link  303 at Mon Mar 16 03:50:49 2020, MaxMem=  6710886400 cpu:               0.5 elap:               0.1
 (Enter /opt/ohpc/pub/libs/gaussian/g16-A.03/sandybridge/g16/l401.exe)
 ExpMin= 1.61D-01 ExpMax= 3.05D+03 ExpMxC= 4.57D+02 IAcc=3 IRadAn=         5 AccDes= 0.00D+00
 Harris functional with IExCor=33909 and IRadAn=       5 diagonalized for initial guess.
 HarFok:  IExCor=33909 AccDes= 0.00D+00 IRadAn=         5 IDoV= 1 UseB2=F ITyADJ=14
 ICtDFT=  3500011 ScaDFX=  1.000000  1.000000  1.000000  1.000000
 FoFCou: FMM=F IPFlag=           0 FMFlag=      100000 FMFlg1=           0
         NFxFlg=           0 DoJE=T BraDBF=F KetDBF=T FulRan=T
         wScrn=  0.000000 ICntrl=       500 IOpCl=  0 I1Cent=   200000004 NGrid=           0
         NMat0=    1 NMatS0=      1 NMatT0=    0 NMatD0=    1 NMtDS0=    0 NMtDT0=    0
 Petite list used in FoFCou.
 Harris En= -224.923398701904    
 JPrj=0 DoOrth=F DoCkMO=F.
 Initial guess orbital symmetries:
 Alpha Orbitals:
       Occupied  (A1G) (E1U) (E1U) (E2G) (E2G) (B1U) (A1G) (E1U)
                 (E1U) (E2G) (E2G) (A1G) (B2U) (B1U) (E1U) (E1U)
                 (A2U) (E2G) (E2G) (E1G) (E1G)
       Virtual   (E2U) (E2U) (A1G) (B2G) (E1U) (E1U) (E2G) (E2G)
                 (B1U) (E2G) (E2G) (E1U) (E1U) (B2U) (A2U) (B1U)
                 (A2G) (A1G) (E2G) (E2G) (E1G) (E1G) (A1G) (E1U)
                 (E1U) (E2U) (E2U) (B2G) (B1U) (E2G) (E2G) (E1U)
                 (E1U) (A2G) (A1G) (E1U) (E1U) (E2G) (E2G) (E1U)
                 (E1U) (B1U) (E2G) (E2G) (B1U)
 Beta  Orbitals:
       Occupied  (A1G) (E1U) (E1U) (E2G) (E2G) (B1U) (A1G) (E1U)
                 (E1U) (E2G) (E2G) (A1G) (B2U) (B1U) (E1U) (E1U)
                 (A2U) (E2G) (E2G) (E1G)
       Virtual   (E1G) (E2U) (E2U) (A1G) (B2G) (E1U) (E1U) (E2G)
                 (E2G) (B1U) (E2G) (E2G) (E1U) (E1U) (B2U) (A2U)
                 (B1U) (A2G) (A1G) (E2G) (E2G) (E1G) (E1G) (A1G)
                 (E1U) (E1U) (E2U) (E2U) (B2G) (B1U) (E2G) (E2G)
                 (E1U) (E1U) (A2G) (A1G) (E1U) (E1U) (E2G) (E2G)
                 (E1U) (E1U) (B1U) (E2G) (E2G) (B1U)
 Initial guess <Sx>= 0.0000 <Sy>= 0.0000 <Sz>= 0.5000 <S**2>= 0.7500 S= 0.5000
 Leave Link  401 at Mon Mar 16 03:50:49 2020, MaxMem=  6710886400 cpu:               2.8 elap:               0.2
 (Enter /opt/ohpc/pub/libs/gaussian/g16-A.03/sandybridge/g16/l502.exe)
 Keep R1 and R2 ints in memory in symmetry-blocked form, NReq=19109854.
 FoFCou: FMM=F IPFlag=           0 FMFlag=           0 FMFlg1=           0
         NFxFlg=           0 DoJE=F BraDBF=F KetDBF=F FulRan=T
         wScrn=  0.000000 ICntrl=       600 IOpCl=  0 I1Cent=           0 NGrid=           0
         NMat0=    1 NMatS0=   2211 NMatT0=    0 NMatD0=    1 NMtDS0=    0 NMtDT0=    0
 Petite list used in FoFCou.
 UHF open shell SCF:
 Using DIIS extrapolation, IDIIS=    10.
 NGot=  6710886400 LenX=  6710146038 LenY=  6710141241
 Requested convergence on RMS density matrix=1.00D-06 within  32 cycles.
 Requested convergence on MAX density matrix=1.00D-04.
 Requested convergence on             energy=1.00D-04.
 Virtual orbitals will be shifted by   0.500 hartree.
 No special actions if energy rises.
 Dynamic level shift is on during FON iterations.

 Cycle   1  Pass 1  IDiag  1:
 Density matrix breaks symmetry, PCut= 1.00D-04
 Density has only Abelian symmetry.
 E= -231.648223985417    
 DIIS: error= 1.69D-02 at cycle   1 NSaved=   1.
 NSaved= 1 IEnMin= 1 EnMin= -231.648223985417     IErMin= 1 ErrMin= 1.69D-02
 ErrMax= 1.69D-02  0.00D+00 EMaxC= 1.00D+00 BMatC= 6.80D-02 BMatP= 6.80D-02
 IDIUse=1 WtCom= 1.00D+00 WtEn= 0.00D+00
 Coeff-Com:  0.100D+01
 Coeff:      0.100D+01
 Gap=     0.387 Goal=   None    Shift=    0.500
 T= 1153. Gap= 0.888 NK=0 IS=   22 IE=   66 IFin=   21
          NO(<0.9)=   0  NV(>0.1)=   0     21.00e < EF      0.00e >EF  Err=0.0D+00
 Gap=     0.201 Goal=   None    Shift=    0.500
 T= 1153. Gap= 0.700 NK=0 IS=   21 IE=   66 IFin=   20
          NO(<0.9)=   0  NV(>0.1)=   0     20.00e < EF      0.00e >EF  Err=0.0D+00
 GapD=    0.201 DampG=1.000 DampE=0.500 DampFc=0.5000 IDamp=-1.
 Damping current iteration by 5.00D-01
 RMSDP=3.28D-03 MaxDP=2.82D-02              OVMax= 3.42D-02

 Cycle   2  Pass 1  IDiag  1:
 Density matrix breaks symmetry, PCut= 1.00D-04
 Density has only Abelian symmetry.
 E= -231.659065271116     Delta-E=       -0.010841285699 Rises=F Damp=T
 DIIS: error= 1.00D-02 at cycle   2 NSaved=   2.
 NSaved= 2 IEnMin= 2 EnMin= -231.659065271116     IErMin= 2 ErrMin= 1.00D-02
 ErrMax= 1.00D-02  0.00D+00 EMaxC= 1.00D+00 BMatC= 1.68D-02 BMatP= 6.80D-02
 IDIUse=1 WtCom= 1.00D+00 WtEn= 0.00D+00
 Coeff-Com: -0.834D+00 0.183D+01
 Coeff:     -0.834D+00 0.183D+01
 Gap=     0.406 Goal=   None    Shift=    0.500
 T= 1065. Gap= 0.906 NK=0 IS=   22 IE=   66 IFin=   21
          NO(<0.9)=   0  NV(>0.1)=   0     21.00e < EF      0.00e >EF  Err=0.0D+00
 Gap=     0.224 Goal=   None    Shift=    0.500
 T= 1065. Gap= 0.724 NK=0 IS=   21 IE=   66 IFin=   20
          NO(<0.9)=   0  NV(>0.1)=   0     20.00e < EF      0.00e >EF  Err=0.0D+00
 GapD=    0.224 DampG=1.000 DampE=0.500 DampFc=0.5000 IDamp=-1.
 Damping current iteration by 5.00D-01
 RMSDP=2.40D-03 MaxDP=1.62D-02 DE=-1.08D-02 OVMax= 1.73D-02

 Cycle   3  Pass 1  IDiag  1:
 Density matrix breaks symmetry, PCut= 1.00D-04
 Density has only Abelian symmetry.
 E= -231.663798176663     Delta-E=       -0.004732905546 Rises=F Damp=T
 DIIS: error= 7.17D-03 at cycle   3 NSaved=   3.
 NSaved= 3 IEnMin= 3 EnMin= -231.663798176663     IErMin= 3 ErrMin= 7.17D-03
 ErrMax= 7.17D-03  0.00D+00 EMaxC= 1.00D+00 BMatC= 5.08D-03 BMatP= 1.68D-02
 IDIUse=1 WtCom= 1.00D+00 WtEn= 0.00D+00
 Coeff-Com:  0.166D+00-0.158D+01 0.242D+01
 Coeff:      0.166D+00-0.158D+01 0.242D+01
 Gap=     0.400 Goal=   None    Shift=    0.500
 T=  914. Gap= 0.901 NK=0 IS=   22 IE=   66 IFin=   21
          NO(<0.9)=   0  NV(>0.1)=   0     21.00e < EF      0.00e >EF  Err=0.0D+00
 Gap=     0.225 Goal=   None    Shift=    0.500
 T=  914. Gap= 0.725 NK=0 IS=   21 IE=   66 IFin=   20
          NO(<0.9)=   0  NV(>0.1)=   0     20.00e < EF      0.00e >EF  Err=0.0D+00
 GapD=    0.225 DampG=1.000 DampE=1.000 DampFc=1.0000 IDamp=-1.
 RMSDP=1.58D-03 MaxDP=1.09D-02 DE=-4.73D-03 OVMax= 1.18D-02

 Cycle   4  Pass 1  IDiag  1:
 Density matrix breaks symmetry, PCut= 1.00D-04
 Density has only Abelian symmetry.
 E= -231.668900341069     Delta-E=       -0.005102164407 Rises=F Damp=F
 DIIS: error= 4.45D-03 at cycle   4 NSaved=   4.
 NSaved= 4 IEnMin= 4 EnMin= -231.668900341069     IErMin= 4 ErrMin= 4.45D-03
 ErrMax= 4.45D-03  0.00D+00 EMaxC= 1.00D+00 BMatC= 3.98D-04 BMatP= 5.08D-03
 IDIUse=1 WtCom= 1.00D+00 WtEn= 0.00D+00
 Coeff-Com:  0.126D+00 0.382D+00-0.132D+01 0.182D+01
 Coeff:      0.126D+00 0.382D+00-0.132D+01 0.182D+01
 Gap=     0.398 Goal=   None    Shift=    0.500
 T=  640. Gap= 0.899 NK=0 IS=   22 IE=   66 IFin=   21
          NO(<0.9)=   0  NV(>0.1)=   0     21.00e < EF      0.00e >EF  Err=0.0D+00
 Gap=     0.229 Goal=   None    Shift=    0.500
 T=  640. Gap= 0.729 NK=0 IS=   21 IE=   66 IFin=   20
          NO(<0.9)=   0  NV(>0.1)=   0     20.00e < EF      0.00e >EF  Err=0.0D+00
 GapD=    0.229 DampG=1.000 DampE=1.000 DampFc=1.0000 IDamp=-1.
 RMSDP=3.00D-04 MaxDP=3.77D-03 DE=-5.10D-03 OVMax= 1.23D-02

 Cycle   5  Pass 1  IDiag  1:
 Density matrix breaks symmetry, PCut= 1.00D-04
 Density has only Abelian symmetry.
 E= -231.669317033190     Delta-E=       -0.000416692121 Rises=F Damp=F
 DIIS: error= 2.75D-03 at cycle   5 NSaved=   5.
 NSaved= 5 IEnMin= 5 EnMin= -231.669317033190     IErMin= 5 ErrMin= 2.75D-03
 ErrMax= 2.75D-03  0.00D+00 EMaxC= 1.00D+00 BMatC= 1.66D-04 BMatP= 3.98D-04
 IDIUse=1 WtCom= 1.00D+00 WtEn= 0.00D+00
 Coeff-Com: -0.131D+00 0.826D+00-0.107D+01-0.100D+01 0.238D+01
 Coeff:     -0.131D+00 0.826D+00-0.107D+01-0.100D+01 0.238D+01
 Gap=     0.396 Goal=   None    Shift=    0.500
 T=  395. Gap= 0.896 NK=0 IS=   22 IE=   66 IFin=   21
          NO(<0.9)=   0  NV(>0.1)=   0     21.00e < EF      0.00e >EF  Err=0.0D+00
 Gap=     0.232 Goal=   None    Shift=    0.500
 T=  395. Gap= 0.732 NK=0 IS=   21 IE=   66 IFin=   20
          NO(<0.9)=   0  NV(>0.1)=   0     20.00e < EF      0.00e >EF  Err=0.0D+00
 GapD=    0.232 DampG=1.000 DampE=1.000 DampFc=1.0000 IDamp=-1.
 RMSDP=2.41D-04 MaxDP=3.72D-03 DE=-4.17D-04 OVMax= 1.08D-02

 Cycle   6  Pass 1  IDiag  1:
 Density matrix breaks symmetry, PCut= 1.00D-04
 Density has only Abelian symmetry.
 E= -231.669552885456     Delta-E=       -0.000235852266 Rises=F Damp=F
 DIIS: error= 1.50D-03 at cycle   6 NSaved=   6.
 NSaved= 6 IEnMin= 6 EnMin= -231.669552885456     IErMin= 6 ErrMin= 1.50D-03
 ErrMax= 1.50D-03  0.00D+00 EMaxC= 1.00D+00 BMatC= 4.69D-05 BMatP= 1.66D-04
 IDIUse=1 WtCom= 1.00D+00 WtEn= 0.00D+00
 Coeff-Com:  0.196D-01-0.220D+00 0.360D+00-0.630D-01-0.133D+01 0.224D+01
 Coeff:      0.196D-01-0.220D+00 0.360D+00-0.630D-01-0.133D+01 0.224D+01
 Gap=     0.395 Goal=   None    Shift=    0.500
 T=   94. Gap= 0.895 NK=0 IS=   22 IE=   66 IFin=   21
          NO(<0.9)=   0  NV(>0.1)=   0     21.00e < EF      0.00e >EF  Err=0.0D+00
 Gap=     0.233 Goal=   None    Shift=    0.500
 T=   94. Gap= 0.733 NK=0 IS=   21 IE=   66 IFin=   20
          NO(<0.9)=   0  NV(>0.1)=   0     20.00e < EF      0.00e >EF  Err=0.0D+00
 GapD=    0.233 DampG=1.000 DampE=1.000 DampFc=1.0000 IDamp=-1.
 RMSDP=1.31D-04 MaxDP=2.26D-03 DE=-2.36D-04 OVMax= 6.14D-03

 Cycle   7  Pass 1  IDiag  1:
 Density matrix breaks symmetry, PCut= 1.00D-04
 Density has only Abelian symmetry.
 E= -231.669623219145     Delta-E=       -0.000070333689 Rises=F Damp=F
 DIIS: error= 7.77D-04 at cycle   7 NSaved=   7.
 NSaved= 7 IEnMin= 7 EnMin= -231.669623219145     IErMin= 7 ErrMin= 7.77D-04
 ErrMax= 7.77D-04  0.00D+00 EMaxC= 1.00D+00 BMatC= 1.31D-05 BMatP= 4.69D-05
 IDIUse=1 WtCom= 1.00D+00 WtEn= 0.00D+00
 Coeff-Com: -0.234D-01 0.237D+00-0.377D+00-0.140D-01 0.147D+01-0.393D+01
 Coeff-Com:  0.363D+01
 Coeff:     -0.234D-01 0.237D+00-0.377D+00-0.140D-01 0.147D+01-0.393D+01
 Coeff:      0.363D+01
 Gap=     0.395 Goal=   None    Shift=    0.500
 Gap=     0.233 Goal=   None    Shift=    0.500
 RMSDP=6.82D-05 MaxDP=1.17D-03 DE=-7.03D-05 OVMax= 3.30D-03

 Cycle   8  Pass 1  IDiag  1:
 Density matrix breaks symmetry, PCut= 1.00D-04
 Density has only Abelian symmetry.
 E= -231.669642082806     Delta-E=       -0.000018863661 Rises=F Damp=F
 DIIS: error= 3.94D-04 at cycle   8 NSaved=   8.
 NSaved= 8 IEnMin= 8 EnMin= -231.669642082806     IErMin= 8 ErrMin= 3.94D-04
 ErrMax= 3.94D-04  0.00D+00 EMaxC= 1.00D+00 BMatC= 3.31D-06 BMatP= 1.31D-05
 IDIUse=1 WtCom= 1.00D+00 WtEn= 0.00D+00
 Coeff-Com:  0.500D-02-0.476D-01 0.780D-01-0.340D-01-0.401D+00 0.160D+01
 Coeff-Com: -0.316D+01 0.296D+01
 Coeff:      0.500D-02-0.476D-01 0.780D-01-0.340D-01-0.401D+00 0.160D+01
 Coeff:     -0.316D+01 0.296D+01
 Gap=     0.395 Goal=   None    Shift=    0.500
 Gap=     0.233 Goal=   None    Shift=    0.500
 RMSDP=3.26D-05 MaxDP=5.24D-04 DE=-1.89D-05 OVMax= 1.66D-03

 Cycle   9  Pass 1  IDiag  1:
 Density matrix breaks symmetry, PCut= 1.00D-04
 Density has only Abelian symmetry.
 E= -231.669646572611     Delta-E=       -0.000004489805 Rises=F Damp=F
 DIIS: error= 1.94D-04 at cycle   9 NSaved=   9.
 NSaved= 9 IEnMin= 9 EnMin= -231.669646572611     IErMin= 9 ErrMin= 1.94D-04
 ErrMax= 1.94D-04  0.00D+00 EMaxC= 1.00D+00 BMatC= 7.49D-07 BMatP= 3.31D-06
 IDIUse=1 WtCom= 1.00D+00 WtEn= 0.00D+00
 Coeff-Com: -0.403D-02 0.337D-01-0.523D-01 0.450D-02 0.272D+00-0.103D+01
 Coeff-Com:  0.207D+01-0.331D+01 0.301D+01
 Coeff:     -0.403D-02 0.337D-01-0.523D-01 0.450D-02 0.272D+00-0.103D+01
 Coeff:      0.207D+01-0.331D+01 0.301D+01
 Gap=     0.395 Goal=   None    Shift=    0.500
 Gap=     0.233 Goal=   None    Shift=    0.500
 RMSDP=1.51D-05 MaxDP=2.46D-04 DE=-4.49D-06 OVMax= 8.13D-04

 Cycle  10  Pass 1  IDiag  1:
 Density matrix breaks symmetry, PCut= 1.00D-04
 Density has only Abelian symmetry.
 E= -231.669647582353     Delta-E=       -0.000001009742 Rises=F Damp=F
 DIIS: error= 9.51D-05 at cycle  10 NSaved=  10.
 NSaved=10 IEnMin=10 EnMin= -231.669647582353     IErMin=10 ErrMin= 9.51D-05
 ErrMax= 9.51D-05  0.00D+00 EMaxC= 1.00D+00 BMatC= 1.64D-07 BMatP= 7.49D-07
 IDIUse=1 WtCom= 1.00D+00 WtEn= 0.00D+00
 Coeff-Com:  0.183D-02-0.141D-01 0.218D-01-0.966D-02-0.112D+00 0.487D+00
 Coeff-Com: -0.109D+01 0.193D+01-0.309D+01 0.288D+01
 Coeff:      0.183D-02-0.141D-01 0.218D-01-0.966D-02-0.112D+00 0.487D+00
 Coeff:     -0.109D+01 0.193D+01-0.309D+01 0.288D+01
 Gap=     0.395 Goal=   None    Shift=    0.500
 Gap=     0.233 Goal=   None    Shift=    0.500
 RMSDP=7.02D-06 MaxDP=1.15D-04 DE=-1.01D-06 OVMax= 3.90D-04

 Cycle  11  Pass 1  IDiag  1:
 Density matrix breaks symmetry, PCut= 1.00D-04
 Density has only Abelian symmetry.
 E= -231.669647801816     Delta-E=       -0.000000219463 Rises=F Damp=F
 DIIS: error= 4.65D-05 at cycle  11 NSaved=  11.
 NSaved=11 IEnMin=11 EnMin= -231.669647801816     IErMin=11 ErrMin= 4.65D-05
 ErrMax= 4.65D-05  0.00D+00 EMaxC= 1.00D+00 BMatC= 3.53D-08 BMatP= 1.64D-07
 IDIUse=1 WtCom= 1.00D+00 WtEn= 0.00D+00
 Coeff-Com: -0.841D-03 0.603D-02-0.900D-02 0.276D-02 0.441D-01-0.192D+00
 Coeff-Com:  0.439D+00-0.850D+00 0.156D+01-0.276D+01 0.276D+01
 Coeff:     -0.841D-03 0.603D-02-0.900D-02 0.276D-02 0.441D-01-0.192D+00
 Coeff:      0.439D+00-0.850D+00 0.156D+01-0.276D+01 0.276D+01
 Gap=     0.395 Goal=   None    Shift=    0.500
 Gap=     0.233 Goal=   None    Shift=    0.500
 RMSDP=3.23D-06 MaxDP=5.29D-05 DE=-2.19D-07 OVMax= 1.87D-04

 Cycle  12  Pass 1  IDiag  1:
 Density matrix breaks symmetry, PCut= 1.00D-04
 Density has only Abelian symmetry.
 E= -231.669647849233     Delta-E=       -0.000000047418 Rises=F Damp=F
 DIIS: error= 2.30D-05 at cycle  12 NSaved=  12.
 NSaved=12 IEnMin=12 EnMin= -231.669647849233     IErMin=12 ErrMin= 2.30D-05
 ErrMax= 2.30D-05  0.00D+00 EMaxC= 1.00D+00 BMatC= 7.78D-09 BMatP= 3.53D-08
 IDIUse=1 WtCom= 1.00D+00 WtEn= 0.00D+00
 Coeff-Com: -0.767D-04 0.863D-03-0.136D-02-0.104D-02 0.107D-01-0.324D-01
 Coeff-Com:  0.623D-01-0.888D-01 0.327D-01 0.500D+00-0.218D+01 0.269D+01
 Coeff:     -0.767D-04 0.863D-03-0.136D-02-0.104D-02 0.107D-01-0.324D-01
 Coeff:      0.623D-01-0.888D-01 0.327D-01 0.500D+00-0.218D+01 0.269D+01
 Gap=     0.395 Goal=   None    Shift=    0.500
 Gap=     0.233 Goal=   None    Shift=    0.500
 RMSDP=1.48D-06 MaxDP=2.43D-05 DE=-4.74D-08 OVMax= 9.06D-05

 Cycle  13  Pass 1  IDiag  1:
 Density matrix breaks symmetry, PCut= 1.00D-04
 Density has only Abelian symmetry.
 E= -231.669647859579     Delta-E=       -0.000000010345 Rises=F Damp=F
 DIIS: error= 1.12D-05 at cycle  13 NSaved=  13.
 NSaved=13 IEnMin=13 EnMin= -231.669647859579     IErMin=13 ErrMin= 1.12D-05
 ErrMax= 1.12D-05  0.00D+00 EMaxC= 1.00D+00 BMatC= 1.71D-09 BMatP= 7.78D-09
 IDIUse=1 WtCom= 1.00D+00 WtEn= 0.00D+00
 Coeff-Com:  0.944D-04-0.845D-03 0.130D-02 0.409D-04-0.711D-02 0.241D-01
 Coeff-Com: -0.464D-01 0.695D-01-0.665D-01-0.141D+00 0.107D+01-0.294D+01
 Coeff-Com:  0.304D+01
 Coeff:      0.944D-04-0.845D-03 0.130D-02 0.409D-04-0.711D-02 0.241D-01
 Coeff:     -0.464D-01 0.695D-01-0.665D-01-0.141D+00 0.107D+01-0.294D+01
 Coeff:      0.304D+01
 Gap=     0.395 Goal=   None    Shift=    0.500
 Gap=     0.233 Goal=   None    Shift=    0.500
 RMSDP=6.75D-07 MaxDP=1.11D-05 DE=-1.03D-08 OVMax= 4.36D-05

 Density matrix breaks symmetry, PCut= 1.00D-04
 Density has only Abelian symmetry.
 SCF Done:  E(ULC-wHPBE) =  -231.669647860     A.U. after   13 cycles
            NFock= 13  Conv=0.68D-06     -V/T= 2.0048
 <Sx>= 0.0000 <Sy>= 0.0000 <Sz>= 0.5000 <S**2>= 0.7778 S= 0.5138
 <L.S>= 0.000000000000E+00
 KE= 2.305515903349D+02 PE=-9.341430126804D+02 EE= 2.687401909463D+02
 Annihilation of the first spin contaminant:
 S**2 before annihilation     0.7778,   after     0.7504
 Leave Link  502 at Mon Mar 16 03:50:50 2020, MaxMem=  6710886400 cpu:              17.2 elap:               1.1
 (Enter /opt/ohpc/pub/libs/gaussian/g16-A.03/sandybridge/g16/l508.exe)
 QCSCF skips out because SCF is already converged.
 Leave Link  508 at Mon Mar 16 03:50:50 2020, MaxMem=  6710886400 cpu:               0.2 elap:               0.0
 (Enter /opt/ohpc/pub/libs/gaussian/g16-A.03/sandybridge/g16/l601.exe)
 Copying SCF densities to generalized density rwf, IOpCl= 1 IROHF=0.
 SCF density gives NOpUse=  8 NOpAll= 24.
 Marking SCF density as not fully symmetric.

 **********************************************************************

            Population analysis using the SCF density.

 **********************************************************************

 Orbital symmetries:
 Alpha Orbitals:
       Occupied  (?A) (?A) (?A) (?A) (?A) (?A) (?B) (?B) (?B) (?B)
                 (?B) (?B) (?B) (?B) (?B) (?B) (?C) (?B) (?B) (?C)
                 (?C)
       Virtual   (?C) (?C) (?B) (?C) (?B) (?B) (?B) (?B) (?B) (?B)
                 (?B) (?B) (?B) (?B) (?C) (?B) (?B) (?B) (?C) (?C)
                 (?B) (?B) (?B) (?C) (?B) (?B) (?C) (?C) (?B) (?B)
                 (?B) (?B) (?B) (?B) (?B) (?B) (?B) (?B) (?B) (?B)
                 (?B) (?B) (?B) (?B) (?B)
 Beta  Orbitals:
       Occupied  (?A) (?A) (?A) (?A) (?A) (?A) (?B) (B2G) (B2G)
                 (?B) (?B) (?B) (B2G) (B2G) (B2G) (B2G) (?C) (?B)
                 (?B) (?D)
       Virtual   (?D) (?C) (?C) (?D) (?D) (B2G) (B2G) (?D) (?D)
                 (B2G) (?D) (?D) (B2G) (B2G) (B2G) (?C) (B2G) (?D)
                 (?D) (?D) (?D) (?D) (?D) (?D) (B2G) (B2G) (?C)
                 (?C) (?D) (B2G) (?A) (?A) (B2G) (B2G) (?A) (?D)
                 (B2G) (B2G) (?D) (?D) (B2G) (B2G) (B2G) (E2G)
                 (E2G) (B1U)
 Unable to determine electronic state:  an orbital has unidentified symmetry.
 Alpha  occ. eigenvalues --  -10.33841 -10.33838 -10.33815 -10.33811 -10.30006
 Alpha  occ. eigenvalues --  -10.30002  -1.22051  -1.11554  -1.08880  -0.94669
 Alpha  occ. eigenvalues --   -0.94646  -0.86248  -0.79300  -0.78336  -0.76330
 Alpha  occ. eigenvalues --   -0.74226  -0.73121  -0.66769  -0.66465  -0.61413
 Alpha  occ. eigenvalues --   -0.57327
 Alpha virt. eigenvalues --   -0.17854  -0.14283  -0.00592   0.01873   0.04572
 Alpha virt. eigenvalues --    0.05708   0.08009   0.09105   0.10586   0.18045
 Alpha virt. eigenvalues --    0.18557   0.19235   0.19816   0.38245   0.39029
 Alpha virt. eigenvalues --    0.41156   0.43832   0.43965   0.47133   0.49422
 Alpha virt. eigenvalues --    0.49546   0.50088   0.52916   0.53540   0.54122
 Alpha virt. eigenvalues --    0.54578   0.55588   0.62807   0.72845   0.74354
 Alpha virt. eigenvalues --    0.75767   0.78714   0.80414   0.86125   0.86157
 Alpha virt. eigenvalues --    0.88465   0.88468   1.00420   1.02035   1.06408
 Alpha virt. eigenvalues --    1.07376   1.11646   1.33947   1.34207   1.79239
  Beta  occ. eigenvalues --  -10.33368 -10.33368 -10.33348 -10.33343 -10.30213
  Beta  occ. eigenvalues --  -10.30209  -1.20881  -1.09206  -1.08687  -0.94115
  Beta  occ. eigenvalues --   -0.93695  -0.85941  -0.78825  -0.77887  -0.75782
  Beta  occ. eigenvalues --   -0.74245  -0.67999  -0.66552  -0.66174  -0.57223
  Beta virt. eigenvalues --   -0.33901  -0.12443  -0.12360  -0.00399   0.04198
  Beta virt. eigenvalues --    0.04844   0.05760   0.08817   0.09249   0.10898
  Beta virt. eigenvalues --    0.18654   0.18750   0.19723   0.20182   0.38589
  Beta virt. eigenvalues --    0.40593   0.42227   0.44279   0.44332   0.49781
  Beta virt. eigenvalues --    0.49812   0.50229   0.50652   0.53250   0.54857
  Beta virt. eigenvalues --    0.55323   0.55680   0.55916   0.63758   0.73153
  Beta virt. eigenvalues --    0.74718   0.75850   0.79373   0.80431   0.86355
  Beta virt. eigenvalues --    0.86385   0.88749   0.89435   1.01741   1.02320
  Beta virt. eigenvalues --    1.07283   1.07480   1.12141   1.34472   1.35011
  Beta virt. eigenvalues --    1.80001
          Condensed to atoms (all electrons):
               1          2          3          4          5          6
     1  C    4.914477   0.520199  -0.063266  -0.022238  -0.063266   0.520199
     2  C    0.520199   4.966495   0.411315  -0.063266  -0.023034  -0.049322
     3  C   -0.063266   0.411315   4.966495   0.520199  -0.049322  -0.023034
     4  C   -0.022238  -0.063266   0.520199   4.914477   0.520199  -0.063266
     5  C   -0.063266  -0.023034  -0.049322   0.520199   4.966495   0.411315
     6  C    0.520199  -0.049322  -0.023034  -0.063266   0.411315   4.966495
     7  H    0.371972  -0.023925   0.003170   0.000063   0.003170  -0.023925
     8  H   -0.020173   0.366167  -0.028034   0.002917   0.000060   0.003084
     9  H    0.002917  -0.028034   0.366167  -0.020173   0.003084   0.000060
    10  H    0.000063   0.003170  -0.023925   0.371972  -0.023925   0.003170
    11  H    0.002917   0.000060   0.003084  -0.020173   0.366167  -0.028034
    12  H   -0.020173   0.003084   0.000060   0.002917  -0.028034   0.366167
               7          8          9         10         11         12
     1  C    0.371972  -0.020173   0.002917   0.000063   0.002917  -0.020173
     2  C   -0.023925   0.366167  -0.028034   0.003170   0.000060   0.003084
     3  C    0.003170  -0.028034   0.366167  -0.023925   0.003084   0.000060
     4  C    0.000063   0.002917  -0.020173   0.371972  -0.020173   0.002917
     5  C    0.003170   0.000060   0.003084  -0.023925   0.366167  -0.028034
     6  C   -0.023925   0.003084   0.000060   0.003170  -0.028034   0.366167
     7  H    0.415508  -0.002504  -0.000069   0.000002  -0.000069  -0.002504
     8  H   -0.002504   0.405652  -0.002207  -0.000069   0.000004  -0.000065
     9  H   -0.000069  -0.002207   0.405652  -0.002504  -0.000065   0.000004
    10  H    0.000002  -0.000069  -0.002504   0.415508  -0.002504  -0.000069
    11  H   -0.000069   0.000004  -0.000065  -0.002504   0.405652  -0.002207
    12  H   -0.002504  -0.000065   0.000004  -0.000069  -0.002207   0.405652
          Atomic-Atomic Spin Densities.
               1          2          3          4          5          6
     1  C   -0.188307  -0.006930  -0.007562   0.005871  -0.007562  -0.006930
     2  C   -0.006930   0.358255   0.040382  -0.007562  -0.007185  -0.005910
     3  C   -0.007562   0.040382   0.358255  -0.006930  -0.005910  -0.007185
     4  C    0.005871  -0.007562  -0.006930  -0.188307  -0.006930  -0.007562
     5  C   -0.007562  -0.007185  -0.005910  -0.006930   0.358255   0.040382
     6  C   -0.006930  -0.005910  -0.007185  -0.007562   0.040382   0.358255
     7  H    0.001545  -0.000925   0.000145  -0.000049   0.000145  -0.000925
     8  H    0.000083   0.000267  -0.001785  -0.000012  -0.000053   0.000081
     9  H   -0.000012  -0.001785   0.000267   0.000083   0.000081  -0.000053
    10  H   -0.000049   0.000145  -0.000925   0.001545  -0.000925   0.000145
    11  H   -0.000012  -0.000053   0.000081   0.000083   0.000267  -0.001785
    12  H    0.000083   0.000081  -0.000053  -0.000012  -0.001785   0.000267
               7          8          9         10         11         12
     1  C    0.001545   0.000083  -0.000012  -0.000049  -0.000012   0.000083
     2  C   -0.000925   0.000267  -0.001785   0.000145  -0.000053   0.000081
     3  C    0.000145  -0.001785   0.000267  -0.000925   0.000081  -0.000053
     4  C   -0.000049  -0.000012   0.000083   0.001545   0.000083  -0.000012
     5  C    0.000145  -0.000053   0.000081  -0.000925   0.000267  -0.001785
     6  C   -0.000925   0.000081  -0.000053   0.000145  -0.001785   0.000267
     7  H    0.005289  -0.000004   0.000004  -0.000001   0.000004  -0.000004
     8  H   -0.000004  -0.015038  -0.000048   0.000004  -0.000000   0.000005
     9  H    0.000004  -0.000048  -0.015038  -0.000004   0.000005  -0.000000
    10  H   -0.000001   0.000004  -0.000004   0.005289  -0.000004   0.000004
    11  H    0.000004  -0.000000   0.000005  -0.000004  -0.015038  -0.000048
    12  H   -0.000004   0.000005  -0.000000   0.000004  -0.000048  -0.015038
 Mulliken charges and spin densities:
               1          2
     1  C   -0.143626  -0.209782
     2  C   -0.082910   0.368780
     3  C   -0.082910   0.368780
     4  C   -0.143626  -0.209782
     5  C   -0.082910   0.368780
     6  C   -0.082910   0.368780
     7  H    0.259110   0.005224
     8  H    0.275168  -0.016500
     9  H    0.275168  -0.016500
    10  H    0.259110   0.005224
    11  H    0.275168  -0.016500
    12  H    0.275168  -0.016500
 Sum of Mulliken charges =   1.00000   1.00000
 Mulliken charges and spin densities with hydrogens summed into heavy atoms:
               1          2
     1  C    0.115484  -0.204558
     2  C    0.192258   0.352279
     3  C    0.192258   0.352279
     4  C    0.115484  -0.204558
     5  C    0.192258   0.352279
     6  C    0.192258   0.352279
 Electronic spatial extent (au):  <R**2>=            438.4591
 Charge=              1.0000 electrons
 Dipole moment (field-independent basis, Debye):
    X=             -0.0000    Y=              0.0000    Z=             -0.0000  Tot=              0.0000
 Quadrupole moment (field-independent basis, Debye-Ang):
   XX=            -17.9488   YY=            -21.6623   ZZ=            -35.0584
   XY=             -0.0000   XZ=              0.0000   YZ=              0.0000
 Traceless Quadrupole moment (field-independent basis, Debye-Ang):
   XX=              6.9410   YY=              3.2275   ZZ=            -10.1685
   XY=             -0.0000   XZ=              0.0000   YZ=              0.0000
 Octapole moment (field-independent basis, Debye-Ang**2):
  XXX=              0.0000  YYY=              0.0000  ZZZ=              0.0000  XYY=              0.0000
  XXY=              0.0000  XXZ=              0.0000  XZZ=             -0.0000  YZZ=              0.0000
  YYZ=              0.0000  XYZ=              0.0000
 Hexadecapole moment (field-independent basis, Debye-Ang**3):
 XXXX=           -196.0092 YYYY=           -210.5919 ZZZZ=            -34.2191 XXXY=              0.0000
 XXXZ=              0.0000 YYYX=             -0.0000 YYYZ=              0.0000 ZZZX=             -0.0000
 ZZZY=             -0.0000 XXYY=            -66.2255 XXZZ=            -52.1400 YYZZ=            -55.4915
 XXYZ=              0.0000 YYXZ=              0.0000 ZZXY=              0.0000
 N-N= 2.031815835396D+02 E-N=-9.341430145125D+02  KE= 2.305515903349D+02
 Symmetry AG   KE= 7.450960447558D+01
 Symmetry B1G  KE= 3.776056367945D+01
 Symmetry B2G  KE= 1.195683095659D+00
 Symmetry B3G  KE= 2.338354512761D+00
 Symmetry AU   KE=-4.798188874796D-17
 Symmetry B1U  KE= 1.956273099126D+00
 Symmetry B2U  KE= 7.219509353274D+01
 Symmetry B3U  KE= 4.059601793962D+01
 Symmetry AG   SP=-1.605437787919D-14
 Symmetry B1G  SP= 2.015108322177D-16
 Symmetry B2G  SP= 1.000000000000D+00
 Symmetry B3G  SP= 3.162211161326D-15
 Symmetry AU   SP=-7.869900013316D-18
 Symmetry B1U  SP= 4.298726088633D-16
 Symmetry B2U  SP=-8.276741786514D-15
 Symmetry B3U  SP=-1.025321863003D-14
                          Isotropic Fermi Contact Couplings
        Atom                 a.u.       MegaHertz       Gauss      10(-4) cm-1
     1  C(13)             -0.03235     -36.36769     -12.97690     -12.13096
     2  C(13)              0.04364      49.06221      17.50662      16.36539
     3  C(13)              0.04364      49.06221      17.50662      16.36539
     4  C(13)             -0.03235     -36.36769     -12.97690     -12.13096
     5  C(13)              0.04364      49.06221      17.50662      16.36539
     6  C(13)              0.04364      49.06221      17.50662      16.36539
     7  H(1)               0.00204       9.10448       3.24870       3.03693
     8  H(1)              -0.00643     -28.75354     -10.25998      -9.59115
     9  H(1)              -0.00643     -28.75354     -10.25998      -9.59115
    10  H(1)               0.00204       9.10448       3.24870       3.03693
    11  H(1)              -0.00643     -28.75354     -10.25998      -9.59115
    12  H(1)              -0.00643     -28.75354     -10.25998      -9.59115
 --------------------------------------------------------
       Center         ----  Spin Dipole Couplings  ----
                      3XX-RR        3YY-RR        3ZZ-RR
 --------------------------------------------------------
     1   Atom        0.072063      0.064399     -0.136462
     2   Atom       -0.188457     -0.181230      0.369687
     3   Atom       -0.188457     -0.181230      0.369687
     4   Atom        0.072063      0.064399     -0.136462
     5   Atom       -0.188457     -0.181230      0.369687
     6   Atom       -0.188457     -0.181230      0.369687
     7   Atom        0.006731     -0.001131     -0.005600
     8   Atom        0.011233     -0.003705     -0.007528
     9   Atom        0.011233     -0.003705     -0.007528
    10   Atom        0.006731     -0.001131     -0.005600
    11   Atom        0.011233     -0.003705     -0.007528
    12   Atom        0.011233     -0.003705     -0.007528
 --------------------------------------------------------
                        XY            XZ            YZ
 --------------------------------------------------------
     1   Atom        0.000000     -0.000000      0.000000
     2   Atom       -0.004820     -0.000000     -0.000000
     3   Atom        0.004820     -0.000000      0.000000
     4   Atom       -0.000000     -0.000000     -0.000000
     5   Atom       -0.004820      0.000000      0.000000
     6   Atom        0.004820      0.000000     -0.000000
     7   Atom        0.000000     -0.000000     -0.000000
     8   Atom       -0.028558     -0.000000      0.000000
     9   Atom        0.028558     -0.000000     -0.000000
    10   Atom        0.000000      0.000000      0.000000
    11   Atom       -0.028558      0.000000     -0.000000
    12   Atom        0.028558      0.000000      0.000000
 --------------------------------------------------------


 ---------------------------------------------------------------------------------
              Anisotropic Spin Dipole Couplings in Principal Axis System
 ---------------------------------------------------------------------------------

       Atom             a.u.   MegaHertz   Gauss  10(-4) cm-1        Axes

              Baa    -0.1365   -18.312    -6.534    -6.108  0.0000  0.0000  1.0000
     1 C(13)  Bbb     0.0644     8.642     3.084     2.883 -0.0000  1.0000  0.0000
              Bcc     0.0721     9.670     3.451     3.226  1.0000  0.0000  0.0000
 
              Baa    -0.1909   -25.613    -9.139    -8.543  0.8944  0.4473 -0.0000
     2 C(13)  Bbb    -0.1788   -23.996    -8.562    -8.004 -0.4473  0.8944 -0.0000
              Bcc     0.3697    49.608    17.702    16.548  0.0000  0.0000  1.0000
 
              Baa    -0.1909   -25.613    -9.139    -8.543  0.8944 -0.4473  0.0000
     3 C(13)  Bbb    -0.1788   -23.996    -8.562    -8.004  0.4473  0.8944 -0.0000
              Bcc     0.3697    49.608    17.702    16.548  0.0000  0.0000  1.0000
 
              Baa    -0.1365   -18.312    -6.534    -6.108  0.0000  0.0000  1.0000
     4 C(13)  Bbb     0.0644     8.642     3.084     2.883  0.0000  1.0000 -0.0000
              Bcc     0.0721     9.670     3.451     3.226  1.0000 -0.0000 -0.0000
 
              Baa    -0.1909   -25.613    -9.139    -8.543  0.8944  0.4473 -0.0000
     5 C(13)  Bbb    -0.1788   -23.996    -8.562    -8.004 -0.4473  0.8944 -0.0000
              Bcc     0.3697    49.608    17.702    16.548  0.0000  0.0000  1.0000
 
              Baa    -0.1909   -25.613    -9.139    -8.543  0.8944 -0.4473  0.0000
     6 C(13)  Bbb    -0.1788   -23.996    -8.562    -8.004  0.4473  0.8944 -0.0000
              Bcc     0.3697    49.608    17.702    16.548  0.0000  0.0000  1.0000
 
              Baa    -0.0056    -2.988    -1.066    -0.997  0.0000  0.0000  1.0000
     7 H(1)   Bbb    -0.0011    -0.603    -0.215    -0.201 -0.0000  1.0000 -0.0000
              Bcc     0.0067     3.591     1.281     1.198  1.0000  0.0000 -0.0000
 
              Baa    -0.0258   -13.741    -4.903    -4.584  0.6111  0.7915  0.0000
     8 H(1)   Bbb    -0.0075    -4.016    -1.433    -1.340  0.0000  0.0000  1.0000
              Bcc     0.0333    17.758     6.336     5.923  0.7915 -0.6111  0.0000
 
              Baa    -0.0258   -13.741    -4.903    -4.584 -0.6111  0.7915  0.0000
     9 H(1)   Bbb    -0.0075    -4.016    -1.433    -1.340  0.0000  0.0000  1.0000
              Bcc     0.0333    17.758     6.336     5.923  0.7915  0.6111 -0.0000
 
              Baa    -0.0056    -2.988    -1.066    -0.997  0.0000  0.0000  1.0000
    10 H(1)   Bbb    -0.0011    -0.603    -0.215    -0.201 -0.0000  1.0000 -0.0000
              Bcc     0.0067     3.591     1.281     1.198  1.0000  0.0000 -0.0000
 
              Baa    -0.0258   -13.741    -4.903    -4.584  0.6111  0.7915  0.0000
    11 H(1)   Bbb    -0.0075    -4.016    -1.433    -1.340  0.0000  0.0000  1.0000
              Bcc     0.0333    17.758     6.336     5.923  0.7915 -0.6111  0.0000
 
              Baa    -0.0258   -13.741    -4.903    -4.584 -0.6111  0.7915  0.0000
    12 H(1)   Bbb    -0.0075    -4.016    -1.433    -1.340  0.0000  0.0000  1.0000
              Bcc     0.0333    17.758     6.336     5.923  0.7915  0.6111 -0.0000
 

 ---------------------------------------------------------------------------------

 No NMR shielding tensors so no spin-rotation constants.
 Leave Link  601 at Mon Mar 16 03:50:51 2020, MaxMem=  6710886400 cpu:               3.6 elap:               0.2
 (Enter /opt/ohpc/pub/libs/gaussian/g16-A.03/sandybridge/g16/l9999.exe)

 Test job not archived.
 1\1\GINC-CNODE145\SP\ULC-wHPBE\6-31G\C6H6(1+,2)\QAI222\16-Mar-2020\0\\
 #P uLC-wHPBE/6-31G iop(3/107=0324300000, 3/108=0324300000) scf=(conver
 =6,fermi,ndamp=35,noincfock,novaracc,vshift=500,xqc)\\H6 C6\\1,2\C,0,0
 .,1.396379,0.\C,0,-1.2093,0.69819,0.\C,0,-1.2093,-0.69819,0.\C,0,0.,-1
 .396379,0.\C,0,1.2093,-0.69819,0.\C,0,1.2093,0.69819,0.\H,0,0.,2.48461
 3,0.\H,0,-2.151738,1.242306,0.\H,0,-2.151738,-1.242306,0.\H,0,0.,-2.48
 4613,0.\H,0,2.151738,-1.242306,0.\H,0,2.151738,1.242306,0.\\Version=EM
 64L-G16RevA.03\HF=-231.6696479\S2=0.777833\S2-1=0.\S2A=0.750371\RMSD=6
 .752e-07\Dipole=0.,0.,0.\Quadrupole=5.1604735,2.3995908,-7.5600644,0.,
 0.,0.\PG=D06H [3C2'(H1C1.C1H1)]\\@


 LAW OF COMPENSATION:
      NO CALCULATION IS EVER A COMPLETE FAILURE; IT 
      CAN ALWAYS SERVE AS A BAD EXAMPLE.

                                           -- ANON
 Job cpu time:       0 days  0 hours  0 minutes 46.9 seconds.
 Elapsed time:       0 days  0 hours  0 minutes  3.4 seconds.
 File lengths (MBytes):  RWF=    272 Int=      0 D2E=      0 Chk=     32 Scr=     32
 Normal termination of Gaussian 16 at Mon Mar 16 03:50:51 2020.
