 Entering Gaussian System, Link 0=g16
 Input=1b_tune_c1.gjf
 Output=1b_tune_c1.log
 Initial command:
 /opt/ohpc/pub/libs/gaussian/g16-A.03/sandybridge/g16/l1.exe "/pscratch/cmri235_uksr/ocelot/fw/dev/ocelot_api/tests/wtuning_test/1b/tuning_1b_ocycle1/Gau-63815.inp" -scrdir="/pscratch/cmri235_uksr/ocelot/fw/dev/ocelot_api/tests/wtuning_test/1b/tuning_1b_ocycle1/"
 Entering Link 1 = /opt/ohpc/pub/libs/gaussian/g16-A.03/sandybridge/g16/l1.exe PID=     63816.
  
 Copyright (c) 1988,1990,1992,1993,1995,1998,2003,2009,2016,
            Gaussian, Inc.  All Rights Reserved.
  
 This is part of the Gaussian(R) 16 program.  It is based on
 the Gaussian(R) 09 system (copyright 2009, Gaussian, Inc.),
 the Gaussian(R) 03 system (copyright 2003, Gaussian, Inc.),
 the Gaussian(R) 98 system (copyright 1998, Gaussian, Inc.),
 the Gaussian(R) 94 system (copyright 1995, Gaussian, Inc.),
 the Gaussian 92(TM) system (copyright 1992, Gaussian, Inc.),
 the Gaussian 90(TM) system (copyright 1990, Gaussian, Inc.),
 the Gaussian 88(TM) system (copyright 1988, Gaussian, Inc.),
 the Gaussian 86(TM) system (copyright 1986, Carnegie Mellon
 University), and the Gaussian 82(TM) system (copyright 1983,
 Carnegie Mellon University). Gaussian is a federally registered
 trademark of Gaussian, Inc.
  
 This software contains proprietary and confidential information,
 including trade secrets, belonging to Gaussian, Inc.
  
 This software is provided under written license and may be
 used, copied, transmitted, or stored only in accord with that
 written license.
  
 The following legend is applicable only to US Government
 contracts under FAR:
  
                    RESTRICTED RIGHTS LEGEND
  
 Use, reproduction and disclosure by the US Government is
 subject to restrictions as set forth in subparagraphs (a)
 and (c) of the Commercial Computer Software - Restricted
 Rights clause in FAR 52.227-19.
  
 Gaussian, Inc.
 340 Quinnipiac St., Bldg. 40, Wallingford CT 06492
  
  
 ---------------------------------------------------------------
 Warning -- This program may not be used in any manner that
 competes with the business of Gaussian, Inc. or will provide
 assistance to any competitor of Gaussian, Inc.  The licensee
 of this program is prohibited from giving any competitor of
 Gaussian, Inc. access to this program.  By using this program,
 the user acknowledges that Gaussian, Inc. is engaged in the
 business of creating and licensing software in the field of
 computational chemistry and represents and warrants to the
 licensee that it is not a competitor of Gaussian, Inc. and that
 it will not use this program in any manner prohibited above.
 ---------------------------------------------------------------
  

 Cite this work as:
 Gaussian 16, Revision A.03,
 M. J. Frisch, G. W. Trucks, H. B. Schlegel, G. E. Scuseria, 
 M. A. Robb, J. R. Cheeseman, G. Scalmani, V. Barone, 
 G. A. Petersson, H. Nakatsuji, X. Li, M. Caricato, A. V. Marenich, 
 J. Bloino, B. G. Janesko, R. Gomperts, B. Mennucci, H. P. Hratchian, 
 J. V. Ortiz, A. F. Izmaylov, J. L. Sonnenberg, D. Williams-Young, 
 F. Ding, F. Lipparini, F. Egidi, J. Goings, B. Peng, A. Petrone, 
 T. Henderson, D. Ranasinghe, V. G. Zakrzewski, J. Gao, N. Rega, 
 G. Zheng, W. Liang, M. Hada, M. Ehara, K. Toyota, R. Fukuda, 
 J. Hasegawa, M. Ishida, T. Nakajima, Y. Honda, O. Kitao, H. Nakai, 
 T. Vreven, K. Throssell, J. A. Montgomery, Jr., J. E. Peralta, 
 F. Ogliaro, M. J. Bearpark, J. J. Heyd, E. N. Brothers, K. N. Kudin, 
 V. N. Staroverov, T. A. Keith, R. Kobayashi, J. Normand, 
 K. Raghavachari, A. P. Rendell, J. C. Burant, S. S. Iyengar, 
 J. Tomasi, M. Cossi, J. M. Millam, M. Klene, C. Adamo, R. Cammi, 
 J. W. Ochterski, R. L. Martin, K. Morokuma, O. Farkas, 
 J. B. Foresman, and D. J. Fox, Gaussian, Inc., Wallingford CT, 2016.
 
 ******************************************
 Gaussian 16:  EM64L-G16RevA.03 25-Dec-2016
                16-Mar-2020 
 ******************************************
 %mem=50GB
 %nproc=16
 Will use up to   16 processors via shared memory.
 ----------------------------------------------------------------------
 #P uLC-wHPBE/6-31G iop(3/107=0361300000, 3/108=0361300000) scf=(conver
 =6,fermi,ndamp=35,noincfock,novaracc,vshift=500,xqc)
 ----------------------------------------------------------------------
 1/38=1,172=1/1;
 2/12=2,17=6,18=5,40=1/2;
 3/5=1,6=6,11=2,25=1,30=1,74=-71,107=361300000,108=361300000,116=2/1,2,3;
 4//1;
 5/5=100002,6=6,8=3,10=500,13=1,18=-1,22=13,38=1,93=35/2,8;
 6/7=2,8=2,9=2,10=2,28=1/1;
 99/5=1,9=1/99;
 Leave Link    1 at Mon Mar 16 03:50:35 2020, MaxMem=  6710886400 cpu:              11.8 elap:               0.8
 (Enter /opt/ohpc/pub/libs/gaussian/g16-A.03/sandybridge/g16/l101.exe)
 -----
 H6 C6
 -----
 Symbolic Z-matrix:
 Charge =  1 Multiplicity = 2
 C                     0.        1.39638   0. 
 C                    -1.2093    0.69819   0. 
 C                    -1.2093   -0.69819   0. 
 C                     0.       -1.39638   0. 
 C                     1.2093   -0.69819   0. 
 C                     1.2093    0.69819   0. 
 H                     0.        2.48461   0. 
 H                    -2.15174   1.24231   0. 
 H                    -2.15174  -1.24231   0. 
 H                     0.       -2.48461   0. 
 H                     2.15174  -1.24231   0. 
 H                     2.15174   1.24231   0. 
 
 ITRead=  0  0  0  0  0  0  0  0  0  0  0  0
 MicOpt= -1 -1 -1 -1 -1 -1 -1 -1 -1 -1 -1 -1
 NAtoms=     12 NQM=       12 NQMF=       0 NMMI=      0 NMMIF=      0
                NMic=       0 NMicF=      0.
                    Isotopes and Nuclear Properties:
 (Nuclear quadrupole moments (NQMom) in fm**2, nuclear magnetic moments (NMagM)
  in nuclear magnetons)

  Atom         1           2           3           4           5           6           7           8           9          10
 IAtWgt=          12          12          12          12          12          12           1           1           1           1
 AtmWgt=  12.0000000  12.0000000  12.0000000  12.0000000  12.0000000  12.0000000   1.0078250   1.0078250   1.0078250   1.0078250
 NucSpn=           0           0           0           0           0           0           1           1           1           1
 AtZEff=  -0.0000000  -0.0000000  -0.0000000  -0.0000000  -0.0000000  -0.0000000  -0.0000000  -0.0000000  -0.0000000  -0.0000000
 NQMom=    0.0000000   0.0000000   0.0000000   0.0000000   0.0000000   0.0000000   0.0000000   0.0000000   0.0000000   0.0000000
 NMagM=    0.0000000   0.0000000   0.0000000   0.0000000   0.0000000   0.0000000   2.7928460   2.7928460   2.7928460   2.7928460
 AtZNuc=   6.0000000   6.0000000   6.0000000   6.0000000   6.0000000   6.0000000   1.0000000   1.0000000   1.0000000   1.0000000

  Atom        11          12
 IAtWgt=           1           1
 AtmWgt=   1.0078250   1.0078250
 NucSpn=           1           1
 AtZEff=  -0.0000000  -0.0000000
 NQMom=    0.0000000   0.0000000
 NMagM=    2.7928460   2.7928460
 AtZNuc=   1.0000000   1.0000000
 Leave Link  101 at Mon Mar 16 03:50:35 2020, MaxMem=  6710886400 cpu:               2.6 elap:               0.2
 (Enter /opt/ohpc/pub/libs/gaussian/g16-A.03/sandybridge/g16/l202.exe)
                          Input orientation:                          
 ---------------------------------------------------------------------
 Center     Atomic      Atomic             Coordinates (Angstroms)
 Number     Number       Type             X           Y           Z
 ---------------------------------------------------------------------
      1          6           0        0.000000    1.396379    0.000000
      2          6           0       -1.209300    0.698190    0.000000
      3          6           0       -1.209300   -0.698190    0.000000
      4          6           0        0.000000   -1.396379    0.000000
      5          6           0        1.209300   -0.698190    0.000000
      6          6           0        1.209300    0.698190    0.000000
      7          1           0        0.000000    2.484613    0.000000
      8          1           0       -2.151738    1.242306    0.000000
      9          1           0       -2.151738   -1.242306    0.000000
     10          1           0        0.000000   -2.484613    0.000000
     11          1           0        2.151738   -1.242306    0.000000
     12          1           0        2.151738    1.242306    0.000000
 ---------------------------------------------------------------------
                    Distance matrix (angstroms):
                    1          2          3          4          5
     1  C    0.000000
     2  C    1.396379   0.000000
     3  C    2.418600   1.396380   0.000000
     4  C    2.792758   2.418600   1.396379   0.000000
     5  C    2.418600   2.792759   2.418600   1.396379   0.000000
     6  C    1.396379   2.418600   2.792759   2.418600   1.396380
     7  H    1.088234   2.157247   3.404797   3.880992   3.404797
     8  H    2.157247   1.088233   2.157247   3.404796   3.880992
     9  H    3.404796   2.157247   1.088233   2.157247   3.404796
    10  H    3.880992   3.404797   2.157247   1.088234   2.157247
    11  H    3.404796   3.880992   3.404796   2.157247   1.088233
    12  H    2.157247   3.404796   3.880992   3.404796   2.157247
                    6          7          8          9         10
     6  C    0.000000
     7  H    2.157247   0.000000
     8  H    3.404796   2.484613   0.000000
     9  H    3.880992   4.303476   2.484612   0.000000
    10  H    3.404797   4.969226   4.303476   2.484613   0.000000
    11  H    2.157247   4.303476   4.969226   4.303476   2.484613
    12  H    1.088233   2.484613   4.303476   4.969226   4.303476
                   11         12
    11  H    0.000000
    12  H    2.484612   0.000000
 Stoichiometry    C6H6(1+,2)
 Framework group  D6H[3C2'(HC.CH)]
 Deg. of freedom     2
 Full point group                 D6H     NOp  24
 Largest Abelian subgroup         D2H     NOp   8
 Largest concise Abelian subgroup D2      NOp   4
                         Standard orientation:                         
 ---------------------------------------------------------------------
 Center     Atomic      Atomic             Coordinates (Angstroms)
 Number     Number       Type             X           Y           Z
 ---------------------------------------------------------------------
      1          6           0       -0.000000    1.396379   -0.000000
      2          6           0       -1.209300    0.698190   -0.000000
      3          6           0       -1.209300   -0.698189   -0.000000
      4          6           0       -0.000000   -1.396379   -0.000000
      5          6           0        1.209300   -0.698190   -0.000000
      6          6           0        1.209300    0.698189   -0.000000
      7          1           0       -0.000000    2.484613   -0.000000
      8          1           0       -2.151738    1.242307   -0.000000
      9          1           0       -2.151738   -1.242307   -0.000000
     10          1           0       -0.000000   -2.484613   -0.000000
     11          1           0        2.151738   -1.242307   -0.000000
     12          1           0        2.151738    1.242306   -0.000000
 ---------------------------------------------------------------------
 Rotational constants (GHZ):           5.6873431           5.6873431           2.8436715
 Leave Link  202 at Mon Mar 16 03:50:35 2020, MaxMem=  6710886400 cpu:               1.8 elap:               0.1
 (Enter /opt/ohpc/pub/libs/gaussian/g16-A.03/sandybridge/g16/l301.exe)
 Standard basis: 6-31G (6D, 7F)
 Ernie: Thresh=  0.10000D-02 Tol=  0.10000D-05 Strict=F.
 There are    16 symmetry adapted cartesian basis functions of AG  symmetry.
 There are    11 symmetry adapted cartesian basis functions of B1G symmetry.
 There are     2 symmetry adapted cartesian basis functions of B2G symmetry.
 There are     4 symmetry adapted cartesian basis functions of B3G symmetry.
 There are     2 symmetry adapted cartesian basis functions of AU  symmetry.
 There are     4 symmetry adapted cartesian basis functions of B1U symmetry.
 There are    16 symmetry adapted cartesian basis functions of B2U symmetry.
 There are    11 symmetry adapted cartesian basis functions of B3U symmetry.
 There are    16 symmetry adapted basis functions of AG  symmetry.
 There are    11 symmetry adapted basis functions of B1G symmetry.
 There are     2 symmetry adapted basis functions of B2G symmetry.
 There are     4 symmetry adapted basis functions of B3G symmetry.
 There are     2 symmetry adapted basis functions of AU  symmetry.
 There are     4 symmetry adapted basis functions of B1U symmetry.
 There are    16 symmetry adapted basis functions of B2U symmetry.
 There are    11 symmetry adapted basis functions of B3U symmetry.
    66 basis functions,   156 primitive gaussians,    66 cartesian basis functions
    21 alpha electrons       20 beta electrons
       nuclear repulsion energy       203.1815835396 Hartrees.
 IExCor=33909 DFT=T Ex+Corr=LC-wHPBE ExCW=0 ScaHFX=  1.000000
 ScaDFX=  1.000000  1.000000  1.000000  1.000000 ScalE2=  1.000000  1.000000
 IRadAn=      5 IRanWt=     -1 IRanGd=            0 ICorTp=0 IEmpDi=  4
 HFx  wShort=  0.000000 wLong=  0.361300 cFull=  0.000000 cShort=  0.000000 cLong=  1.000000
 DFx  wShort=  0.000000 wLong=  0.361300 cFull=  0.000000 cShort=  1.000000 cLong=  0.000000
 NAtoms=   12 NActive=   12 NUniq=    2 SFac= 4.00D+00 NAtFMM=   60 NAOKFM=F Big=F
 Integral buffers will be    131072 words long.
 Raffenetti 2 integral format.
 Two-electron integral symmetry is turned on.
 Leave Link  301 at Mon Mar 16 03:50:35 2020, MaxMem=  6710886400 cpu:               0.9 elap:               0.1
 (Enter /opt/ohpc/pub/libs/gaussian/g16-A.03/sandybridge/g16/l302.exe)
 NPDir=0 NMtPBC=     1 NCelOv=     1 NCel=       1 NClECP=     1 NCelD=      1
         NCelK=      1 NCelE2=     1 NClLst=     1 CellRange=     0.0.
 One-electron integrals computed using PRISM.
 One-electron integral symmetry used in STVInt
 NBasis=    66 RedAO= T EigKep=  7.02D-04  NBF=    16    11     2     4     2     4    16    11
 NBsUse=    66 1.00D-06 EigRej= -1.00D+00 NBFU=    16    11     2     4     2     4    16    11
 Precomputing XC quadrature grid using
 IXCGrd= 4 IRadAn=           5 IRanWt=          -1 IRanGd=           0 AccXCQ= 0.00D+00.
 Generated NRdTot=       0 NPtTot=           0 NUsed=           0 NTot=          32
 NSgBfM=    66    66    66    66    66 MxSgAt=    12 MxSgA2=    12.
 Leave Link  302 at Mon Mar 16 03:50:36 2020, MaxMem=  6710886400 cpu:               2.3 elap:               0.2
 (Enter /opt/ohpc/pub/libs/gaussian/g16-A.03/sandybridge/g16/l303.exe)
 DipDrv:  MaxL=1.
 Leave Link  303 at Mon Mar 16 03:50:36 2020, MaxMem=  6710886400 cpu:               0.7 elap:               0.2
 (Enter /opt/ohpc/pub/libs/gaussian/g16-A.03/sandybridge/g16/l401.exe)
 ExpMin= 1.61D-01 ExpMax= 3.05D+03 ExpMxC= 4.57D+02 IAcc=3 IRadAn=         5 AccDes= 0.00D+00
 Harris functional with IExCor=33909 and IRadAn=       5 diagonalized for initial guess.
 HarFok:  IExCor=33909 AccDes= 0.00D+00 IRadAn=         5 IDoV= 1 UseB2=F ITyADJ=14
 ICtDFT=  3500011 ScaDFX=  1.000000  1.000000  1.000000  1.000000
 FoFCou: FMM=F IPFlag=           0 FMFlag=      100000 FMFlg1=           0
         NFxFlg=           0 DoJE=T BraDBF=F KetDBF=T FulRan=T
         wScrn=  0.000000 ICntrl=       500 IOpCl=  0 I1Cent=   200000004 NGrid=           0
         NMat0=    1 NMatS0=      1 NMatT0=    0 NMatD0=    1 NMtDS0=    0 NMtDT0=    0
 Petite list used in FoFCou.
 Harris En= -224.281171510637    
 JPrj=0 DoOrth=F DoCkMO=F.
 Initial guess orbital symmetries:
 Alpha Orbitals:
       Occupied  (A1G) (E1U) (E1U) (E2G) (E2G) (B1U) (A1G) (E1U)
                 (E1U) (E2G) (E2G) (A1G) (B2U) (B1U) (E1U) (E1U)
                 (A2U) (E2G) (E2G) (E1G) (E1G)
       Virtual   (E2U) (E2U) (A1G) (B2G) (E1U) (E1U) (E2G) (E2G)
                 (B1U) (E2G) (E2G) (E1U) (E1U) (B2U) (A2U) (B1U)
                 (A2G) (A1G) (E2G) (E2G) (E1G) (E1G) (A1G) (E1U)
                 (E1U) (E2U) (E2U) (B2G) (B1U) (E2G) (E2G) (E1U)
                 (E1U) (A2G) (A1G) (E1U) (E1U) (E2G) (E2G) (E1U)
                 (E1U) (B1U) (E2G) (E2G) (B1U)
 Beta  Orbitals:
       Occupied  (A1G) (E1U) (E1U) (E2G) (E2G) (B1U) (A1G) (E1U)
                 (E1U) (E2G) (E2G) (A1G) (B2U) (B1U) (E1U) (E1U)
                 (A2U) (E2G) (E2G) (E1G)
       Virtual   (E1G) (E2U) (E2U) (A1G) (B2G) (E1U) (E1U) (E2G)
                 (E2G) (B1U) (E2G) (E2G) (E1U) (E1U) (B2U) (A2U)
                 (B1U) (A2G) (A1G) (E2G) (E2G) (E1G) (E1G) (A1G)
                 (E1U) (E1U) (E2U) (E2U) (B2G) (B1U) (E2G) (E2G)
                 (E1U) (E1U) (A2G) (A1G) (E1U) (E1U) (E2G) (E2G)
                 (E1U) (E1U) (B1U) (E2G) (E2G) (B1U)
 Initial guess <Sx>= 0.0000 <Sy>= 0.0000 <Sz>= 0.5000 <S**2>= 0.7500 S= 0.5000
 Leave Link  401 at Mon Mar 16 03:50:36 2020, MaxMem=  6710886400 cpu:               2.9 elap:               0.4
 (Enter /opt/ohpc/pub/libs/gaussian/g16-A.03/sandybridge/g16/l502.exe)
 Keep R1 and R2 ints in memory in symmetry-blocked form, NReq=19109854.
 FoFCou: FMM=F IPFlag=           0 FMFlag=           0 FMFlg1=           0
         NFxFlg=           0 DoJE=F BraDBF=F KetDBF=F FulRan=T
         wScrn=  0.000000 ICntrl=       600 IOpCl=  0 I1Cent=           0 NGrid=           0
         NMat0=    1 NMatS0=   2211 NMatT0=    0 NMatD0=    1 NMtDS0=    0 NMtDT0=    0
 Petite list used in FoFCou.
 UHF open shell SCF:
 Using DIIS extrapolation, IDIIS=    10.
 NGot=  6710886400 LenX=  6710146038 LenY=  6710141241
 Requested convergence on RMS density matrix=1.00D-06 within  32 cycles.
 Requested convergence on MAX density matrix=1.00D-04.
 Requested convergence on             energy=1.00D-04.
 Virtual orbitals will be shifted by   0.500 hartree.
 No special actions if energy rises.
 Dynamic level shift is on during FON iterations.

 Cycle   1  Pass 1  IDiag  1:
 Density matrix breaks symmetry, PCut= 1.00D-04
 Density has only Abelian symmetry.
 E= -231.655199702126    
 DIIS: error= 1.68D-02 at cycle   1 NSaved=   1.
 NSaved= 1 IEnMin= 1 EnMin= -231.655199702126     IErMin= 1 ErrMin= 1.68D-02
 ErrMax= 1.68D-02  0.00D+00 EMaxC= 1.00D+00 BMatC= 5.99D-02 BMatP= 5.99D-02
 IDIUse=1 WtCom= 1.00D+00 WtEn= 0.00D+00
 Coeff-Com:  0.100D+01
 Coeff:      0.100D+01
 Gap=     0.397 Goal=   None    Shift=    0.500
 T= 1149. Gap= 0.898 NK=0 IS=   22 IE=   66 IFin=   21
          NO(<0.9)=   0  NV(>0.1)=   0     21.00e < EF      0.00e >EF  Err=0.0D+00
 Gap=     0.209 Goal=   None    Shift=    0.500
 T= 1149. Gap= 0.709 NK=0 IS=   21 IE=   66 IFin=   20
          NO(<0.9)=   0  NV(>0.1)=   0     20.00e < EF      0.00e >EF  Err=0.0D+00
 GapD=    0.209 DampG=1.000 DampE=0.500 DampFc=0.5000 IDamp=-1.
 Damping current iteration by 5.00D-01
 RMSDP=3.40D-03 MaxDP=2.58D-02              OVMax= 3.23D-02

 Cycle   2  Pass 1  IDiag  1:
 Density matrix breaks symmetry, PCut= 1.00D-04
 Density has only Abelian symmetry.
 E= -231.664647379468     Delta-E=       -0.009447677342 Rises=F Damp=T
 DIIS: error= 1.02D-02 at cycle   2 NSaved=   2.
 NSaved= 2 IEnMin= 2 EnMin= -231.664647379468     IErMin= 2 ErrMin= 1.02D-02
 ErrMax= 1.02D-02  0.00D+00 EMaxC= 1.00D+00 BMatC= 1.58D-02 BMatP= 5.99D-02
 IDIUse=1 WtCom= 1.00D+00 WtEn= 0.00D+00
 Coeff-Com: -0.866D+00 0.187D+01
 Coeff:     -0.866D+00 0.187D+01
 Gap=     0.414 Goal=   None    Shift=    0.500
 T= 1064. Gap= 0.914 NK=0 IS=   22 IE=   66 IFin=   21
          NO(<0.9)=   0  NV(>0.1)=   0     21.00e < EF      0.00e >EF  Err=0.0D+00
 Gap=     0.233 Goal=   None    Shift=    0.500
 T= 1064. Gap= 0.733 NK=0 IS=   21 IE=   66 IFin=   20
          NO(<0.9)=   0  NV(>0.1)=   0     20.00e < EF      0.00e >EF  Err=0.0D+00
 GapD=    0.233 DampG=1.000 DampE=0.500 DampFc=0.5000 IDamp=-1.
 Damping current iteration by 5.00D-01
 RMSDP=2.64D-03 MaxDP=1.49D-02 DE=-9.45D-03 OVMax= 1.90D-02

 Cycle   3  Pass 1  IDiag  1:
 Density matrix breaks symmetry, PCut= 1.00D-04
 Density has only Abelian symmetry.
 E= -231.669044287115     Delta-E=       -0.004396907648 Rises=F Damp=T
 DIIS: error= 7.40D-03 at cycle   3 NSaved=   3.
 NSaved= 3 IEnMin= 3 EnMin= -231.669044287115     IErMin= 3 ErrMin= 7.40D-03
 ErrMax= 7.40D-03  0.00D+00 EMaxC= 1.00D+00 BMatC= 5.16D-03 BMatP= 1.58D-02
 IDIUse=1 WtCom= 1.00D+00 WtEn= 0.00D+00
 Coeff-Com:  0.202D+00-0.177D+01 0.256D+01
 Coeff:      0.202D+00-0.177D+01 0.256D+01
 Gap=     0.408 Goal=   None    Shift=    0.500
 T=  919. Gap= 0.909 NK=0 IS=   22 IE=   66 IFin=   21
          NO(<0.9)=   0  NV(>0.1)=   0     21.00e < EF      0.00e >EF  Err=0.0D+00
 Gap=     0.234 Goal=   None    Shift=    0.500
 T=  919. Gap= 0.734 NK=0 IS=   21 IE=   66 IFin=   20
          NO(<0.9)=   0  NV(>0.1)=   0     20.00e < EF      0.00e >EF  Err=0.0D+00
 GapD=    0.234 DampG=1.000 DampE=1.000 DampFc=1.0000 IDamp=-1.
 RMSDP=1.80D-03 MaxDP=1.04D-02 DE=-4.40D-03 OVMax= 1.37D-02

 Cycle   4  Pass 1  IDiag  1:
 Density matrix breaks symmetry, PCut= 1.00D-04
 Density has only Abelian symmetry.
 E= -231.674151127456     Delta-E=       -0.005106840341 Rises=F Damp=F
 DIIS: error= 4.90D-03 at cycle   4 NSaved=   4.
 NSaved= 4 IEnMin= 4 EnMin= -231.674151127456     IErMin= 4 ErrMin= 4.90D-03
 ErrMax= 4.90D-03  0.00D+00 EMaxC= 1.00D+00 BMatC= 4.67D-04 BMatP= 5.16D-03
 IDIUse=1 WtCom= 1.00D+00 WtEn= 0.00D+00
 Coeff-Com:  0.125D+00 0.492D+00-0.152D+01 0.190D+01
 Coeff:      0.125D+00 0.492D+00-0.152D+01 0.190D+01
 Gap=     0.406 Goal=   None    Shift=    0.500
 T=  664. Gap= 0.906 NK=0 IS=   22 IE=   66 IFin=   21
          NO(<0.9)=   0  NV(>0.1)=   0     21.00e < EF      0.00e >EF  Err=0.0D+00
 Gap=     0.239 Goal=   None    Shift=    0.500
 T=  664. Gap= 0.739 NK=0 IS=   21 IE=   66 IFin=   20
          NO(<0.9)=   0  NV(>0.1)=   0     20.00e < EF      0.00e >EF  Err=0.0D+00
 GapD=    0.239 DampG=1.000 DampE=1.000 DampFc=1.0000 IDamp=-1.
 RMSDP=3.47D-04 MaxDP=4.30D-03 DE=-5.11D-03 OVMax= 1.39D-02

 Cycle   5  Pass 1  IDiag  1:
 Density matrix breaks symmetry, PCut= 1.00D-04
 Density has only Abelian symmetry.
 E= -231.674654996781     Delta-E=       -0.000503869324 Rises=F Damp=F
 DIIS: error= 3.00D-03 at cycle   5 NSaved=   5.
 NSaved= 5 IEnMin= 5 EnMin= -231.674654996781     IErMin= 5 ErrMin= 3.00D-03
 ErrMax= 3.00D-03  0.00D+00 EMaxC= 1.00D+00 BMatC= 1.90D-04 BMatP= 4.67D-04
 IDIUse=1 WtCom= 1.00D+00 WtEn= 0.00D+00
 Coeff-Com: -0.135D+00 0.885D+00-0.114D+01-0.927D+00 0.232D+01
 Coeff:     -0.135D+00 0.885D+00-0.114D+01-0.927D+00 0.232D+01
 Gap=     0.403 Goal=   None    Shift=    0.500
 T=  433. Gap= 0.903 NK=0 IS=   22 IE=   66 IFin=   21
          NO(<0.9)=   0  NV(>0.1)=   0     21.00e < EF      0.00e >EF  Err=0.0D+00
 Gap=     0.243 Goal=   None    Shift=    0.500
 T=  433. Gap= 0.743 NK=0 IS=   21 IE=   66 IFin=   20
          NO(<0.9)=   0  NV(>0.1)=   0     20.00e < EF      0.00e >EF  Err=0.0D+00
 GapD=    0.243 DampG=1.000 DampE=1.000 DampFc=1.0000 IDamp=-1.
 RMSDP=2.57D-04 MaxDP=4.11D-03 DE=-5.04D-04 OVMax= 1.17D-02

 Cycle   6  Pass 1  IDiag  1:
 Density matrix breaks symmetry, PCut= 1.00D-04
 Density has only Abelian symmetry.
 E= -231.674926958612     Delta-E=       -0.000271961831 Rises=F Damp=F
 DIIS: error= 1.63D-03 at cycle   6 NSaved=   6.
 NSaved= 6 IEnMin= 6 EnMin= -231.674926958612     IErMin= 6 ErrMin= 1.63D-03
 ErrMax= 1.63D-03  0.00D+00 EMaxC= 1.00D+00 BMatC= 5.41D-05 BMatP= 1.90D-04
 IDIUse=1 WtCom= 1.00D+00 WtEn= 0.00D+00
 Coeff-Com:  0.231D-01-0.249D+00 0.403D+00-0.137D+00-0.125D+01 0.221D+01
 Coeff:      0.231D-01-0.249D+00 0.403D+00-0.137D+00-0.125D+01 0.221D+01
 Gap=     0.402 Goal=   None    Shift=    0.500
 T=  149. Gap= 0.902 NK=0 IS=   22 IE=   66 IFin=   21
          NO(<0.9)=   0  NV(>0.1)=   0     21.00e < EF      0.00e >EF  Err=0.0D+00
 Gap=     0.244 Goal=   None    Shift=    0.500
 T=  149. Gap= 0.744 NK=0 IS=   21 IE=   66 IFin=   20
          NO(<0.9)=   0  NV(>0.1)=   0     20.00e < EF      0.00e >EF  Err=0.0D+00
 GapD=    0.244 DampG=1.000 DampE=1.000 DampFc=1.0000 IDamp=-1.
 RMSDP=1.43D-04 MaxDP=2.52D-03 DE=-2.72D-04 OVMax= 6.76D-03

 Cycle   7  Pass 1  IDiag  1:
 Density matrix breaks symmetry, PCut= 1.00D-04
 Density has only Abelian symmetry.
 E= -231.675008880403     Delta-E=       -0.000081921792 Rises=F Damp=F
 DIIS: error= 8.36D-04 at cycle   7 NSaved=   7.
 NSaved= 7 IEnMin= 7 EnMin= -231.675008880403     IErMin= 7 ErrMin= 8.36D-04
 ErrMax= 8.36D-04  0.00D+00 EMaxC= 1.00D+00 BMatC= 1.49D-05 BMatP= 5.41D-05
 IDIUse=1 WtCom= 1.00D+00 WtEn= 0.00D+00
 Coeff-Com: -0.249D-01 0.258D+00-0.411D+00 0.672D-01 0.137D+01-0.386D+01
 Coeff-Com:  0.360D+01
 Coeff:     -0.249D-01 0.258D+00-0.411D+00 0.672D-01 0.137D+01-0.386D+01
 Coeff:      0.360D+01
 Gap=     0.402 Goal=   None    Shift=    0.500
 Gap=     0.244 Goal=   None    Shift=    0.500
 RMSDP=7.34D-05 MaxDP=1.28D-03 DE=-8.19D-05 OVMax= 3.55D-03

 Cycle   8  Pass 1  IDiag  1:
 Density matrix breaks symmetry, PCut= 1.00D-04
 Density has only Abelian symmetry.
 E= -231.675030247109     Delta-E=       -0.000021366706 Rises=F Damp=F
 DIIS: error= 4.21D-04 at cycle   8 NSaved=   8.
 NSaved= 8 IEnMin= 8 EnMin= -231.675030247109     IErMin= 8 ErrMin= 4.21D-04
 ErrMax= 4.21D-04  0.00D+00 EMaxC= 1.00D+00 BMatC= 3.75D-06 BMatP= 1.49D-05
 IDIUse=1 WtCom= 1.00D+00 WtEn= 0.00D+00
 Coeff-Com:  0.658D-02-0.617D-01 0.101D+00-0.544D-01-0.420D+00 0.168D+01
 Coeff-Com: -0.323D+01 0.298D+01
 Coeff:      0.658D-02-0.617D-01 0.101D+00-0.544D-01-0.420D+00 0.168D+01
 Coeff:     -0.323D+01 0.298D+01
 Gap=     0.402 Goal=   None    Shift=    0.500
 Gap=     0.244 Goal=   None    Shift=    0.500
 RMSDP=3.48D-05 MaxDP=5.61D-04 DE=-2.14D-05 OVMax= 1.78D-03

 Cycle   9  Pass 1  IDiag  1:
 Density matrix breaks symmetry, PCut= 1.00D-04
 Density has only Abelian symmetry.
 E= -231.675035268680     Delta-E=       -0.000005021570 Rises=F Damp=F
 DIIS: error= 2.06D-04 at cycle   9 NSaved=   9.
 NSaved= 9 IEnMin= 9 EnMin= -231.675035268680     IErMin= 9 ErrMin= 2.06D-04
 ErrMax= 2.06D-04  0.00D+00 EMaxC= 1.00D+00 BMatC= 8.37D-07 BMatP= 3.75D-06
 IDIUse=1 WtCom= 1.00D+00 WtEn= 0.00D+00
 Coeff-Com: -0.437D-02 0.382D-01-0.598D-01 0.151D-01 0.254D+00-0.978D+00
 Coeff-Com:  0.197D+01-0.316D+01 0.293D+01
 Coeff:     -0.437D-02 0.382D-01-0.598D-01 0.151D-01 0.254D+00-0.978D+00
 Coeff:      0.197D+01-0.316D+01 0.293D+01
 Gap=     0.402 Goal=   None    Shift=    0.500
 Gap=     0.244 Goal=   None    Shift=    0.500
 RMSDP=1.60D-05 MaxDP=2.64D-04 DE=-5.02D-06 OVMax= 8.65D-04

 Cycle  10  Pass 1  IDiag  1:
 Density matrix breaks symmetry, PCut= 1.00D-04
 Density has only Abelian symmetry.
 E= -231.675036378433     Delta-E=       -0.000001109753 Rises=F Damp=F
 DIIS: error= 9.99D-05 at cycle  10 NSaved=  10.
 NSaved=10 IEnMin=10 EnMin= -231.675036378433     IErMin=10 ErrMin= 9.99D-05
 ErrMax= 9.99D-05  0.00D+00 EMaxC= 1.00D+00 BMatC= 1.79D-07 BMatP= 8.37D-07
 IDIUse=1 WtCom= 1.00D+00 WtEn= 0.00D+00
 Coeff-Com:  0.239D-02-0.193D-01 0.300D-01-0.148D-01-0.122D+00 0.525D+00
 Coeff-Com: -0.116D+01 0.203D+01-0.321D+01 0.294D+01
 Coeff:      0.239D-02-0.193D-01 0.300D-01-0.148D-01-0.122D+00 0.525D+00
 Coeff:     -0.116D+01 0.203D+01-0.321D+01 0.294D+01
 Gap=     0.402 Goal=   None    Shift=    0.500
 Gap=     0.244 Goal=   None    Shift=    0.500
 RMSDP=7.39D-06 MaxDP=1.23D-04 DE=-1.11D-06 OVMax= 4.10D-04

 Cycle  11  Pass 1  IDiag  1:
 Density matrix breaks symmetry, PCut= 1.00D-04
 Density has only Abelian symmetry.
 E= -231.675036614631     Delta-E=       -0.000000236197 Rises=F Damp=F
 DIIS: error= 4.85D-05 at cycle  11 NSaved=  11.
 NSaved=11 IEnMin=11 EnMin= -231.675036614631     IErMin=11 ErrMin= 4.85D-05
 ErrMax= 4.85D-05  0.00D+00 EMaxC= 1.00D+00 BMatC= 3.77D-08 BMatP= 1.79D-07
 IDIUse=1 WtCom= 1.00D+00 WtEn= 0.00D+00
 Coeff-Com: -0.163D-02 0.128D-01-0.195D-01 0.742D-02 0.787D-01-0.333D+00
 Coeff-Com:  0.746D+00-0.139D+01 0.238D+01-0.355D+01 0.307D+01
 Coeff:     -0.163D-02 0.128D-01-0.195D-01 0.742D-02 0.787D-01-0.333D+00
 Coeff:      0.746D+00-0.139D+01 0.238D+01-0.355D+01 0.307D+01
 Gap=     0.402 Goal=   None    Shift=    0.500
 Gap=     0.244 Goal=   None    Shift=    0.500
 RMSDP=3.35D-06 MaxDP=5.56D-05 DE=-2.36D-07 OVMax= 1.95D-04

 Cycle  12  Pass 1  IDiag  1:
 Density matrix breaks symmetry, PCut= 1.00D-04
 Density has only Abelian symmetry.
 E= -231.675036664417     Delta-E=       -0.000000049786 Rises=F Damp=F
 DIIS: error= 2.37D-05 at cycle  12 NSaved=  12.
 NSaved=12 IEnMin=12 EnMin= -231.675036664417     IErMin=12 ErrMin= 2.37D-05
 ErrMax= 2.37D-05  0.00D+00 EMaxC= 1.00D+00 BMatC= 8.12D-09 BMatP= 3.77D-08
 IDIUse=1 WtCom= 1.00D+00 WtEn= 0.00D+00
 Coeff-Com:  0.291D-03-0.185D-02 0.272D-02-0.236D-02-0.743D-02 0.437D-01
 Coeff-Com: -0.110D+00 0.227D+00-0.473D+00 0.109D+01-0.254D+01 0.276D+01
 Coeff:      0.291D-03-0.185D-02 0.272D-02-0.236D-02-0.743D-02 0.437D-01
 Coeff:     -0.110D+00 0.227D+00-0.473D+00 0.109D+01-0.254D+01 0.276D+01
 Gap=     0.402 Goal=   None    Shift=    0.500
 Gap=     0.244 Goal=   None    Shift=    0.500
 RMSDP=1.52D-06 MaxDP=2.52D-05 DE=-4.98D-08 OVMax= 9.32D-05

 Cycle  13  Pass 1  IDiag  1:
 Density matrix breaks symmetry, PCut= 1.00D-04
 Density has only Abelian symmetry.
 E= -231.675036675018     Delta-E=       -0.000000010602 Rises=F Damp=F
 DIIS: error= 1.14D-05 at cycle  13 NSaved=  13.
 NSaved=13 IEnMin=13 EnMin= -231.675036675018     IErMin=13 ErrMin= 1.14D-05
 ErrMax= 1.14D-05  0.00D+00 EMaxC= 1.00D+00 BMatC= 1.74D-09 BMatP= 8.12D-09
 IDIUse=1 WtCom= 1.00D+00 WtEn= 0.00D+00
 Coeff-Com:  0.696D-05-0.257D-03 0.432D-03 0.285D-03-0.241D-02 0.292D-02
 Coeff-Com:  0.489D-02-0.288D-01 0.903D-01-0.287D+00 0.101D+01-0.266D+01
 Coeff-Com:  0.288D+01
 Coeff:      0.696D-05-0.257D-03 0.432D-03 0.285D-03-0.241D-02 0.292D-02
 Coeff:      0.489D-02-0.288D-01 0.903D-01-0.287D+00 0.101D+01-0.266D+01
 Coeff:      0.288D+01
 Gap=     0.402 Goal=   None    Shift=    0.500
 Gap=     0.244 Goal=   None    Shift=    0.500
 RMSDP=6.83D-07 MaxDP=1.14D-05 DE=-1.06D-08 OVMax= 4.43D-05

 Density matrix breaks symmetry, PCut= 1.00D-04
 Density has only Abelian symmetry.
 SCF Done:  E(ULC-wHPBE) =  -231.675036675     A.U. after   13 cycles
            NFock= 13  Conv=0.68D-06     -V/T= 2.0050
 <Sx>= 0.0000 <Sy>= 0.0000 <Sz>= 0.5000 <S**2>= 0.7829 S= 0.5163
 <L.S>= 0.000000000000E+00
 KE= 2.305305115461D+02 PE=-9.341059957431D+02 EE= 2.687188639823D+02
 Annihilation of the first spin contaminant:
 S**2 before annihilation     0.7829,   after     0.7505
 Leave Link  502 at Mon Mar 16 03:50:37 2020, MaxMem=  6710886400 cpu:              17.2 elap:               1.1
 (Enter /opt/ohpc/pub/libs/gaussian/g16-A.03/sandybridge/g16/l508.exe)
 QCSCF skips out because SCF is already converged.
 Leave Link  508 at Mon Mar 16 03:50:37 2020, MaxMem=  6710886400 cpu:               0.1 elap:               0.0
 (Enter /opt/ohpc/pub/libs/gaussian/g16-A.03/sandybridge/g16/l601.exe)
 Copying SCF densities to generalized density rwf, IOpCl= 1 IROHF=0.
 SCF density gives NOpUse=  8 NOpAll= 24.
 Marking SCF density as not fully symmetric.

 **********************************************************************

            Population analysis using the SCF density.

 **********************************************************************

 Orbital symmetries:
 Alpha Orbitals:
       Occupied  (?A) (?A) (?A) (?A) (?A) (?A) (?B) (?B) (?B) (?B)
                 (?B) (?B) (?B) (?B) (?B) (?B) (?C) (?B) (?B) (?C)
                 (?C)
       Virtual   (?C) (?C) (?B) (?C) (?B) (?B) (?B) (?B) (?B) (?B)
                 (?B) (?B) (?B) (?B) (?C) (?B) (?B) (?B) (?C) (?C)
                 (?B) (?B) (?B) (?C) (?B) (?B) (?C) (?C) (?B) (?B)
                 (?B) (?B) (?B) (?B) (?B) (?B) (?B) (?B) (?B) (?B)
                 (?B) (?B) (?B) (?B) (?B)
 Beta  Orbitals:
       Occupied  (?A) (?A) (?A) (?A) (?A) (?A) (?B) (B2G) (B2G)
                 (?B) (?B) (?B) (B2G) (B2G) (B2G) (B2G) (?C) (?B)
                 (?B) (?D)
       Virtual   (?D) (?C) (?C) (?D) (?D) (B2G) (B2G) (?D) (?D)
                 (B2G) (?D) (?D) (B2G) (B2G) (B2G) (?C) (B2G) (?D)
                 (?D) (?D) (?D) (?D) (?D) (?D) (B2G) (B2G) (E2U)
                 (E2U) (?D) (B2G) (?A) (?A) (B2G) (B2G) (?A) (?D)
                 (B2G) (B2G) (?D) (?D) (B2G) (B2G) (B2G) (E2G)
                 (E2G) (B1U)
 Unable to determine electronic state:  an orbital has unidentified symmetry.
 Alpha  occ. eigenvalues --  -10.35984 -10.35980 -10.35956 -10.35951 -10.32021
 Alpha  occ. eigenvalues --  -10.32017  -1.24107  -1.13440  -1.10661  -0.96180
 Alpha  occ. eigenvalues --   -0.96132  -0.87575  -0.80471  -0.79549  -0.77507
 Alpha  occ. eigenvalues --   -0.75324  -0.74165  -0.67757  -0.67442  -0.62137
 Alpha  occ. eigenvalues --   -0.57790
 Alpha virt. eigenvalues --   -0.17619  -0.13810  -0.00088   0.02728   0.05105
 Alpha virt. eigenvalues --    0.06275   0.08596   0.09729   0.11205   0.18678
 Alpha virt. eigenvalues --    0.19196   0.19899   0.20496   0.38913   0.39861
 Alpha virt. eigenvalues --    0.42170   0.44550   0.44933   0.47976   0.50343
 Alpha virt. eigenvalues --    0.50545   0.51104   0.53779   0.54465   0.55070
 Alpha virt. eigenvalues --    0.55545   0.56615   0.63785   0.74015   0.75449
 Alpha virt. eigenvalues --    0.76919   0.79772   0.81534   0.87284   0.87328
 Alpha virt. eigenvalues --    0.89534   0.89548   1.01387   1.03048   1.07440
 Alpha virt. eigenvalues --    1.08437   1.12747   1.35083   1.35357   1.80346
  Beta  occ. eigenvalues --  -10.35501 -10.35501 -10.35480 -10.35475 -10.32245
  Beta  occ. eigenvalues --  -10.32241  -1.22868  -1.10926  -1.10494  -0.95597
  Beta  occ. eigenvalues --   -0.95159  -0.87264  -0.79996  -0.79093  -0.76940
  Beta  occ. eigenvalues --   -0.75353  -0.68589  -0.67543  -0.67151  -0.57817
  Beta virt. eigenvalues --   -0.33436  -0.11853  -0.11698   0.00109   0.05152
  Beta virt. eigenvalues --    0.05383   0.06326   0.09404   0.09860   0.11509
  Beta virt. eigenvalues --    0.19296   0.19383   0.20385   0.20859   0.39255
  Beta virt. eigenvalues --    0.41466   0.43243   0.44987   0.45295   0.50673
  Beta virt. eigenvalues --    0.50733   0.51253   0.51684   0.54103   0.55816
  Beta virt. eigenvalues --    0.56327   0.56649   0.56897   0.64720   0.74336
  Beta virt. eigenvalues --    0.75828   0.76997   0.80434   0.81537   0.87507
  Beta virt. eigenvalues --    0.87560   0.89812   0.90514   1.02694   1.03313
  Beta virt. eigenvalues --    1.08302   1.08531   1.13226   1.35589   1.36134
  Beta virt. eigenvalues --    1.81069
          Condensed to atoms (all electrons):
               1          2          3          4          5          6
     1  C    4.920251   0.520768  -0.063837  -0.021275  -0.063837   0.520768
     2  C    0.520768   4.969557   0.410155  -0.063837  -0.022259  -0.049940
     3  C   -0.063837   0.410155   4.969557   0.520768  -0.049940  -0.022259
     4  C   -0.021275  -0.063837   0.520768   4.920251   0.520768  -0.063837
     5  C   -0.063837  -0.022259  -0.049940   0.520768   4.969557   0.410155
     6  C    0.520768  -0.049940  -0.022259  -0.063837   0.410155   4.969557
     7  H    0.372026  -0.023182   0.003009   0.000064   0.003009  -0.023182
     8  H   -0.019300   0.366056  -0.027287   0.002762   0.000057   0.002925
     9  H    0.002762  -0.027287   0.366056  -0.019300   0.002925   0.000057
    10  H    0.000064   0.003009  -0.023182   0.372026  -0.023182   0.003009
    11  H    0.002762   0.000057   0.002925  -0.019300   0.366056  -0.027287
    12  H   -0.019300   0.002925   0.000057   0.002762  -0.027287   0.366056
               7          8          9         10         11         12
     1  C    0.372026  -0.019300   0.002762   0.000064   0.002762  -0.019300
     2  C   -0.023182   0.366056  -0.027287   0.003009   0.000057   0.002925
     3  C    0.003009  -0.027287   0.366056  -0.023182   0.002925   0.000057
     4  C    0.000064   0.002762  -0.019300   0.372026  -0.019300   0.002762
     5  C    0.003009   0.000057   0.002925  -0.023182   0.366056  -0.027287
     6  C   -0.023182   0.002925   0.000057   0.003009  -0.027287   0.366056
     7  H    0.409238  -0.002278  -0.000066   0.000002  -0.000066  -0.002278
     8  H   -0.002278   0.399079  -0.001983  -0.000066   0.000004  -0.000063
     9  H   -0.000066  -0.001983   0.399079  -0.002278  -0.000063   0.000004
    10  H    0.000002  -0.000066  -0.002278   0.409238  -0.002278  -0.000066
    11  H   -0.000066   0.000004  -0.000063  -0.002278   0.399079  -0.001983
    12  H   -0.002278  -0.000063   0.000004  -0.000066  -0.001983   0.399079
          Atomic-Atomic Spin Densities.
               1          2          3          4          5          6
     1  C   -0.203724  -0.006571  -0.008091   0.006044  -0.008091  -0.006571
     2  C   -0.006571   0.366065   0.040872  -0.008091  -0.007121  -0.005912
     3  C   -0.008091   0.040872   0.366065  -0.006571  -0.005912  -0.007121
     4  C    0.006044  -0.008091  -0.006571  -0.203724  -0.006571  -0.008091
     5  C   -0.008091  -0.007121  -0.005912  -0.006571   0.366065   0.040872
     6  C   -0.006571  -0.005912  -0.007121  -0.008091   0.040872   0.366065
     7  H    0.001554  -0.000889   0.000134  -0.000043   0.000134  -0.000889
     8  H    0.000107   0.000018  -0.001792  -0.000017  -0.000051   0.000081
     9  H   -0.000017  -0.001792   0.000018   0.000107   0.000081  -0.000051
    10  H   -0.000043   0.000134  -0.000889   0.001554  -0.000889   0.000134
    11  H   -0.000017  -0.000051   0.000081   0.000107   0.000018  -0.001792
    12  H    0.000107   0.000081  -0.000051  -0.000017  -0.001792   0.000018
               7          8          9         10         11         12
     1  C    0.001554   0.000107  -0.000017  -0.000043  -0.000017   0.000107
     2  C   -0.000889   0.000018  -0.001792   0.000134  -0.000051   0.000081
     3  C    0.000134  -0.001792   0.000018  -0.000889   0.000081  -0.000051
     4  C   -0.000043  -0.000017   0.000107   0.001554   0.000107  -0.000017
     5  C    0.000134  -0.000051   0.000081  -0.000889   0.000018  -0.001792
     6  C   -0.000889   0.000081  -0.000051   0.000134  -0.001792   0.000018
     7  H    0.005827  -0.000007   0.000003  -0.000001   0.000003  -0.000007
     8  H   -0.000007  -0.015291  -0.000054   0.000003  -0.000000   0.000005
     9  H    0.000003  -0.000054  -0.015291  -0.000007   0.000005  -0.000000
    10  H   -0.000001   0.000003  -0.000007   0.005827  -0.000007   0.000003
    11  H    0.000003  -0.000000   0.000005  -0.000007  -0.015291  -0.000054
    12  H   -0.000007   0.000005  -0.000000   0.000003  -0.000054  -0.015291
 Mulliken charges and spin densities:
               1          2
     1  C   -0.151851  -0.225314
     2  C   -0.086021   0.376745
     3  C   -0.086021   0.376745
     4  C   -0.151851  -0.225314
     5  C   -0.086021   0.376745
     6  C   -0.086021   0.376745
     7  H    0.263704   0.005820
     8  H    0.280095  -0.016997
     9  H    0.280095  -0.016997
    10  H    0.263704   0.005820
    11  H    0.280095  -0.016997
    12  H    0.280095  -0.016997
 Sum of Mulliken charges =   1.00000   1.00000
 Mulliken charges and spin densities with hydrogens summed into heavy atoms:
               1          2
     1  C    0.111853  -0.219495
     2  C    0.194074   0.359747
     3  C    0.194074   0.359747
     4  C    0.111853  -0.219495
     5  C    0.194074   0.359747
     6  C    0.194074   0.359747
 Electronic spatial extent (au):  <R**2>=            438.4245
 Charge=              1.0000 electrons
 Dipole moment (field-independent basis, Debye):
    X=             -0.0000    Y=              0.0000    Z=             -0.0000  Tot=              0.0000
 Quadrupole moment (field-independent basis, Debye-Ang):
   XX=            -17.8384   YY=            -21.6802   ZZ=            -35.1044
   XY=             -0.0000   XZ=              0.0000   YZ=              0.0000
 Traceless Quadrupole moment (field-independent basis, Debye-Ang):
   XX=              7.0359   YY=              3.1941   ZZ=            -10.2301
   XY=             -0.0000   XZ=              0.0000   YZ=              0.0000
 Octapole moment (field-independent basis, Debye-Ang**2):
  XXX=              0.0000  YYY=              0.0000  ZZZ=              0.0000  XYY=              0.0000
  XXY=              0.0000  XXZ=              0.0000  XZZ=              0.0000  YZZ=              0.0000
  YYZ=              0.0000  XYZ=             -0.0000
 Hexadecapole moment (field-independent basis, Debye-Ang**3):
 XXXX=           -195.1820 YYYY=           -210.3191 ZZZZ=            -34.3254 XXXY=              0.0000
 XXXZ=              0.0000 YYYX=             -0.0000 YYYZ=              0.0000 ZZZX=             -0.0000
 ZZZY=             -0.0000 XXYY=            -65.9713 XXZZ=            -52.1289 YYZZ=            -55.5994
 XXYZ=              0.0000 YYXZ=              0.0000 ZZXY=              0.0000
 N-N= 2.031815835396D+02 E-N=-9.341059976819D+02  KE= 2.305305115461D+02
 Symmetry AG   KE= 7.450699982436D+01
 Symmetry B1G  KE= 3.776129177282D+01
 Symmetry B2G  KE= 1.193086547105D+00
 Symmetry B3G  KE= 2.330962870250D+00
 Symmetry AU   KE=-1.796660778000D-17
 Symmetry B1U  KE= 1.952573560532D+00
 Symmetry B2U  KE= 7.218974426226D+01
 Symmetry B3U  KE= 4.059585270882D+01
 Symmetry AG   SP= 3.387183112116D-15
 Symmetry B1G  SP= 1.221488340840D-14
 Symmetry B2G  SP= 1.000000000000D+00
 Symmetry B3G  SP= 2.266741482015D-15
 Symmetry AU   SP=-3.879556390035D-17
 Symmetry B1U  SP= 3.500699079576D-15
 Symmetry B2U  SP= 8.631045503955D-15
 Symmetry B3U  SP= 1.564907600206D-14
                          Isotropic Fermi Contact Couplings
        Atom                 a.u.       MegaHertz       Gauss      10(-4) cm-1
     1  C(13)             -0.03461     -38.90712     -13.88303     -12.97802
     2  C(13)              0.04492      50.49450      18.01769      16.84315
     3  C(13)              0.04492      50.49450      18.01769      16.84315
     4  C(13)             -0.03461     -38.90712     -13.88303     -12.97802
     5  C(13)              0.04492      50.49450      18.01769      16.84315
     6  C(13)              0.04492      50.49450      18.01769      16.84315
     7  H(1)               0.00230      10.26893       3.66421       3.42535
     8  H(1)              -0.00666     -29.75122     -10.61598      -9.92394
     9  H(1)              -0.00666     -29.75122     -10.61598      -9.92394
    10  H(1)               0.00230      10.26893       3.66421       3.42535
    11  H(1)              -0.00666     -29.75122     -10.61598      -9.92394
    12  H(1)              -0.00666     -29.75122     -10.61598      -9.92394
 --------------------------------------------------------
       Center         ----  Spin Dipole Couplings  ----
                      3XX-RR        3YY-RR        3ZZ-RR
 --------------------------------------------------------
     1   Atom        0.077873      0.070204     -0.148077
     2   Atom       -0.191150     -0.184241      0.375391
     3   Atom       -0.191150     -0.184241      0.375391
     4   Atom        0.077873      0.070204     -0.148077
     5   Atom       -0.191150     -0.184241      0.375391
     6   Atom       -0.191150     -0.184241      0.375391
     7   Atom        0.007502     -0.001935     -0.005567
     8   Atom        0.011261     -0.003721     -0.007540
     9   Atom        0.011261     -0.003721     -0.007540
    10   Atom        0.007502     -0.001935     -0.005567
    11   Atom        0.011261     -0.003721     -0.007540
    12   Atom        0.011261     -0.003721     -0.007540
 --------------------------------------------------------
                        XY            XZ            YZ
 --------------------------------------------------------
     1   Atom        0.000000     -0.000000      0.000000
     2   Atom       -0.005019     -0.000000     -0.000000
     3   Atom        0.005019     -0.000000      0.000000
     4   Atom       -0.000000     -0.000000     -0.000000
     5   Atom       -0.005019      0.000000      0.000000
     6   Atom        0.005019      0.000000     -0.000000
     7   Atom        0.000000     -0.000000     -0.000000
     8   Atom       -0.029008     -0.000000      0.000000
     9   Atom        0.029008     -0.000000     -0.000000
    10   Atom        0.000000      0.000000      0.000000
    11   Atom       -0.029008      0.000000     -0.000000
    12   Atom        0.029008      0.000000      0.000000
 --------------------------------------------------------


 ---------------------------------------------------------------------------------
              Anisotropic Spin Dipole Couplings in Principal Axis System
 ---------------------------------------------------------------------------------

       Atom             a.u.   MegaHertz   Gauss  10(-4) cm-1        Axes

              Baa    -0.1481   -19.871    -7.090    -6.628  0.0000  0.0000  1.0000
     1 C(13)  Bbb     0.0702     9.421     3.362     3.142 -0.0000  1.0000  0.0000
              Bcc     0.0779    10.450     3.729     3.486  1.0000  0.0000  0.0000
 
              Baa    -0.1938   -26.005    -9.279    -8.674  0.8852  0.4653 -0.0000
     2 C(13)  Bbb    -0.1816   -24.369    -8.696    -8.129 -0.4653  0.8852 -0.0000
              Bcc     0.3754    50.374    17.975    16.803  0.0000  0.0000  1.0000
 
              Baa    -0.1938   -26.005    -9.279    -8.674  0.8852 -0.4653  0.0000
     3 C(13)  Bbb    -0.1816   -24.369    -8.696    -8.129  0.4653  0.8852 -0.0000
              Bcc     0.3754    50.374    17.975    16.803  0.0000  0.0000  1.0000
 
              Baa    -0.1481   -19.871    -7.090    -6.628  0.0000  0.0000  1.0000
     4 C(13)  Bbb     0.0702     9.421     3.362     3.142  0.0000  1.0000 -0.0000
              Bcc     0.0779    10.450     3.729     3.486  1.0000 -0.0000 -0.0000
 
              Baa    -0.1938   -26.005    -9.279    -8.674  0.8852  0.4653 -0.0000
     5 C(13)  Bbb    -0.1816   -24.369    -8.696    -8.129 -0.4653  0.8852 -0.0000
              Bcc     0.3754    50.374    17.975    16.803  0.0000  0.0000  1.0000
 
              Baa    -0.1938   -26.005    -9.279    -8.674  0.8852 -0.4653  0.0000
     6 C(13)  Bbb    -0.1816   -24.369    -8.696    -8.129  0.4653  0.8852 -0.0000
              Bcc     0.3754    50.374    17.975    16.803  0.0000  0.0000  1.0000
 
              Baa    -0.0056    -2.970    -1.060    -0.991  0.0000  0.0000  1.0000
     7 H(1)   Bbb    -0.0019    -1.033    -0.368    -0.344 -0.0000  1.0000 -0.0000
              Bcc     0.0075     4.003     1.428     1.335  1.0000  0.0000 -0.0000
 
              Baa    -0.0262   -13.974    -4.986    -4.661  0.6124  0.7906  0.0000
     8 H(1)   Bbb    -0.0075    -4.023    -1.435    -1.342  0.0000  0.0000  1.0000
              Bcc     0.0337    17.997     6.422     6.003  0.7906 -0.6124  0.0000
 
              Baa    -0.0262   -13.974    -4.986    -4.661 -0.6124  0.7906  0.0000
     9 H(1)   Bbb    -0.0075    -4.023    -1.435    -1.342  0.0000  0.0000  1.0000
              Bcc     0.0337    17.997     6.422     6.003  0.7906  0.6124 -0.0000
 
              Baa    -0.0056    -2.970    -1.060    -0.991  0.0000  0.0000  1.0000
    10 H(1)   Bbb    -0.0019    -1.033    -0.368    -0.344 -0.0000  1.0000 -0.0000
              Bcc     0.0075     4.003     1.428     1.335  1.0000  0.0000 -0.0000
 
              Baa    -0.0262   -13.974    -4.986    -4.661  0.6124  0.7906  0.0000
    11 H(1)   Bbb    -0.0075    -4.023    -1.435    -1.342  0.0000  0.0000  1.0000
              Bcc     0.0337    17.997     6.422     6.003  0.7906 -0.6124  0.0000
 
              Baa    -0.0262   -13.974    -4.986    -4.661 -0.6124  0.7906  0.0000
    12 H(1)   Bbb    -0.0075    -4.023    -1.435    -1.342  0.0000  0.0000  1.0000
              Bcc     0.0337    17.997     6.422     6.003  0.7906  0.6124 -0.0000
 

 ---------------------------------------------------------------------------------

 No NMR shielding tensors so no spin-rotation constants.
 Leave Link  601 at Mon Mar 16 03:50:38 2020, MaxMem=  6710886400 cpu:               3.2 elap:               0.2
 (Enter /opt/ohpc/pub/libs/gaussian/g16-A.03/sandybridge/g16/l9999.exe)

 Test job not archived.
 1\1\GINC-CNODE145\SP\ULC-wHPBE\6-31G\C6H6(1+,2)\QAI222\16-Mar-2020\0\\
 #P uLC-wHPBE/6-31G iop(3/107=0361300000, 3/108=0361300000) scf=(conver
 =6,fermi,ndamp=35,noincfock,novaracc,vshift=500,xqc)\\H6 C6\\1,2\C,0,0
 .,1.396379,0.\C,0,-1.2093,0.69819,0.\C,0,-1.2093,-0.69819,0.\C,0,0.,-1
 .396379,0.\C,0,1.2093,-0.69819,0.\C,0,1.2093,0.69819,0.\H,0,0.,2.48461
 3,0.\H,0,-2.151738,1.242306,0.\H,0,-2.151738,-1.242306,0.\H,0,0.,-2.48
 4613,0.\H,0,2.151738,-1.242306,0.\H,0,2.151738,1.242306,0.\\Version=EM
 64L-G16RevA.03\HF=-231.6750367\S2=0.782856\S2-1=0.\S2A=0.75051\RMSD=6.
 829e-07\Dipole=0.,0.,0.\Quadrupole=5.2310468,2.3747587,-7.6058056,0.,0
 .,0.\PG=D06H [3C2'(H1C1.C1H1)]\\@


 The number of Unix installations has grown to 10,
  with more expected.
                  -- The Unix Programmer's Manual,
                     2nd Edition, June, 1972.
 Job cpu time:       0 days  0 hours  0 minutes 44.3 seconds.
 Elapsed time:       0 days  0 hours  0 minutes  3.5 seconds.
 File lengths (MBytes):  RWF=    272 Int=      0 D2E=      0 Chk=     32 Scr=     32
 Normal termination of Gaussian 16 at Mon Mar 16 03:50:38 2020.
