 Entering Gaussian System, Link 0=g16
 Input=1b_tune_n5.gjf
 Output=1b_tune_n5.log
 Initial command:
 /opt/ohpc/pub/libs/gaussian/g16-A.03/sandybridge/g16/l1.exe "/pscratch/cmri235_uksr/ocelot/fw/dev/ocelot_api/tests/wtuning_test/1b/tuning_1b_ocycle1/Gau-65006.inp" -scrdir="/pscratch/cmri235_uksr/ocelot/fw/dev/ocelot_api/tests/wtuning_test/1b/tuning_1b_ocycle1/"
 Entering Link 1 = /opt/ohpc/pub/libs/gaussian/g16-A.03/sandybridge/g16/l1.exe PID=     65007.
  
 Copyright (c) 1988,1990,1992,1993,1995,1998,2003,2009,2016,
            Gaussian, Inc.  All Rights Reserved.
  
 This is part of the Gaussian(R) 16 program.  It is based on
 the Gaussian(R) 09 system (copyright 2009, Gaussian, Inc.),
 the Gaussian(R) 03 system (copyright 2003, Gaussian, Inc.),
 the Gaussian(R) 98 system (copyright 1998, Gaussian, Inc.),
 the Gaussian(R) 94 system (copyright 1995, Gaussian, Inc.),
 the Gaussian 92(TM) system (copyright 1992, Gaussian, Inc.),
 the Gaussian 90(TM) system (copyright 1990, Gaussian, Inc.),
 the Gaussian 88(TM) system (copyright 1988, Gaussian, Inc.),
 the Gaussian 86(TM) system (copyright 1986, Carnegie Mellon
 University), and the Gaussian 82(TM) system (copyright 1983,
 Carnegie Mellon University). Gaussian is a federally registered
 trademark of Gaussian, Inc.
  
 This software contains proprietary and confidential information,
 including trade secrets, belonging to Gaussian, Inc.
  
 This software is provided under written license and may be
 used, copied, transmitted, or stored only in accord with that
 written license.
  
 The following legend is applicable only to US Government
 contracts under FAR:
  
                    RESTRICTED RIGHTS LEGEND
  
 Use, reproduction and disclosure by the US Government is
 subject to restrictions as set forth in subparagraphs (a)
 and (c) of the Commercial Computer Software - Restricted
 Rights clause in FAR 52.227-19.
  
 Gaussian, Inc.
 340 Quinnipiac St., Bldg. 40, Wallingford CT 06492
  
  
 ---------------------------------------------------------------
 Warning -- This program may not be used in any manner that
 competes with the business of Gaussian, Inc. or will provide
 assistance to any competitor of Gaussian, Inc.  The licensee
 of this program is prohibited from giving any competitor of
 Gaussian, Inc. access to this program.  By using this program,
 the user acknowledges that Gaussian, Inc. is engaged in the
 business of creating and licensing software in the field of
 computational chemistry and represents and warrants to the
 licensee that it is not a competitor of Gaussian, Inc. and that
 it will not use this program in any manner prohibited above.
 ---------------------------------------------------------------
  

 Cite this work as:
 Gaussian 16, Revision A.03,
 M. J. Frisch, G. W. Trucks, H. B. Schlegel, G. E. Scuseria, 
 M. A. Robb, J. R. Cheeseman, G. Scalmani, V. Barone, 
 G. A. Petersson, H. Nakatsuji, X. Li, M. Caricato, A. V. Marenich, 
 J. Bloino, B. G. Janesko, R. Gomperts, B. Mennucci, H. P. Hratchian, 
 J. V. Ortiz, A. F. Izmaylov, J. L. Sonnenberg, D. Williams-Young, 
 F. Ding, F. Lipparini, F. Egidi, J. Goings, B. Peng, A. Petrone, 
 T. Henderson, D. Ranasinghe, V. G. Zakrzewski, J. Gao, N. Rega, 
 G. Zheng, W. Liang, M. Hada, M. Ehara, K. Toyota, R. Fukuda, 
 J. Hasegawa, M. Ishida, T. Nakajima, Y. Honda, O. Kitao, H. Nakai, 
 T. Vreven, K. Throssell, J. A. Montgomery, Jr., J. E. Peralta, 
 F. Ogliaro, M. J. Bearpark, J. J. Heyd, E. N. Brothers, K. N. Kudin, 
 V. N. Staroverov, T. A. Keith, R. Kobayashi, J. Normand, 
 K. Raghavachari, A. P. Rendell, J. C. Burant, S. S. Iyengar, 
 J. Tomasi, M. Cossi, J. M. Millam, M. Klene, C. Adamo, R. Cammi, 
 J. W. Ochterski, R. L. Martin, K. Morokuma, O. Farkas, 
 J. B. Foresman, and D. J. Fox, Gaussian, Inc., Wallingford CT, 2016.
 
 ******************************************
 Gaussian 16:  EM64L-G16RevA.03 25-Dec-2016
                16-Mar-2020 
 ******************************************
 %mem=50GB
 %nproc=16
 Will use up to   16 processors via shared memory.
 ----------------------------------------------------------------------
 #P uLC-wHPBE/6-31G iop(3/107=0298000000, 3/108=0298000000) scf=(conver
 =6,fermi,ndamp=35,noincfock,novaracc,vshift=500,xqc)
 ----------------------------------------------------------------------
 1/38=1,172=1/1;
 2/12=2,17=6,18=5,40=1/2;
 3/5=1,6=6,11=2,25=1,30=1,74=-71,107=298000000,108=298000000,116=2/1,2,3;
 4//1;
 5/5=100002,6=6,8=3,10=500,13=1,18=-1,22=13,38=1,93=35/2,8;
 6/7=2,8=2,9=2,10=2,28=1/1;
 99/5=1,9=1/99;
 Leave Link    1 at Mon Mar 16 03:50:58 2020, MaxMem=  6710886400 cpu:              13.1 elap:               0.9
 (Enter /opt/ohpc/pub/libs/gaussian/g16-A.03/sandybridge/g16/l101.exe)
 -----
 H6 C6
 -----
 Symbolic Z-matrix:
 Charge =  0 Multiplicity = 1
 C                     0.        1.39638   0. 
 C                    -1.2093    0.69819   0. 
 C                    -1.2093   -0.69819   0. 
 C                     0.       -1.39638   0. 
 C                     1.2093   -0.69819   0. 
 C                     1.2093    0.69819   0. 
 H                     0.        2.48461   0. 
 H                    -2.15174   1.24231   0. 
 H                    -2.15174  -1.24231   0. 
 H                     0.       -2.48461   0. 
 H                     2.15174  -1.24231   0. 
 H                     2.15174   1.24231   0. 
 
 ITRead=  0  0  0  0  0  0  0  0  0  0  0  0
 MicOpt= -1 -1 -1 -1 -1 -1 -1 -1 -1 -1 -1 -1
 NAtoms=     12 NQM=       12 NQMF=       0 NMMI=      0 NMMIF=      0
                NMic=       0 NMicF=      0.
                    Isotopes and Nuclear Properties:
 (Nuclear quadrupole moments (NQMom) in fm**2, nuclear magnetic moments (NMagM)
  in nuclear magnetons)

  Atom         1           2           3           4           5           6           7           8           9          10
 IAtWgt=          12          12          12          12          12          12           1           1           1           1
 AtmWgt=  12.0000000  12.0000000  12.0000000  12.0000000  12.0000000  12.0000000   1.0078250   1.0078250   1.0078250   1.0078250
 NucSpn=           0           0           0           0           0           0           1           1           1           1
 AtZEff=  -0.0000000  -0.0000000  -0.0000000  -0.0000000  -0.0000000  -0.0000000  -0.0000000  -0.0000000  -0.0000000  -0.0000000
 NQMom=    0.0000000   0.0000000   0.0000000   0.0000000   0.0000000   0.0000000   0.0000000   0.0000000   0.0000000   0.0000000
 NMagM=    0.0000000   0.0000000   0.0000000   0.0000000   0.0000000   0.0000000   2.7928460   2.7928460   2.7928460   2.7928460
 AtZNuc=   6.0000000   6.0000000   6.0000000   6.0000000   6.0000000   6.0000000   1.0000000   1.0000000   1.0000000   1.0000000

  Atom        11          12
 IAtWgt=           1           1
 AtmWgt=   1.0078250   1.0078250
 NucSpn=           1           1
 AtZEff=  -0.0000000  -0.0000000
 NQMom=    0.0000000   0.0000000
 NMagM=    2.7928460   2.7928460
 AtZNuc=   1.0000000   1.0000000
 Leave Link  101 at Mon Mar 16 03:50:58 2020, MaxMem=  6710886400 cpu:               2.8 elap:               0.2
 (Enter /opt/ohpc/pub/libs/gaussian/g16-A.03/sandybridge/g16/l202.exe)
                          Input orientation:                          
 ---------------------------------------------------------------------
 Center     Atomic      Atomic             Coordinates (Angstroms)
 Number     Number       Type             X           Y           Z
 ---------------------------------------------------------------------
      1          6           0        0.000000    1.396379    0.000000
      2          6           0       -1.209300    0.698190    0.000000
      3          6           0       -1.209300   -0.698190    0.000000
      4          6           0        0.000000   -1.396379    0.000000
      5          6           0        1.209300   -0.698190    0.000000
      6          6           0        1.209300    0.698190    0.000000
      7          1           0        0.000000    2.484613    0.000000
      8          1           0       -2.151738    1.242306    0.000000
      9          1           0       -2.151738   -1.242306    0.000000
     10          1           0        0.000000   -2.484613    0.000000
     11          1           0        2.151738   -1.242306    0.000000
     12          1           0        2.151738    1.242306    0.000000
 ---------------------------------------------------------------------
                    Distance matrix (angstroms):
                    1          2          3          4          5
     1  C    0.000000
     2  C    1.396379   0.000000
     3  C    2.418600   1.396380   0.000000
     4  C    2.792758   2.418600   1.396379   0.000000
     5  C    2.418600   2.792759   2.418600   1.396379   0.000000
     6  C    1.396379   2.418600   2.792759   2.418600   1.396380
     7  H    1.088234   2.157247   3.404797   3.880992   3.404797
     8  H    2.157247   1.088233   2.157247   3.404796   3.880992
     9  H    3.404796   2.157247   1.088233   2.157247   3.404796
    10  H    3.880992   3.404797   2.157247   1.088234   2.157247
    11  H    3.404796   3.880992   3.404796   2.157247   1.088233
    12  H    2.157247   3.404796   3.880992   3.404796   2.157247
                    6          7          8          9         10
     6  C    0.000000
     7  H    2.157247   0.000000
     8  H    3.404796   2.484613   0.000000
     9  H    3.880992   4.303476   2.484612   0.000000
    10  H    3.404797   4.969226   4.303476   2.484613   0.000000
    11  H    2.157247   4.303476   4.969226   4.303476   2.484613
    12  H    1.088233   2.484613   4.303476   4.969226   4.303476
                   11         12
    11  H    0.000000
    12  H    2.484612   0.000000
 Stoichiometry    C6H6
 Framework group  D6H[3C2'(HC.CH)]
 Deg. of freedom     2
 Full point group                 D6H     NOp  24
 Largest Abelian subgroup         D2H     NOp   8
 Largest concise Abelian subgroup D2      NOp   4
                         Standard orientation:                         
 ---------------------------------------------------------------------
 Center     Atomic      Atomic             Coordinates (Angstroms)
 Number     Number       Type             X           Y           Z
 ---------------------------------------------------------------------
      1          6           0       -0.000000    1.396379   -0.000000
      2          6           0       -1.209300    0.698190   -0.000000
      3          6           0       -1.209300   -0.698189   -0.000000
      4          6           0       -0.000000   -1.396379   -0.000000
      5          6           0        1.209300   -0.698190   -0.000000
      6          6           0        1.209300    0.698189   -0.000000
      7          1           0       -0.000000    2.484613   -0.000000
      8          1           0       -2.151738    1.242307   -0.000000
      9          1           0       -2.151738   -1.242307   -0.000000
     10          1           0       -0.000000   -2.484613   -0.000000
     11          1           0        2.151738   -1.242307   -0.000000
     12          1           0        2.151738    1.242306   -0.000000
 ---------------------------------------------------------------------
 Rotational constants (GHZ):           5.6873431           5.6873431           2.8436715
 Leave Link  202 at Mon Mar 16 03:50:58 2020, MaxMem=  6710886400 cpu:               0.3 elap:               0.0
 (Enter /opt/ohpc/pub/libs/gaussian/g16-A.03/sandybridge/g16/l301.exe)
 Standard basis: 6-31G (6D, 7F)
 Ernie: Thresh=  0.10000D-02 Tol=  0.10000D-05 Strict=F.
 There are    16 symmetry adapted cartesian basis functions of AG  symmetry.
 There are    11 symmetry adapted cartesian basis functions of B1G symmetry.
 There are     2 symmetry adapted cartesian basis functions of B2G symmetry.
 There are     4 symmetry adapted cartesian basis functions of B3G symmetry.
 There are     2 symmetry adapted cartesian basis functions of AU  symmetry.
 There are     4 symmetry adapted cartesian basis functions of B1U symmetry.
 There are    16 symmetry adapted cartesian basis functions of B2U symmetry.
 There are    11 symmetry adapted cartesian basis functions of B3U symmetry.
 There are    16 symmetry adapted basis functions of AG  symmetry.
 There are    11 symmetry adapted basis functions of B1G symmetry.
 There are     2 symmetry adapted basis functions of B2G symmetry.
 There are     4 symmetry adapted basis functions of B3G symmetry.
 There are     2 symmetry adapted basis functions of AU  symmetry.
 There are     4 symmetry adapted basis functions of B1U symmetry.
 There are    16 symmetry adapted basis functions of B2U symmetry.
 There are    11 symmetry adapted basis functions of B3U symmetry.
    66 basis functions,   156 primitive gaussians,    66 cartesian basis functions
    21 alpha electrons       21 beta electrons
       nuclear repulsion energy       203.1815835396 Hartrees.
 IExCor=33909 DFT=T Ex+Corr=LC-wHPBE ExCW=0 ScaHFX=  1.000000
 ScaDFX=  1.000000  1.000000  1.000000  1.000000 ScalE2=  1.000000  1.000000
 IRadAn=      5 IRanWt=     -1 IRanGd=            0 ICorTp=0 IEmpDi=  4
 HFx  wShort=  0.000000 wLong=  0.298000 cFull=  0.000000 cShort=  0.000000 cLong=  1.000000
 DFx  wShort=  0.000000 wLong=  0.298000 cFull=  0.000000 cShort=  1.000000 cLong=  0.000000
 NAtoms=   12 NActive=   12 NUniq=    2 SFac= 4.00D+00 NAtFMM=   60 NAOKFM=F Big=F
 Integral buffers will be    131072 words long.
 Raffenetti 2 integral format.
 Two-electron integral symmetry is turned on.
 Leave Link  301 at Mon Mar 16 03:50:58 2020, MaxMem=  6710886400 cpu:               1.0 elap:               0.1
 (Enter /opt/ohpc/pub/libs/gaussian/g16-A.03/sandybridge/g16/l302.exe)
 NPDir=0 NMtPBC=     1 NCelOv=     1 NCel=       1 NClECP=     1 NCelD=      1
         NCelK=      1 NCelE2=     1 NClLst=     1 CellRange=     0.0.
 One-electron integrals computed using PRISM.
 One-electron integral symmetry used in STVInt
 NBasis=    66 RedAO= T EigKep=  7.02D-04  NBF=    16    11     2     4     2     4    16    11
 NBsUse=    66 1.00D-06 EigRej= -1.00D+00 NBFU=    16    11     2     4     2     4    16    11
 Precomputing XC quadrature grid using
 IXCGrd= 4 IRadAn=           5 IRanWt=          -1 IRanGd=           0 AccXCQ= 0.00D+00.
 Generated NRdTot=       0 NPtTot=           0 NUsed=           0 NTot=          32
 NSgBfM=    66    66    66    66    66 MxSgAt=    12 MxSgA2=    12.
 Leave Link  302 at Mon Mar 16 03:50:58 2020, MaxMem=  6710886400 cpu:               2.5 elap:               0.2
 (Enter /opt/ohpc/pub/libs/gaussian/g16-A.03/sandybridge/g16/l303.exe)
 DipDrv:  MaxL=1.
 Leave Link  303 at Mon Mar 16 03:50:59 2020, MaxMem=  6710886400 cpu:               0.6 elap:               0.1
 (Enter /opt/ohpc/pub/libs/gaussian/g16-A.03/sandybridge/g16/l401.exe)
 ExpMin= 1.61D-01 ExpMax= 3.05D+03 ExpMxC= 4.57D+02 IAcc=3 IRadAn=         5 AccDes= 0.00D+00
 Harris functional with IExCor=33909 and IRadAn=       5 diagonalized for initial guess.
 HarFok:  IExCor=33909 AccDes= 0.00D+00 IRadAn=         5 IDoV= 1 UseB2=F ITyADJ=14
 ICtDFT=  3500011 ScaDFX=  1.000000  1.000000  1.000000  1.000000
 FoFCou: FMM=F IPFlag=           0 FMFlag=      100000 FMFlg1=           0
         NFxFlg=           0 DoJE=T BraDBF=F KetDBF=T FulRan=T
         wScrn=  0.000000 ICntrl=       500 IOpCl=  0 I1Cent=   200000004 NGrid=           0
         NMat0=    1 NMatS0=      1 NMatT0=    0 NMatD0=    1 NMtDS0=    0 NMtDT0=    0
 Petite list used in FoFCou.
 Harris En= -225.597064606512    
 JPrj=0 DoOrth=F DoCkMO=F.
 Initial guess orbital symmetries:
 Alpha Orbitals:
       Occupied  (A1G) (E1U) (E1U) (E2G) (E2G) (B1U) (A1G) (E1U)
                 (E1U) (E2G) (E2G) (A1G) (B2U) (B1U) (E1U) (E1U)
                 (A2U) (E2G) (E2G) (E1G) (E1G)
       Virtual   (E2U) (E2U) (A1G) (B2G) (E1U) (E1U) (E2G) (E2G)
                 (B1U) (E2G) (E2G) (E1U) (E1U) (B2U) (A2U) (B1U)
                 (A2G) (A1G) (E2G) (E2G) (E1G) (E1G) (A1G) (E1U)
                 (E1U) (E2U) (E2U) (B2G) (B1U) (E2G) (E2G) (E1U)
                 (E1U) (A2G) (A1G) (E1U) (E1U) (E2G) (E2G) (E1U)
                 (E1U) (B1U) (E2G) (E2G) (B1U)
 Beta  Orbitals:
       Occupied  (A1G) (E1U) (E1U) (E2G) (E2G) (B1U) (A1G) (E1U)
                 (E1U) (E2G) (E2G) (A1G) (B2U) (B1U) (E1U) (E1U)
                 (A2U) (E2G) (E2G) (E1G) (E1G)
       Virtual   (E2U) (E2U) (A1G) (B2G) (E1U) (E1U) (E2G) (E2G)
                 (B1U) (E2G) (E2G) (E1U) (E1U) (B2U) (A2U) (B1U)
                 (A2G) (A1G) (E2G) (E2G) (E1G) (E1G) (A1G) (E1U)
                 (E1U) (E2U) (E2U) (B2G) (B1U) (E2G) (E2G) (E1U)
                 (E1U) (A2G) (A1G) (E1U) (E1U) (E2G) (E2G) (E1U)
                 (E1U) (B1U) (E2G) (E2G) (B1U)
 The electronic state of the initial guess is 1-A1G.
 Initial guess <Sx>= 0.0000 <Sy>= 0.0000 <Sz>= 0.0000 <S**2>= 0.0000 S= 0.0000
 Leave Link  401 at Mon Mar 16 03:50:59 2020, MaxMem=  6710886400 cpu:               2.9 elap:               0.2
 (Enter /opt/ohpc/pub/libs/gaussian/g16-A.03/sandybridge/g16/l502.exe)
 Keep R1 and R2 ints in memory in symmetry-blocked form, NReq=19109854.
 FoFCou: FMM=F IPFlag=           0 FMFlag=           0 FMFlg1=           0
         NFxFlg=           0 DoJE=F BraDBF=F KetDBF=F FulRan=T
         wScrn=  0.000000 ICntrl=       600 IOpCl=  0 I1Cent=           0 NGrid=           0
         NMat0=    1 NMatS0=   2211 NMatT0=    0 NMatD0=    1 NMtDS0=    0 NMtDT0=    0
 Petite list used in FoFCou.
 UHF open shell SCF:
 Using DIIS extrapolation, IDIIS=    10.
 NGot=  6710886400 LenX=  6710146038 LenY=  6710141241
 Requested convergence on RMS density matrix=1.00D-06 within  32 cycles.
 Requested convergence on MAX density matrix=1.00D-04.
 Requested convergence on             energy=1.00D-04.
 Virtual orbitals will be shifted by   0.500 hartree.
 No special actions if energy rises.
 Dynamic level shift is on during FON iterations.

 Cycle   1  Pass 1  IDiag  1:
 E= -231.932746333218    
 DIIS: error= 3.61D-02 at cycle   1 NSaved=   1.
 NSaved= 1 IEnMin= 1 EnMin= -231.932746333218     IErMin= 1 ErrMin= 3.61D-02
 ErrMax= 3.61D-02  0.00D+00 EMaxC= 1.00D+00 BMatC= 2.38D-01 BMatP= 2.38D-01
 IDIUse=1 WtCom= 1.00D+00 WtEn= 0.00D+00
 Coeff-Com:  0.100D+01
 Coeff:      0.100D+01
 Gap=     0.418 Goal=   None    Shift=    0.500
 T= 1608. Gap= 0.911 NK=0 IS=   22 IE=   66 IFin=   21
          NO(<0.9)=   0  NV(>0.1)=   0     21.00e < EF      0.00e >EF  Err=0.0D+00
 Gap=     0.418 Goal=   None    Shift=    0.500
 T= 1608. Gap= 0.911 NK=0 IS=   22 IE=   66 IFin=   21
          NO(<0.9)=   0  NV(>0.1)=   0     21.00e < EF      0.00e >EF  Err=0.0D+00
 GapD=    0.418 DampG=2.000 DampE=0.500 DampFc=1.0000 IDamp=-1.
 RMSDP=4.11D-03 MaxDP=3.92D-02              OVMax= 4.91D-02

 Cycle   2  Pass 1  IDiag  1:
 E= -232.003965354132     Delta-E=       -0.071219020914 Rises=F Damp=F
 DIIS: error= 4.29D-03 at cycle   2 NSaved=   2.
 NSaved= 2 IEnMin= 2 EnMin= -232.003965354132     IErMin= 2 ErrMin= 4.29D-03
 ErrMax= 4.29D-03  0.00D+00 EMaxC= 1.00D+00 BMatC= 5.15D-03 BMatP= 2.38D-01
 IDIUse=1 WtCom= 1.00D+00 WtEn= 0.00D+00
 Coeff-Com:  0.747D-01 0.925D+00
 Coeff:      0.747D-01 0.925D+00
 Gap=     0.420 Goal=   None    Shift=    0.500
 T= 1399. Gap= 0.918 NK=0 IS=   22 IE=   66 IFin=   21
          NO(<0.9)=   0  NV(>0.1)=   0     21.00e < EF      0.00e >EF  Err=0.0D+00
 Gap=     0.420 Goal=   None    Shift=    0.500
 T= 1399. Gap= 0.918 NK=0 IS=   22 IE=   66 IFin=   21
          NO(<0.9)=   0  NV(>0.1)=   0     21.00e < EF      0.00e >EF  Err=0.0D+00
 GapD=    0.420 DampG=2.000 DampE=1.000 DampFc=2.0000 IDamp=-1.
 RMSDP=7.84D-04 MaxDP=5.92D-03 DE=-7.12D-02 OVMax= 5.10D-03

 Cycle   3  Pass 1  IDiag  1:
 E= -232.005297628534     Delta-E=       -0.001332274402 Rises=F Damp=F
 DIIS: error= 1.57D-03 at cycle   3 NSaved=   3.
 NSaved= 3 IEnMin= 3 EnMin= -232.005297628534     IErMin= 3 ErrMin= 1.57D-03
 ErrMax= 1.57D-03  0.00D+00 EMaxC= 1.00D+00 BMatC= 5.83D-04 BMatP= 5.15D-03
 IDIUse=1 WtCom= 1.00D+00 WtEn= 0.00D+00
 Coeff-Com:  0.648D-02-0.365D+00 0.136D+01
 Coeff:      0.648D-02-0.365D+00 0.136D+01
 Gap=     0.418 Goal=   None    Shift=    0.500
 T= 1039. Gap= 0.918 NK=0 IS=   22 IE=   66 IFin=   21
          NO(<0.9)=   0  NV(>0.1)=   0     21.00e < EF      0.00e >EF  Err=0.0D+00
 Gap=     0.418 Goal=   None    Shift=    0.500
 T= 1039. Gap= 0.918 NK=0 IS=   22 IE=   66 IFin=   21
          NO(<0.9)=   0  NV(>0.1)=   0     21.00e < EF      0.00e >EF  Err=0.0D+00
 GapD=    0.418 DampG=2.000 DampE=1.000 DampFc=2.0000 IDamp=-1.
 RMSDP=3.94D-04 MaxDP=3.08D-03 DE=-1.33D-03 OVMax= 2.48D-03

 Cycle   4  Pass 1  IDiag  1:
 E= -232.005516747985     Delta-E=       -0.000219119451 Rises=F Damp=F
 DIIS: error= 6.27D-04 at cycle   4 NSaved=   4.
 NSaved= 4 IEnMin= 4 EnMin= -232.005516747985     IErMin= 4 ErrMin= 6.27D-04
 ErrMax= 6.27D-04  0.00D+00 EMaxC= 1.00D+00 BMatC= 7.19D-05 BMatP= 5.83D-04
 IDIUse=1 WtCom= 1.00D+00 WtEn= 0.00D+00
 Coeff-Com: -0.330D-02 0.756D-01-0.810D+00 0.174D+01
 Coeff:     -0.330D-02 0.756D-01-0.810D+00 0.174D+01
 Gap=     0.418 Goal=   None    Shift=    0.500
 Gap=     0.418 Goal=   None    Shift=    0.500
 RMSDP=2.03D-04 MaxDP=1.42D-03 DE=-2.19D-04 OVMax= 1.23D-03

 Cycle   5  Pass 1  IDiag  1:
 E= -232.005552140521     Delta-E=       -0.000035392536 Rises=F Damp=F
 DIIS: error= 2.46D-04 at cycle   5 NSaved=   5.
 NSaved= 5 IEnMin= 5 EnMin= -232.005552140521     IErMin= 5 ErrMin= 2.46D-04
 ErrMax= 2.46D-04  0.00D+00 EMaxC= 1.00D+00 BMatC= 8.18D-06 BMatP= 7.19D-05
 IDIUse=1 WtCom= 1.00D+00 WtEn= 0.00D+00
 Coeff-Com: -0.105D-02-0.290D-01 0.426D+00-0.172D+01 0.232D+01
 Coeff:     -0.105D-02-0.290D-01 0.426D+00-0.172D+01 0.232D+01
 Gap=     0.418 Goal=   None    Shift=    0.500
 Gap=     0.418 Goal=   None    Shift=    0.500
 RMSDP=8.95D-05 MaxDP=5.32D-04 DE=-3.54D-05 OVMax= 5.65D-04

 Cycle   6  Pass 1  IDiag  1:
 E= -232.005557191587     Delta-E=       -0.000005051066 Rises=F Damp=F
 DIIS: error= 9.48D-05 at cycle   6 NSaved=   6.
 NSaved= 6 IEnMin= 6 EnMin= -232.005557191587     IErMin= 6 ErrMin= 9.48D-05
 ErrMax= 9.48D-05  0.00D+00 EMaxC= 1.00D+00 BMatC= 1.09D-06 BMatP= 8.18D-06
 IDIUse=1 WtCom= 1.00D+00 WtEn= 0.00D+00
 Coeff-Com: -0.186D-03 0.996D-02-0.144D+00 0.737D+00-0.208D+01 0.248D+01
 Coeff:     -0.186D-03 0.996D-02-0.144D+00 0.737D+00-0.208D+01 0.248D+01
 Gap=     0.418 Goal=   None    Shift=    0.500
 Gap=     0.418 Goal=   None    Shift=    0.500
 RMSDP=3.38D-05 MaxDP=1.88D-04 DE=-5.05D-06 OVMax= 2.42D-04

 Cycle   7  Pass 1  IDiag  1:
 E= -232.005557919646     Delta-E=       -0.000000728059 Rises=F Damp=F
 DIIS: error= 3.70D-05 at cycle   7 NSaved=   7.
 NSaved= 7 IEnMin= 7 EnMin= -232.005557919646     IErMin= 7 ErrMin= 3.70D-05
 ErrMax= 3.70D-05  0.00D+00 EMaxC= 1.00D+00 BMatC= 1.66D-07 BMatP= 1.09D-06
 IDIUse=1 WtCom= 1.00D+00 WtEn= 0.00D+00
 Coeff-Com: -0.345D-04-0.269D-02 0.424D-01-0.225D+00 0.806D+00-0.214D+01
 Coeff-Com:  0.252D+01
 Coeff:     -0.345D-04-0.269D-02 0.424D-01-0.225D+00 0.806D+00-0.214D+01
 Coeff:      0.252D+01
 Gap=     0.418 Goal=   None    Shift=    0.500
 Gap=     0.418 Goal=   None    Shift=    0.500
 RMSDP=1.30D-05 MaxDP=7.10D-05 DE=-7.28D-07 OVMax= 1.01D-04

 Cycle   8  Pass 1  IDiag  1:
 E= -232.005558030132     Delta-E=       -0.000000110486 Rises=F Damp=F
 DIIS: error= 1.44D-05 at cycle   8 NSaved=   8.
 NSaved= 8 IEnMin= 8 EnMin= -232.005558030132     IErMin= 8 ErrMin= 1.44D-05
 ErrMax= 1.44D-05  0.00D+00 EMaxC= 1.00D+00 BMatC= 2.71D-08 BMatP= 1.66D-07
 IDIUse=1 WtCom= 1.00D+00 WtEn= 0.00D+00
 Coeff-Com: -0.347D-04 0.133D-02-0.196D-01 0.107D+00-0.369D+00 0.114D+01
 Coeff-Com: -0.275D+01 0.288D+01
 Coeff:     -0.347D-04 0.133D-02-0.196D-01 0.107D+00-0.369D+00 0.114D+01
 Coeff:     -0.275D+01 0.288D+01
 Gap=     0.418 Goal=   None    Shift=    0.500
 Gap=     0.418 Goal=   None    Shift=    0.500
 RMSDP=5.25D-06 MaxDP=3.00D-05 DE=-1.10D-07 OVMax= 4.24D-05

 Cycle   9  Pass 1  IDiag  1:
 E= -232.005558047685     Delta-E=       -0.000000017552 Rises=F Damp=F
 DIIS: error= 5.67D-06 at cycle   9 NSaved=   9.
 NSaved= 9 IEnMin= 9 EnMin= -232.005558047685     IErMin= 9 ErrMin= 5.67D-06
 ErrMax= 5.67D-06  0.00D+00 EMaxC= 1.00D+00 BMatC= 4.54D-09 BMatP= 2.71D-08
 IDIUse=1 WtCom= 1.00D+00 WtEn= 0.00D+00
 Coeff-Com:  0.509D-05-0.456D-03 0.710D-02-0.416D-01 0.158D+00-0.492D+00
 Coeff-Com:  0.133D+01-0.281D+01 0.284D+01
 Coeff:      0.509D-05-0.456D-03 0.710D-02-0.416D-01 0.158D+00-0.492D+00
 Coeff:      0.133D+01-0.281D+01 0.284D+01
 Gap=     0.418 Goal=   None    Shift=    0.500
 Gap=     0.418 Goal=   None    Shift=    0.500
 RMSDP=2.08D-06 MaxDP=1.23D-05 DE=-1.76D-08 OVMax= 1.74D-05

 Cycle  10  Pass 1  IDiag  1:
 E= -232.005558050516     Delta-E=       -0.000000002832 Rises=F Damp=F
 DIIS: error= 2.25D-06 at cycle  10 NSaved=  10.
 NSaved=10 IEnMin=10 EnMin= -232.005558050516     IErMin=10 ErrMin= 2.25D-06
 ErrMax= 2.25D-06  0.00D+00 EMaxC= 1.00D+00 BMatC= 7.73D-10 BMatP= 4.54D-09
 IDIUse=1 WtCom= 1.00D+00 WtEn= 0.00D+00
 Coeff-Com: -0.794D-06 0.836D-04-0.114D-02 0.513D-02-0.146D-01 0.402D-01
 Coeff-Com: -0.788D-01 0.364D+00-0.173D+01 0.241D+01
 Coeff:     -0.794D-06 0.836D-04-0.114D-02 0.513D-02-0.146D-01 0.402D-01
 Coeff:     -0.788D-01 0.364D+00-0.173D+01 0.241D+01
 Gap=     0.418 Goal=   None    Shift=    0.500
 Gap=     0.418 Goal=   None    Shift=    0.500
 RMSDP=8.28D-07 MaxDP=4.98D-06 DE=-2.83D-09 OVMax= 7.17D-06

 SCF Done:  E(ULC-wHPBE) =  -232.005558051     A.U. after   10 cycles
            NFock= 10  Conv=0.83D-06     -V/T= 2.0059
 <Sx>= 0.0000 <Sy>= 0.0000 <Sz>= 0.0000 <S**2>= 0.0000 S= 0.0000
 <L.S>= 0.000000000000E+00
 KE= 2.306493787689D+02 PE=-9.442791161943D+02 EE= 2.784425958353D+02
 Annihilation of the first spin contaminant:
 S**2 before annihilation    -0.0000,   after    -0.0000
 Leave Link  502 at Mon Mar 16 03:51:00 2020, MaxMem=  6710886400 cpu:              11.6 elap:               0.7
 (Enter /opt/ohpc/pub/libs/gaussian/g16-A.03/sandybridge/g16/l508.exe)
 QCSCF skips out because SCF is already converged.
 Leave Link  508 at Mon Mar 16 03:51:00 2020, MaxMem=  6710886400 cpu:               0.3 elap:               0.0
 (Enter /opt/ohpc/pub/libs/gaussian/g16-A.03/sandybridge/g16/l601.exe)
 Copying SCF densities to generalized density rwf, IOpCl= 1 IROHF=0.

 **********************************************************************

            Population analysis using the SCF density.

 **********************************************************************

 Orbital symmetries:
 Alpha Orbitals:
       Occupied  (A1G) (E1U) (E1U) (E2G) (E2G) (B1U) (A1G) (E1U)
                 (E1U) (E2G) (E2G) (A1G) (B1U) (B2U) (E1U) (E1U)
                 (A2U) (E2G) (E2G) (E1G) (E1G)
       Virtual   (E2U) (E2U) (A1G) (E1U) (E1U) (B2G) (E2G) (E2G)
                 (B1U) (E2G) (E2G) (E1U) (E1U) (B2U) (A2U) (B1U)
                 (A2G) (A1G) (E1G) (E1G) (E2G) (E2G) (A1G) (E1U)
                 (E1U) (E2U) (E2U) (B2G) (B1U) (E2G) (E2G) (E1U)
                 (E1U) (A1G) (A2G) (E1U) (E1U) (E2G) (E2G) (E1U)
                 (E1U) (B1U) (E2G) (E2G) (B1U)
 Beta  Orbitals:
       Occupied  (A1G) (E1U) (E1U) (E2G) (E2G) (B1U) (A1G) (E1U)
                 (E1U) (E2G) (E2G) (A1G) (B1U) (B2U) (E1U) (E1U)
                 (A2U) (E2G) (E2G) (E1G) (E1G)
       Virtual   (E2U) (E2U) (A1G) (E1U) (E1U) (B2G) (E2G) (E2G)
                 (B1U) (E2G) (E2G) (E1U) (E1U) (B2U) (A2U) (B1U)
                 (A2G) (A1G) (E1G) (E1G) (E2G) (E2G) (A1G) (E1U)
                 (E1U) (E2U) (E2U) (B2G) (B1U) (E2G) (E2G) (E1U)
                 (E1U) (A1G) (A2G) (E1U) (E1U) (E2G) (E2G) (E1U)
                 (E1U) (B1U) (E2G) (E2G) (B1U)
 The electronic state is 1-A1G.
 Alpha  occ. eigenvalues --  -10.06270 -10.06260 -10.06260 -10.06230 -10.06230
 Alpha  occ. eigenvalues --  -10.06221  -0.95054  -0.84154  -0.84154  -0.69725
 Alpha  occ. eigenvalues --   -0.69725  -0.62271  -0.55164  -0.53813  -0.51308
 Alpha  occ. eigenvalues --   -0.51308  -0.47037  -0.42816  -0.42816  -0.33827
 Alpha  occ. eigenvalues --   -0.33827
 Alpha virt. eigenvalues --    0.08014   0.08014   0.17994   0.23464   0.23464
 Alpha virt. eigenvalues --    0.25430   0.27397   0.27397   0.28301   0.39293
 Alpha virt. eigenvalues --    0.39293   0.40940   0.40940   0.58816   0.61804
 Alpha virt. eigenvalues --    0.63663   0.65264   0.67739   0.70350   0.70350
 Alpha virt. eigenvalues --    0.71880   0.71880   0.73030   0.76085   0.76085
 Alpha virt. eigenvalues --    0.76153   0.76153   0.83677   0.93801   0.94954
 Alpha virt. eigenvalues --    0.94954   0.99271   0.99271   1.05923   1.07106
 Alpha virt. eigenvalues --    1.10025   1.10025   1.22345   1.22345   1.28388
 Alpha virt. eigenvalues --    1.28388   1.31945   1.55384   1.55384   1.99980
  Beta  occ. eigenvalues --  -10.06270 -10.06260 -10.06260 -10.06230 -10.06230
  Beta  occ. eigenvalues --  -10.06221  -0.95054  -0.84154  -0.84154  -0.69725
  Beta  occ. eigenvalues --   -0.69725  -0.62271  -0.55164  -0.53813  -0.51308
  Beta  occ. eigenvalues --   -0.51308  -0.47037  -0.42816  -0.42816  -0.33827
  Beta  occ. eigenvalues --   -0.33827
  Beta virt. eigenvalues --    0.08014   0.08014   0.17994   0.23464   0.23464
  Beta virt. eigenvalues --    0.25430   0.27397   0.27397   0.28301   0.39293
  Beta virt. eigenvalues --    0.39293   0.40940   0.40940   0.58816   0.61804
  Beta virt. eigenvalues --    0.63663   0.65264   0.67739   0.70350   0.70350
  Beta virt. eigenvalues --    0.71880   0.71880   0.73030   0.76085   0.76085
  Beta virt. eigenvalues --    0.76153   0.76153   0.83677   0.93801   0.94954
  Beta virt. eigenvalues --    0.94954   0.99271   0.99271   1.05923   1.07106
  Beta virt. eigenvalues --    1.10025   1.10025   1.22345   1.22345   1.28388
  Beta virt. eigenvalues --    1.28388   1.31945   1.55384   1.55384   1.99980
          Condensed to atoms (all electrons):
               1          2          3          4          5          6
     1  C    4.902486   0.539082  -0.050435  -0.035317  -0.050435   0.539082
     2  C    0.539082   4.902486   0.539082  -0.050435  -0.035317  -0.050435
     3  C   -0.050435   0.539082   4.902486   0.539082  -0.050435  -0.035317
     4  C   -0.035317  -0.050435   0.539082   4.902486   0.539082  -0.050435
     5  C   -0.050435  -0.035317  -0.050435   0.539082   4.902486   0.539082
     6  C    0.539082  -0.050435  -0.035317  -0.050435   0.539082   4.902486
     7  H    0.367665  -0.033896   0.004003   0.000360   0.004003  -0.033896
     8  H   -0.033896   0.367665  -0.033896   0.004003   0.000360   0.004003
     9  H    0.004003  -0.033896   0.367665  -0.033896   0.004003   0.000360
    10  H    0.000360   0.004003  -0.033896   0.367665  -0.033896   0.004003
    11  H    0.004003   0.000360   0.004003  -0.033896   0.367665  -0.033896
    12  H   -0.033896   0.004003   0.000360   0.004003  -0.033896   0.367665
               7          8          9         10         11         12
     1  C    0.367665  -0.033896   0.004003   0.000360   0.004003  -0.033896
     2  C   -0.033896   0.367665  -0.033896   0.004003   0.000360   0.004003
     3  C    0.004003  -0.033896   0.367665  -0.033896   0.004003   0.000360
     4  C    0.000360   0.004003  -0.033896   0.367665  -0.033896   0.004003
     5  C    0.004003   0.000360   0.004003  -0.033896   0.367665  -0.033896
     6  C   -0.033896   0.004003   0.000360   0.004003  -0.033896   0.367665
     7  H    0.547207  -0.003944  -0.000134   0.000008  -0.000134  -0.003944
     8  H   -0.003944   0.547207  -0.003944  -0.000134   0.000008  -0.000134
     9  H   -0.000134  -0.003944   0.547207  -0.003944  -0.000134   0.000008
    10  H    0.000008  -0.000134  -0.003944   0.547207  -0.003944  -0.000134
    11  H   -0.000134   0.000008  -0.000134  -0.003944   0.547207  -0.003944
    12  H   -0.003944  -0.000134   0.000008  -0.000134  -0.003944   0.547207
          Atomic-Atomic Spin Densities.
               1          2          3          4          5          6
     1  C   -0.000000   0.000000   0.000000   0.000000   0.000000   0.000000
     2  C    0.000000  -0.000000   0.000000   0.000000   0.000000   0.000000
     3  C    0.000000   0.000000  -0.000000   0.000000   0.000000   0.000000
     4  C    0.000000   0.000000   0.000000  -0.000000   0.000000   0.000000
     5  C    0.000000   0.000000   0.000000   0.000000  -0.000000   0.000000
     6  C    0.000000   0.000000   0.000000   0.000000   0.000000  -0.000000
     7  H   -0.000000   0.000000  -0.000000   0.000000  -0.000000   0.000000
     8  H    0.000000  -0.000000   0.000000  -0.000000   0.000000  -0.000000
     9  H   -0.000000   0.000000  -0.000000   0.000000  -0.000000   0.000000
    10  H    0.000000  -0.000000   0.000000  -0.000000   0.000000  -0.000000
    11  H   -0.000000   0.000000  -0.000000   0.000000  -0.000000   0.000000
    12  H    0.000000  -0.000000   0.000000  -0.000000   0.000000  -0.000000
               7          8          9         10         11         12
     1  C   -0.000000   0.000000  -0.000000   0.000000  -0.000000   0.000000
     2  C    0.000000  -0.000000   0.000000  -0.000000   0.000000  -0.000000
     3  C   -0.000000   0.000000  -0.000000   0.000000  -0.000000   0.000000
     4  C    0.000000  -0.000000   0.000000  -0.000000   0.000000  -0.000000
     5  C   -0.000000   0.000000  -0.000000   0.000000  -0.000000   0.000000
     6  C    0.000000  -0.000000   0.000000  -0.000000   0.000000  -0.000000
     7  H   -0.000000   0.000000  -0.000000   0.000000  -0.000000   0.000000
     8  H    0.000000  -0.000000   0.000000  -0.000000   0.000000  -0.000000
     9  H   -0.000000   0.000000  -0.000000   0.000000  -0.000000   0.000000
    10  H    0.000000  -0.000000   0.000000  -0.000000   0.000000  -0.000000
    11  H   -0.000000   0.000000  -0.000000   0.000000  -0.000000   0.000000
    12  H    0.000000  -0.000000   0.000000  -0.000000   0.000000  -0.000000
 Mulliken charges and spin densities:
               1          2
     1  C   -0.152702   0.000000
     2  C   -0.152702   0.000000
     3  C   -0.152702   0.000000
     4  C   -0.152702   0.000000
     5  C   -0.152702   0.000000
     6  C   -0.152702   0.000000
     7  H    0.152702  -0.000000
     8  H    0.152702  -0.000000
     9  H    0.152702  -0.000000
    10  H    0.152702  -0.000000
    11  H    0.152702  -0.000000
    12  H    0.152702  -0.000000
 Sum of Mulliken charges =  -0.00000  -0.00000
 Mulliken charges and spin densities with hydrogens summed into heavy atoms:
               1          2
     1  C   -0.000000  -0.000000
     2  C   -0.000000  -0.000000
     3  C   -0.000000  -0.000000
     4  C   -0.000000  -0.000000
     5  C   -0.000000  -0.000000
     6  C   -0.000000  -0.000000
 Electronic spatial extent (au):  <R**2>=            458.0935
 Charge=             -0.0000 electrons
 Dipole moment (field-independent basis, Debye):
    X=             -0.0000    Y=              0.0000    Z=             -0.0000  Tot=              0.0000
 Quadrupole moment (field-independent basis, Debye-Ang):
   XX=            -31.0654   YY=            -31.0654   ZZ=            -38.9476
   XY=             -0.0000   XZ=             -0.0000   YZ=             -0.0000
 Traceless Quadrupole moment (field-independent basis, Debye-Ang):
   XX=              2.6274   YY=              2.6274   ZZ=             -5.2548
   XY=             -0.0000   XZ=             -0.0000   YZ=             -0.0000
 Octapole moment (field-independent basis, Debye-Ang**2):
  XXX=              0.0000  YYY=              0.0000  ZZZ=              0.0000  XYY=              0.0000
  XXY=              0.0000  XXZ=              0.0000  XZZ=              0.0000  YZZ=              0.0000
  YYZ=              0.0000  XYZ=             -0.0000
 Hexadecapole moment (field-independent basis, Debye-Ang**3):
 XXXX=           -264.5658 YYYY=           -264.5658 ZZZZ=            -40.3253 XXXY=              0.0000
 XXXZ=             -0.0000 YYYX=              0.0000 YYYZ=             -0.0000 ZZZX=             -0.0000
 ZZZY=             -0.0000 XXYY=            -88.1886 XXZZ=            -60.6863 YYZZ=            -60.6863
 XXYZ=             -0.0000 YYXZ=             -0.0000 ZZXY=              0.0000
 N-N= 2.031815835396D+02 E-N=-9.442789991396D+02  KE= 2.306493787689D+02
 Symmetry AG   KE= 7.427346917556D+01
 Symmetry B1G  KE= 3.757831875095D+01
 Symmetry B2G  KE= 2.264751256179D+00
 Symmetry B3G  KE= 2.264751256179D+00
 Symmetry AU   KE= 6.467108819289D-17
 Symmetry B1U  KE= 1.891070168664D+00
 Symmetry B2U  KE= 7.197898597262D+01
 Symmetry B3U  KE= 4.039803218875D+01
 Symmetry AG   SP=-1.685241035080D-14
 Symmetry B1G  SP= 6.185878555880D-15
 Symmetry B2G  SP=-2.568667609708D-15
 Symmetry B3G  SP=-2.613348772029D-15
 Symmetry AU   SP= 9.719237461727D-18
 Symmetry B1U  SP=-2.884858882437D-15
 Symmetry B2U  SP=-1.001004087801D-14
 Symmetry B3U  SP=-1.737005335442D-14
                          Isotropic Fermi Contact Couplings
        Atom                 a.u.       MegaHertz       Gauss      10(-4) cm-1
     1  C(13)             -0.00000      -0.00000      -0.00000      -0.00000
     2  C(13)             -0.00000      -0.00000      -0.00000      -0.00000
     3  C(13)             -0.00000      -0.00000      -0.00000      -0.00000
     4  C(13)             -0.00000      -0.00000      -0.00000      -0.00000
     5  C(13)             -0.00000      -0.00000      -0.00000      -0.00000
     6  C(13)             -0.00000      -0.00000      -0.00000      -0.00000
     7  H(1)              -0.00000      -0.00000      -0.00000      -0.00000
     8  H(1)              -0.00000      -0.00000      -0.00000      -0.00000
     9  H(1)              -0.00000      -0.00000      -0.00000      -0.00000
    10  H(1)              -0.00000      -0.00000      -0.00000      -0.00000
    11  H(1)              -0.00000      -0.00000      -0.00000      -0.00000
    12  H(1)              -0.00000      -0.00000      -0.00000      -0.00000
 --------------------------------------------------------
       Center         ----  Spin Dipole Couplings  ----
                      3XX-RR        3YY-RR        3ZZ-RR
 --------------------------------------------------------
     1   Atom        0.000000      0.000000      0.000000
     2   Atom        0.000000      0.000000      0.000000
     3   Atom        0.000000      0.000000      0.000000
     4   Atom        0.000000      0.000000      0.000000
     5   Atom        0.000000      0.000000      0.000000
     6   Atom        0.000000      0.000000      0.000000
     7   Atom        0.000000      0.000000      0.000000
     8   Atom        0.000000      0.000000      0.000000
     9   Atom        0.000000      0.000000      0.000000
    10   Atom        0.000000      0.000000      0.000000
    11   Atom        0.000000      0.000000      0.000000
    12   Atom        0.000000      0.000000      0.000000
 --------------------------------------------------------
                        XY            XZ            YZ
 --------------------------------------------------------
     1   Atom        0.000000      0.000000      0.000000
     2   Atom        0.000000      0.000000      0.000000
     3   Atom        0.000000      0.000000      0.000000
     4   Atom        0.000000      0.000000      0.000000
     5   Atom        0.000000      0.000000      0.000000
     6   Atom        0.000000      0.000000      0.000000
     7   Atom        0.000000      0.000000      0.000000
     8   Atom        0.000000      0.000000      0.000000
     9   Atom        0.000000      0.000000      0.000000
    10   Atom        0.000000      0.000000      0.000000
    11   Atom        0.000000      0.000000      0.000000
    12   Atom        0.000000      0.000000      0.000000
 --------------------------------------------------------


 ---------------------------------------------------------------------------------
              Anisotropic Spin Dipole Couplings in Principal Axis System
 ---------------------------------------------------------------------------------

       Atom             a.u.   MegaHertz   Gauss  10(-4) cm-1        Axes

              Baa     0.0000     0.000     0.000     0.000  1.0000  0.0000  0.0000
     1 C(13)  Bbb     0.0000     0.000     0.000     0.000 -0.0000  1.0000  0.0000
              Bcc     0.0000     0.000     0.000     0.000  0.0000  0.0000  1.0000
 
              Baa     0.0000     0.000     0.000     0.000  1.0000  0.0000  0.0000
     2 C(13)  Bbb     0.0000     0.000     0.000     0.000 -0.0000  1.0000  0.0000
              Bcc     0.0000     0.000     0.000     0.000  0.0000  0.0000  1.0000
 
              Baa     0.0000     0.000     0.000     0.000  1.0000  0.0000  0.0000
     3 C(13)  Bbb     0.0000     0.000     0.000     0.000 -0.0000  1.0000  0.0000
              Bcc     0.0000     0.000     0.000     0.000  0.0000  0.0000  1.0000
 
              Baa     0.0000     0.000     0.000     0.000  1.0000  0.0000  0.0000
     4 C(13)  Bbb     0.0000     0.000     0.000     0.000 -0.0000  1.0000  0.0000
              Bcc     0.0000     0.000     0.000     0.000  0.0000  0.0000  1.0000
 
              Baa     0.0000     0.000     0.000     0.000  1.0000  0.0000  0.0000
     5 C(13)  Bbb     0.0000     0.000     0.000     0.000 -0.0000  1.0000  0.0000
              Bcc     0.0000     0.000     0.000     0.000  0.0000  0.0000  1.0000
 
              Baa     0.0000     0.000     0.000     0.000  1.0000  0.0000  0.0000
     6 C(13)  Bbb     0.0000     0.000     0.000     0.000 -0.0000  1.0000  0.0000
              Bcc     0.0000     0.000     0.000     0.000  0.0000  0.0000  1.0000
 
              Baa     0.0000     0.000     0.000     0.000  1.0000  0.0000  0.0000
     7 H(1)   Bbb     0.0000     0.000     0.000     0.000 -0.0000  1.0000  0.0000
              Bcc     0.0000     0.000     0.000     0.000  0.0000  0.0000  1.0000
 
              Baa     0.0000     0.000     0.000     0.000  1.0000  0.0000  0.0000
     8 H(1)   Bbb     0.0000     0.000     0.000     0.000 -0.0000  1.0000  0.0000
              Bcc     0.0000     0.000     0.000     0.000  0.0000  0.0000  1.0000
 
              Baa     0.0000     0.000     0.000     0.000  1.0000  0.0000  0.0000
     9 H(1)   Bbb     0.0000     0.000     0.000     0.000 -0.0000  1.0000  0.0000
              Bcc     0.0000     0.000     0.000     0.000  0.0000  0.0000  1.0000
 
              Baa     0.0000     0.000     0.000     0.000  1.0000  0.0000  0.0000
    10 H(1)   Bbb     0.0000     0.000     0.000     0.000 -0.0000  1.0000  0.0000
              Bcc     0.0000     0.000     0.000     0.000  0.0000  0.0000  1.0000
 
              Baa     0.0000     0.000     0.000     0.000  1.0000  0.0000  0.0000
    11 H(1)   Bbb     0.0000     0.000     0.000     0.000 -0.0000  1.0000  0.0000
              Bcc     0.0000     0.000     0.000     0.000  0.0000  0.0000  1.0000
 
              Baa     0.0000     0.000     0.000     0.000  1.0000  0.0000  0.0000
    12 H(1)   Bbb     0.0000     0.000     0.000     0.000 -0.0000  1.0000  0.0000
              Bcc     0.0000     0.000     0.000     0.000  0.0000  0.0000  1.0000
 

 ---------------------------------------------------------------------------------

 No NMR shielding tensors so no spin-rotation constants.
 Leave Link  601 at Mon Mar 16 03:51:00 2020, MaxMem=  6710886400 cpu:               2.1 elap:               0.2
 (Enter /opt/ohpc/pub/libs/gaussian/g16-A.03/sandybridge/g16/l9999.exe)

 Test job not archived.
 1\1\GINC-CNODE145\SP\ULC-wHPBE\6-31G\C6H6\QAI222\16-Mar-2020\0\\#P uLC
 -wHPBE/6-31G iop(3/107=0298000000, 3/108=0298000000) scf=(conver=6,fer
 mi,ndamp=35,noincfock,novaracc,vshift=500,xqc)\\H6 C6\\0,1\C,0,0.,1.39
 6379,0.\C,0,-1.2093,0.69819,0.\C,0,-1.2093,-0.69819,0.\C,0,0.,-1.39637
 9,0.\C,0,1.2093,-0.69819,0.\C,0,1.2093,0.69819,0.\H,0,0.,2.484613,0.\H
 ,0,-2.151738,1.242306,0.\H,0,-2.151738,-1.242306,0.\H,0,0.,-2.484613,0
 .\H,0,2.151738,-1.242306,0.\H,0,2.151738,1.242306,0.\\Version=EM64L-G1
 6RevA.03\State=1-A1G\HF=-232.0055581\S2=0.\S2-1=0.\S2A=0.\RMSD=8.277e-
 07\Dipole=0.,0.,0.\Quadrupole=1.9533992,1.9533992,-3.9067983,0.,0.,0.\
 PG=D06H [3C2'(H1C1.C1H1)]\\@


 WORK FAITHFULLY FOR EIGHT HOURS A DAY AND DON'T WORRY.
 IN TIME YOU MAY BECOME BOSS AND WORK TWELVE HOURS A DAY
 AND HAVE ALL THE WORRY.
 Job cpu time:       0 days  0 hours  0 minutes 37.8 seconds.
 Elapsed time:       0 days  0 hours  0 minutes  2.6 seconds.
 File lengths (MBytes):  RWF=    272 Int=      0 D2E=      0 Chk=     32 Scr=     32
 Normal termination of Gaussian 16 at Mon Mar 16 03:51:00 2020.
