 Entering Gaussian System, Link 0=g16
 Input=1b_tune_c2.gjf
 Output=1b_tune_c2.log
 Initial command:
 /opt/ohpc/pub/libs/gaussian/g16-A.03/haswell/g16/l1.exe "/scratch/smgo234/Ocelot/test/1b/tuning_1b_ocycle1/Gau-39764.inp" -scrdir="/scratch/smgo234/Ocelot/test/1b/tuning_1b_ocycle1/"
 Entering Link 1 = /opt/ohpc/pub/libs/gaussian/g16-A.03/haswell/g16/l1.exe PID=     39765.
  
 Copyright (c) 1988,1990,1992,1993,1995,1998,2003,2009,2016,
            Gaussian, Inc.  All Rights Reserved.
  
 This is part of the Gaussian(R) 16 program.  It is based on
 the Gaussian(R) 09 system (copyright 2009, Gaussian, Inc.),
 the Gaussian(R) 03 system (copyright 2003, Gaussian, Inc.),
 the Gaussian(R) 98 system (copyright 1998, Gaussian, Inc.),
 the Gaussian(R) 94 system (copyright 1995, Gaussian, Inc.),
 the Gaussian 92(TM) system (copyright 1992, Gaussian, Inc.),
 the Gaussian 90(TM) system (copyright 1990, Gaussian, Inc.),
 the Gaussian 88(TM) system (copyright 1988, Gaussian, Inc.),
 the Gaussian 86(TM) system (copyright 1986, Carnegie Mellon
 University), and the Gaussian 82(TM) system (copyright 1983,
 Carnegie Mellon University). Gaussian is a federally registered
 trademark of Gaussian, Inc.
  
 This software contains proprietary and confidential information,
 including trade secrets, belonging to Gaussian, Inc.
  
 This software is provided under written license and may be
 used, copied, transmitted, or stored only in accord with that
 written license.
  
 The following legend is applicable only to US Government
 contracts under FAR:
  
                    RESTRICTED RIGHTS LEGEND
  
 Use, reproduction and disclosure by the US Government is
 subject to restrictions as set forth in subparagraphs (a)
 and (c) of the Commercial Computer Software - Restricted
 Rights clause in FAR 52.227-19.
  
 Gaussian, Inc.
 340 Quinnipiac St., Bldg. 40, Wallingford CT 06492
  
  
 ---------------------------------------------------------------
 Warning -- This program may not be used in any manner that
 competes with the business of Gaussian, Inc. or will provide
 assistance to any competitor of Gaussian, Inc.  The licensee
 of this program is prohibited from giving any competitor of
 Gaussian, Inc. access to this program.  By using this program,
 the user acknowledges that Gaussian, Inc. is engaged in the
 business of creating and licensing software in the field of
 computational chemistry and represents and warrants to the
 licensee that it is not a competitor of Gaussian, Inc. and that
 it will not use this program in any manner prohibited above.
 ---------------------------------------------------------------
  

 Cite this work as:
 Gaussian 16, Revision A.03,
 M. J. Frisch, G. W. Trucks, H. B. Schlegel, G. E. Scuseria, 
 M. A. Robb, J. R. Cheeseman, G. Scalmani, V. Barone, 
 G. A. Petersson, H. Nakatsuji, X. Li, M. Caricato, A. V. Marenich, 
 J. Bloino, B. G. Janesko, R. Gomperts, B. Mennucci, H. P. Hratchian, 
 J. V. Ortiz, A. F. Izmaylov, J. L. Sonnenberg, D. Williams-Young, 
 F. Ding, F. Lipparini, F. Egidi, J. Goings, B. Peng, A. Petrone, 
 T. Henderson, D. Ranasinghe, V. G. Zakrzewski, J. Gao, N. Rega, 
 G. Zheng, W. Liang, M. Hada, M. Ehara, K. Toyota, R. Fukuda, 
 J. Hasegawa, M. Ishida, T. Nakajima, Y. Honda, O. Kitao, H. Nakai, 
 T. Vreven, K. Throssell, J. A. Montgomery, Jr., J. E. Peralta, 
 F. Ogliaro, M. J. Bearpark, J. J. Heyd, E. N. Brothers, K. N. Kudin, 
 V. N. Staroverov, T. A. Keith, R. Kobayashi, J. Normand, 
 K. Raghavachari, A. P. Rendell, J. C. Burant, S. S. Iyengar, 
 J. Tomasi, M. Cossi, J. M. Millam, M. Klene, C. Adamo, R. Cammi, 
 J. W. Ochterski, R. L. Martin, K. Morokuma, O. Farkas, 
 J. B. Foresman, and D. J. Fox, Gaussian, Inc., Wallingford CT, 2016.
 
 ******************************************
 Gaussian 16:  ES64L-G16RevA.03 25-Dec-2016
                25-Feb-2020 
 ******************************************
 %mem=50GB
 %nproc=16
 Will use up to   16 processors via shared memory.
 ----------------------------------------------------------------------
 #P uLC-wHPBE/6-31G iop(3/107=0378100000, 3/108=0378100000) scf=(conver
 =6,fermi,ndamp=35,noincfock,novaracc,vshift=500,xqc)
 ----------------------------------------------------------------------
 1/38=1,172=1/1;
 2/12=2,17=6,18=5,40=1/2;
 3/5=1,6=6,11=2,25=1,30=1,74=-71,107=378100000,108=378100000,116=2/1,2,3;
 4//1;
 5/5=100002,6=6,8=3,10=500,13=1,18=-1,22=13,38=1,93=35/2,8;
 6/7=2,8=2,9=2,10=2,28=1/1;
 99/5=1,9=1/99;
 Leave Link    1 at Tue Feb 25 12:21:52 2020, MaxMem=  6710886400 cpu:              11.0 elap:               0.7
 (Enter /opt/ohpc/pub/libs/gaussian/g16-A.03/haswell/g16/l101.exe)
 -----
 H6 C5
 -----
 Symbolic Z-matrix:
 Charge =  1 Multiplicity = 2
 C                     0.        0.89708  -0.93525 
 C                     0.        1.13409   0.42538 
 C                     0.        0.        1.24305 
 C                     0.       -1.13409   0.42538 
 C                     0.       -0.89708  -0.93525 
 H                     0.        0.       -1.72336 
 H                     0.        1.62254  -1.74574 
 H                     0.        2.16413   0.77433 
 H                     0.        0.        2.32629 
 H                     0.       -2.16413   0.77433 
 H                     0.       -1.62254  -1.74574 
 
 ITRead=  0  0  0  0  0  0  0  0  0  0  0
 MicOpt= -1 -1 -1 -1 -1 -1 -1 -1 -1 -1 -1
 NAtoms=     11 NQM=       11 NQMF=       0 NMMI=      0 NMMIF=      0
                NMic=       0 NMicF=      0.
                    Isotopes and Nuclear Properties:
 (Nuclear quadrupole moments (NQMom) in fm**2, nuclear magnetic moments (NMagM)
  in nuclear magnetons)

  Atom         1           2           3           4           5           6           7           8           9          10
 IAtWgt=          12          12          12          12          12           1           1           1           1           1
 AtmWgt=  12.0000000  12.0000000  12.0000000  12.0000000  12.0000000   1.0078250   1.0078250   1.0078250   1.0078250   1.0078250
 NucSpn=           0           0           0           0           0           1           1           1           1           1
 AtZEff=  -0.0000000  -0.0000000  -0.0000000  -0.0000000  -0.0000000  -0.0000000  -0.0000000  -0.0000000  -0.0000000  -0.0000000
 NQMom=    0.0000000   0.0000000   0.0000000   0.0000000   0.0000000   0.0000000   0.0000000   0.0000000   0.0000000   0.0000000
 NMagM=    0.0000000   0.0000000   0.0000000   0.0000000   0.0000000   2.7928460   2.7928460   2.7928460   2.7928460   2.7928460
 AtZNuc=   6.0000000   6.0000000   6.0000000   6.0000000   6.0000000   1.0000000   1.0000000   1.0000000   1.0000000   1.0000000

  Atom        11
 IAtWgt=           1
 AtmWgt=   1.0078250
 NucSpn=           1
 AtZEff=  -0.0000000
 NQMom=    0.0000000
 NMagM=    2.7928460
 AtZNuc=   1.0000000
 Leave Link  101 at Tue Feb 25 12:21:52 2020, MaxMem=  6710886400 cpu:               2.6 elap:               0.2
 (Enter /opt/ohpc/pub/libs/gaussian/g16-A.03/haswell/g16/l202.exe)
                          Input orientation:                          
 ---------------------------------------------------------------------
 Center     Atomic      Atomic             Coordinates (Angstroms)
 Number     Number       Type             X           Y           Z
 ---------------------------------------------------------------------
      1          6           0        0.000000    0.897082   -0.935245
      2          6           0        0.000000    1.134094    0.425375
      3          6           0        0.000000    0.000000    1.243051
      4          6           0        0.000000   -1.134094    0.425375
      5          6           0        0.000000   -0.897082   -0.935245
      6          1           0        0.000000    0.000000   -1.723356
      7          1           0        0.000000    1.622537   -1.745737
      8          1           0        0.000000    2.164126    0.774330
      9          1           0        0.000000    0.000000    2.326294
     10          1           0        0.000000   -2.164126    0.774330
     11          1           0        0.000000   -1.622537   -1.745737
 ---------------------------------------------------------------------
                    Distance matrix (angstroms):
                    1          2          3          4          5
     1  C    0.000000
     2  C    1.381109   0.000000
     3  C    2.355786   1.398128   0.000000
     4  C    2.444783   2.268188   1.398128   0.000000
     5  C    1.794164   2.444783   2.355786   1.381109   0.000000
     6  H    1.194100   2.429653   2.966407   2.429653   1.194100
     7  H    1.087742   2.225377   3.400806   3.508952   2.646767
     8  H    2.127921   1.087536   2.214304   3.316629   3.506229
     9  H    3.382661   2.213518   1.083243   2.213518   3.382661
    10  H    3.506229   3.316629   2.214304   1.087536   2.127921
    11  H    2.646767   3.508952   3.400806   2.225377   1.087742
                    6          7          8          9         10
     6  H    0.000000
     7  H    1.622691   0.000000
     8  H    3.304826   2.577607   0.000000
     9  H    4.049650   4.383385   2.663087   0.000000
    10  H    3.304826   4.548577   4.328252   2.663087   0.000000
    11  H    1.622691   3.245074   4.548577   4.383385   2.577607
                   11
    11  H    0.000000
 Stoichiometry    C5H6(1+,2)
 Framework group  C2V[C2(HCH),SGV(C4H4)]
 Deg. of freedom    10
 Full point group                 C2V     NOp   4
 Largest Abelian subgroup         C2V     NOp   4
 Largest concise Abelian subgroup C2      NOp   2
                         Standard orientation:                         
 ---------------------------------------------------------------------
 Center     Atomic      Atomic             Coordinates (Angstroms)
 Number     Number       Type             X           Y           Z
 ---------------------------------------------------------------------
      1          6           0        0.000000    0.897082   -0.935245
      2          6           0        0.000000    1.134094    0.425375
      3          6           0        0.000000   -0.000000    1.243051
      4          6           0       -0.000000   -1.134094    0.425375
      5          6           0       -0.000000   -0.897082   -0.935245
      6          1           0       -0.000000    0.000000   -1.723356
      7          1           0        0.000000    1.622537   -1.745737
      8          1           0        0.000000    2.164126    0.774330
      9          1           0        0.000000   -0.000000    2.326294
     10          1           0       -0.000000   -2.164126    0.774330
     11          1           0       -0.000000   -1.622537   -1.745737
 ---------------------------------------------------------------------
 Rotational constants (GHZ):           8.4725427           7.7835829           4.0567316
 Leave Link  202 at Tue Feb 25 12:21:52 2020, MaxMem=  6710886400 cpu:               0.2 elap:               0.0
 (Enter /opt/ohpc/pub/libs/gaussian/g16-A.03/haswell/g16/l301.exe)
 Standard basis: 6-31G (6D, 7F)
 Ernie: Thresh=  0.10000D-02 Tol=  0.10000D-05 Strict=F.
 There are    27 symmetry adapted cartesian basis functions of A1  symmetry.
 There are     4 symmetry adapted cartesian basis functions of A2  symmetry.
 There are     6 symmetry adapted cartesian basis functions of B1  symmetry.
 There are    20 symmetry adapted cartesian basis functions of B2  symmetry.
 There are    27 symmetry adapted basis functions of A1  symmetry.
 There are     4 symmetry adapted basis functions of A2  symmetry.
 There are     6 symmetry adapted basis functions of B1  symmetry.
 There are    20 symmetry adapted basis functions of B2  symmetry.
    57 basis functions,   134 primitive gaussians,    57 cartesian basis functions
    18 alpha electrons       17 beta electrons
       nuclear repulsion energy       155.1468587074 Hartrees.
 IExCor=33909 DFT=T Ex+Corr=LC-wHPBE ExCW=0 ScaHFX=  1.000000
 ScaDFX=  1.000000  1.000000  1.000000  1.000000 ScalE2=  1.000000  1.000000
 IRadAn=      5 IRanWt=     -1 IRanGd=            0 ICorTp=0 IEmpDi=  4
 HFx  wShort=  0.000000 wLong=  0.378100 cFull=  0.000000 cShort=  0.000000 cLong=  1.000000
 DFx  wShort=  0.000000 wLong=  0.378100 cFull=  0.000000 cShort=  1.000000 cLong=  0.000000
 NAtoms=   11 NActive=   11 NUniq=    7 SFac= 2.47D+00 NAtFMM=   60 NAOKFM=F Big=F
 Integral buffers will be    131072 words long.
 Raffenetti 2 integral format.
 Two-electron integral symmetry is turned on.
 Leave Link  301 at Tue Feb 25 12:21:52 2020, MaxMem=  6710886400 cpu:               1.1 elap:               0.1
 (Enter /opt/ohpc/pub/libs/gaussian/g16-A.03/haswell/g16/l302.exe)
 NPDir=0 NMtPBC=     1 NCelOv=     1 NCel=       1 NClECP=     1 NCelD=      1
         NCelK=      1 NCelE2=     1 NClLst=     1 CellRange=     0.0.
 One-electron integrals computed using PRISM.
 One-electron integral symmetry used in STVInt
 NBasis=    57 RedAO= T EigKep=  1.93D-03  NBF=    27     4     6    20
 NBsUse=    57 1.00D-06 EigRej= -1.00D+00 NBFU=    27     4     6    20
 Precomputing XC quadrature grid using
 IXCGrd= 4 IRadAn=           5 IRanWt=          -1 IRanGd=           0 AccXCQ= 0.00D+00.
 Generated NRdTot=       0 NPtTot=           0 NUsed=           0 NTot=          32
 NSgBfM=    57    57    57    57    57 MxSgAt=    11 MxSgA2=    11.
 Leave Link  302 at Tue Feb 25 12:21:53 2020, MaxMem=  6710886400 cpu:               3.1 elap:               0.2
 (Enter /opt/ohpc/pub/libs/gaussian/g16-A.03/haswell/g16/l303.exe)
 DipDrv:  MaxL=1.
 Leave Link  303 at Tue Feb 25 12:21:53 2020, MaxMem=  6710886400 cpu:               0.5 elap:               0.1
 (Enter /opt/ohpc/pub/libs/gaussian/g16-A.03/haswell/g16/l401.exe)
 ExpMin= 1.61D-01 ExpMax= 3.05D+03 ExpMxC= 4.57D+02 IAcc=3 IRadAn=         5 AccDes= 0.00D+00
 Harris functional with IExCor=33909 and IRadAn=       5 diagonalized for initial guess.
 HarFok:  IExCor=33909 AccDes= 0.00D+00 IRadAn=         5 IDoV= 1 UseB2=F ITyADJ=14
 ICtDFT=  3500011 ScaDFX=  1.000000  1.000000  1.000000  1.000000
 FoFCou: FMM=F IPFlag=           0 FMFlag=      100000 FMFlg1=           0
         NFxFlg=           0 DoJE=T BraDBF=F KetDBF=T FulRan=T
         wScrn=  0.000000 ICntrl=       500 IOpCl=  0 I1Cent=   200000004 NGrid=           0
         NMat0=    1 NMatS0=      1 NMatT0=    0 NMatD0=    1 NMtDS0=    0 NMtDT0=    0
 Petite list used in FoFCou.
 Harris En= -186.961547229832    
 JPrj=0 DoOrth=F DoCkMO=F.
 Initial guess orbital symmetries:
 Alpha Orbitals:
       Occupied  (A1) (B2) (A1) (B2) (A1) (A1) (B2) (A1) (A1) (B2)
                 (A1) (B2) (A1) (B2) (A1) (B1) (A2) (B1)
       Virtual   (A2) (B2) (B1) (A1) (A1) (B2) (A1) (B2) (A1) (B2)
                 (A1) (A1) (B2) (B2) (B1) (A2) (A1) (B1) (B2) (A1)
                 (A1) (A2) (B1) (B2) (B2) (A1) (B2) (A1) (A1) (B2)
                 (A1) (A1) (A1) (B2) (A1) (B2) (A1) (A1) (B2)
 Beta  Orbitals:
       Occupied  (A1) (B2) (A1) (B2) (A1) (A1) (B2) (A1) (A1) (B2)
                 (A1) (B2) (A1) (B2) (A1) (B1) (A2)
       Virtual   (B1) (A2) (B2) (B1) (A1) (A1) (B2) (A1) (B2) (A1)
                 (B2) (A1) (A1) (B2) (B2) (B1) (A2) (A1) (B1) (B2)
                 (A1) (A1) (A2) (B1) (B2) (B2) (A1) (B2) (A1) (A1)
                 (B2) (A1) (A1) (A1) (B2) (A1) (B2) (A1) (A1) (B2)
 The electronic state of the initial guess is 2-B1.
 Initial guess <Sx>= 0.0000 <Sy>= 0.0000 <Sz>= 0.5000 <S**2>= 0.7500 S= 0.5000
 Leave Link  401 at Tue Feb 25 12:21:53 2020, MaxMem=  6710886400 cpu:               4.3 elap:               0.3
 (Enter /opt/ohpc/pub/libs/gaussian/g16-A.03/haswell/g16/l502.exe)
 Keep R1 and R2 ints in memory in symmetry-blocked form, NReq=16815681.
 FoFCou: FMM=F IPFlag=           0 FMFlag=           0 FMFlg1=           0
         NFxFlg=           0 DoJE=F BraDBF=F KetDBF=F FulRan=T
         wScrn=  0.000000 ICntrl=       600 IOpCl=  0 I1Cent=           0 NGrid=           0
         NMat0=    1 NMatS0=   1653 NMatT0=    0 NMatD0=    1 NMtDS0=    0 NMtDT0=    0
 Petite list used in FoFCou.
 UHF open shell SCF:
 Using DIIS extrapolation, IDIIS=    10.
 NGot=  6710886400 LenX=  6710059561 LenY=  6710055871
 Requested convergence on RMS density matrix=1.00D-06 within  32 cycles.
 Requested convergence on MAX density matrix=1.00D-04.
 Requested convergence on             energy=1.00D-04.
 Virtual orbitals will be shifted by   0.500 hartree.
 No special actions if energy rises.
 Dynamic level shift is on during FON iterations.

 Cycle   1  Pass 1  IDiag  1:
 E= -193.416320100803    
 DIIS: error= 4.74D-02 at cycle   1 NSaved=   1.
 NSaved= 1 IEnMin= 1 EnMin= -193.416320100803     IErMin= 1 ErrMin= 4.74D-02
 ErrMax= 4.74D-02  0.00D+00 EMaxC= 1.00D+00 BMatC= 1.66D-01 BMatP= 1.66D-01
 IDIUse=1 WtCom= 1.00D+00 WtEn= 0.00D+00
 Coeff-Com:  0.100D+01
 Coeff:      0.100D+01
 Gap=     0.379 Goal=   None    Shift=    0.500
 T= 1770. Gap= 0.848 NK=0 IS=   19 IE=   57 IFin=   18
          NO(<0.9)=   0  NV(>0.1)=   0     18.00e < EF      0.00e >EF  Err=0.0D+00
 Gap=     0.262 Goal=   None    Shift=    0.500
 T= 1770. Gap= 0.765 NK=0 IS=   18 IE=   57 IFin=   17
          NO(<0.9)=   0  NV(>0.1)=   0     17.00e < EF      0.00e >EF  Err=0.0D+00
 GapD=    0.262 DampG=1.000 DampE=0.500 DampFc=0.5000 IDamp=-1.
 Damping current iteration by 5.00D-01
 RMSDP=6.70D-03 MaxDP=5.25D-02              OVMax= 9.65D-02

 Cycle   2  Pass 1  IDiag  1:
 E= -193.448093931293     Delta-E=       -0.031773830489 Rises=F Damp=T
 DIIS: error= 2.41D-02 at cycle   2 NSaved=   2.
 NSaved= 2 IEnMin= 2 EnMin= -193.448093931293     IErMin= 2 ErrMin= 2.41D-02
 ErrMax= 2.41D-02  0.00D+00 EMaxC= 1.00D+00 BMatC= 3.21D-02 BMatP= 1.66D-01
 IDIUse=1 WtCom= 1.00D+00 WtEn= 0.00D+00
 Coeff-Com: -0.585D+00 0.158D+01
 Coeff:     -0.585D+00 0.158D+01
 Gap=     0.445 Goal=   None    Shift=    0.500
 T= 1663. Gap= 0.931 NK=4 IS=   19 IE=   23 IFin=   18
          NO(<0.9)=   0  NV(>0.1)=   0     18.00e < EF      0.00e >EF  Err=0.0D+00
 Gap=     0.288 Goal=   None    Shift=    0.500
 T= 1663. Gap= 0.787 NK=4 IS=   18 IE=   23 IFin=   17
          NO(<0.9)=   0  NV(>0.1)=   0     17.00e < EF      0.00e >EF  Err=0.0D+00
 GapD=    0.288 DampG=1.000 DampE=0.500 DampFc=0.5000 IDamp=-1.
 Damping current iteration by 5.00D-01
 RMSDP=4.37D-03 MaxDP=3.41D-02 DE=-3.18D-02 OVMax= 1.74D-02

 Cycle   3  Pass 1  IDiag  1:
 E= -193.460199767685     Delta-E=       -0.012105836393 Rises=F Damp=T
 DIIS: error= 1.44D-02 at cycle   3 NSaved=   3.
 NSaved= 3 IEnMin= 3 EnMin= -193.460199767685     IErMin= 3 ErrMin= 1.44D-02
 ErrMax= 1.44D-02  0.00D+00 EMaxC= 1.00D+00 BMatC= 8.59D-03 BMatP= 3.21D-02
 IDIUse=1 WtCom= 1.00D+00 WtEn= 0.00D+00
 Coeff-Com:  0.393D+00-0.212D+01 0.273D+01
 Coeff:      0.393D+00-0.212D+01 0.273D+01
 Gap=     0.437 Goal=   None    Shift=    0.500
 T= 1468. Gap= 0.938 NK=0 IS=   19 IE=   57 IFin=   18
          NO(<0.9)=   0  NV(>0.1)=   0     18.00e < EF      0.00e >EF  Err=0.0D+00
 Gap=     0.294 Goal=   None    Shift=    0.500
 T= 1468. Gap= 0.794 NK=0 IS=   18 IE=   57 IFin=   17
          NO(<0.9)=   0  NV(>0.1)=   0     17.00e < EF      0.00e >EF  Err=0.0D+00
 GapD=    0.294 DampG=1.000 DampE=0.500 DampFc=0.5000 IDamp=-1.
 Damping current iteration by 5.00D-01
 RMSDP=2.62D-03 MaxDP=1.89D-02 DE=-1.21D-02 OVMax= 1.71D-02

 Cycle   4  Pass 1  IDiag  1:
 E= -193.466254386093     Delta-E=       -0.006054618408 Rises=F Damp=T
 DIIS: error= 9.63D-03 at cycle   4 NSaved=   4.
 NSaved= 4 IEnMin= 4 EnMin= -193.466254386093     IErMin= 4 ErrMin= 9.63D-03
 ErrMax= 9.63D-03  0.00D+00 EMaxC= 1.00D+00 BMatC= 3.13D-03 BMatP= 8.59D-03
 IDIUse=1 WtCom= 1.00D+00 WtEn= 0.00D+00
 Coeff-Com: -0.798D-01 0.130D+01-0.454D+01 0.433D+01
 Coeff:     -0.798D-01 0.130D+01-0.454D+01 0.433D+01
 Gap=     0.443 Goal=   None    Shift=    0.500
 T= 1121. Gap= 0.943 NK=0 IS=   19 IE=   57 IFin=   18
          NO(<0.9)=   0  NV(>0.1)=   0     18.00e < EF      0.00e >EF  Err=0.0D+00
 Gap=     0.299 Goal=   None    Shift=    0.500
 T= 1121. Gap= 0.799 NK=0 IS=   18 IE=   57 IFin=   17
          NO(<0.9)=   0  NV(>0.1)=   0     17.00e < EF      0.00e >EF  Err=0.0D+00
 GapD=    0.299 DampG=1.000 DampE=1.000 DampFc=1.0000 IDamp=-1.
 RMSDP=1.70D-03 MaxDP=1.61D-02 DE=-6.05D-03 OVMax= 1.75D-02

 Cycle   5  Pass 1  IDiag  1:
 E= -193.473758477572     Delta-E=       -0.007504091479 Rises=F Damp=F
 DIIS: error= 4.42D-03 at cycle   5 NSaved=   5.
 NSaved= 5 IEnMin= 5 EnMin= -193.473758477572     IErMin= 5 ErrMin= 4.42D-03
 ErrMax= 4.42D-03  0.00D+00 EMaxC= 1.00D+00 BMatC= 4.69D-04 BMatP= 3.13D-03
 IDIUse=1 WtCom= 1.00D+00 WtEn= 0.00D+00
 Coeff-Com: -0.190D+00 0.919D+00-0.653D+00-0.972D+00 0.190D+01
 Coeff:     -0.190D+00 0.919D+00-0.653D+00-0.972D+00 0.190D+01
 Gap=     0.445 Goal=   None    Shift=    0.500
 T=  806. Gap= 0.946 NK=0 IS=   19 IE=   57 IFin=   18
          NO(<0.9)=   0  NV(>0.1)=   0     18.00e < EF      0.00e >EF  Err=0.0D+00
 Gap=     0.303 Goal=   None    Shift=    0.500
 T=  806. Gap= 0.803 NK=0 IS=   18 IE=   57 IFin=   17
          NO(<0.9)=   0  NV(>0.1)=   0     17.00e < EF      0.00e >EF  Err=0.0D+00
 GapD=    0.303 DampG=1.000 DampE=1.000 DampFc=1.0000 IDamp=-1.
 RMSDP=4.43D-04 MaxDP=6.90D-03 DE=-7.50D-03 OVMax= 1.61D-02

 Cycle   6  Pass 1  IDiag  1:
 E= -193.474438587892     Delta-E=       -0.000680110320 Rises=F Damp=F
 DIIS: error= 3.32D-03 at cycle   6 NSaved=   6.
 NSaved= 6 IEnMin= 6 EnMin= -193.474438587892     IErMin= 6 ErrMin= 3.32D-03
 ErrMax= 3.32D-03  0.00D+00 EMaxC= 1.00D+00 BMatC= 2.14D-04 BMatP= 4.69D-04
 IDIUse=1 WtCom= 1.00D+00 WtEn= 0.00D+00
 Coeff-Com:  0.227D-01-0.457D+00 0.145D+01-0.125D+01-0.133D+01 0.256D+01
 Coeff:      0.227D-01-0.457D+00 0.145D+01-0.125D+01-0.133D+01 0.256D+01
 Gap=     0.447 Goal=   None    Shift=    0.500
 T=  509. Gap= 0.947 NK=0 IS=   19 IE=   57 IFin=   18
          NO(<0.9)=   0  NV(>0.1)=   0     18.00e < EF      0.00e >EF  Err=0.0D+00
 Gap=     0.305 Goal=   None    Shift=    0.500
 T=  509. Gap= 0.805 NK=0 IS=   18 IE=   57 IFin=   17
          NO(<0.9)=   0  NV(>0.1)=   0     17.00e < EF      0.00e >EF  Err=0.0D+00
 GapD=    0.305 DampG=1.000 DampE=1.000 DampFc=1.0000 IDamp=-1.
 RMSDP=3.63D-04 MaxDP=5.68D-03 DE=-6.80D-04 OVMax= 1.46D-02

 Cycle   7  Pass 1  IDiag  1:
 E= -193.474827741518     Delta-E=       -0.000389153626 Rises=F Damp=F
 DIIS: error= 2.38D-03 at cycle   7 NSaved=   7.
 NSaved= 7 IEnMin= 7 EnMin= -193.474827741518     IErMin= 7 ErrMin= 2.38D-03
 ErrMax= 2.38D-03  0.00D+00 EMaxC= 1.00D+00 BMatC= 9.32D-05 BMatP= 2.14D-04
 IDIUse=1 WtCom= 1.00D+00 WtEn= 0.00D+00
 Coeff-Com:  0.616D-02 0.604D-01-0.560D+00 0.816D+00-0.140D+00-0.186D+01
 Coeff-Com:  0.268D+01
 Coeff:      0.616D-02 0.604D-01-0.560D+00 0.816D+00-0.140D+00-0.186D+01
 Coeff:      0.268D+01
 Gap=     0.447 Goal=   None    Shift=    0.500
 T=  184. Gap= 0.947 NK=0 IS=   19 IE=   57 IFin=   18
          NO(<0.9)=   0  NV(>0.1)=   0     18.00e < EF      0.00e >EF  Err=0.0D+00
 Gap=     0.306 Goal=   None    Shift=    0.500
 T=  184. Gap= 0.807 NK=0 IS=   18 IE=   57 IFin=   17
          NO(<0.9)=   0  NV(>0.1)=   0     17.00e < EF      0.00e >EF  Err=0.0D+00
 GapD=    0.306 DampG=1.000 DampE=1.000 DampFc=1.0000 IDamp=-1.
 RMSDP=2.52D-04 MaxDP=3.63D-03 DE=-3.89D-04 OVMax= 1.10D-02

 Cycle   8  Pass 1  IDiag  1:
 E= -193.475001106528     Delta-E=       -0.000173365011 Rises=F Damp=F
 DIIS: error= 1.66D-03 at cycle   8 NSaved=   8.
 NSaved= 8 IEnMin= 8 EnMin= -193.475001106528     IErMin= 8 ErrMin= 1.66D-03
 ErrMax= 1.66D-03  0.00D+00 EMaxC= 1.00D+00 BMatC= 4.35D-05 BMatP= 9.32D-05
 IDIUse=1 WtCom= 1.00D+00 WtEn= 0.00D+00
 Coeff-Com: -0.205D-01 0.317D+00-0.106D+01 0.988D+00 0.741D+00-0.220D+01
 Coeff-Com:  0.179D+00 0.205D+01
 Coeff:     -0.205D-01 0.317D+00-0.106D+01 0.988D+00 0.741D+00-0.220D+01
 Coeff:      0.179D+00 0.205D+01
 Gap=     0.447 Goal=   None    Shift=    0.500
 Gap=     0.307 Goal=   None    Shift=    0.500
 GapD=    0.307 DampG=1.000 DampE=1.000 DampFc=1.0000 IDamp=-1.
 RMSDP=1.85D-04 MaxDP=2.57D-03 DE=-1.73D-04 OVMax= 8.48D-03

 Cycle   9  Pass 1  IDiag  1:
 E= -193.475082991450     Delta-E=       -0.000081884921 Rises=F Damp=F
 DIIS: error= 1.10D-03 at cycle   9 NSaved=   9.
 NSaved= 9 IEnMin= 9 EnMin= -193.475082991450     IErMin= 9 ErrMin= 1.10D-03
 ErrMax= 1.10D-03  0.00D+00 EMaxC= 1.00D+00 BMatC= 1.83D-05 BMatP= 4.35D-05
 IDIUse=1 WtCom= 1.00D+00 WtEn= 0.00D+00
 Coeff-Com:  0.117D-01-0.214D+00 0.869D+00-0.957D+00-0.244D+00 0.199D+01
 Coeff-Com: -0.155D+01-0.259D+01 0.368D+01
 Coeff:      0.117D-01-0.214D+00 0.869D+00-0.957D+00-0.244D+00 0.199D+01
 Coeff:     -0.155D+01-0.259D+01 0.368D+01
 Gap=     0.447 Goal=   None    Shift=    0.500
 Gap=     0.307 Goal=   None    Shift=    0.500
 GapD=    0.307 DampG=1.000 DampE=1.000 DampFc=1.0000 IDamp=-1.
 RMSDP=1.42D-04 MaxDP=2.09D-03 DE=-8.19D-05 OVMax= 6.96D-03

 Cycle  10  Pass 1  IDiag  1:
 E= -193.475122875690     Delta-E=       -0.000039884240 Rises=F Damp=F
 DIIS: error= 6.61D-04 at cycle  10 NSaved=  10.
 NSaved=10 IEnMin=10 EnMin= -193.475122875690     IErMin=10 ErrMin= 6.61D-04
 ErrMax= 6.61D-04  0.00D+00 EMaxC= 1.00D+00 BMatC= 6.67D-06 BMatP= 1.83D-05
 IDIUse=1 WtCom= 1.00D+00 WtEn= 0.00D+00
 Coeff-Com: -0.114D-02 0.588D-01-0.275D+00 0.323D+00 0.369D-01-0.645D+00
 Coeff-Com:  0.790D+00 0.504D+00-0.281D+01 0.302D+01
 Coeff:     -0.114D-02 0.588D-01-0.275D+00 0.323D+00 0.369D-01-0.645D+00
 Coeff:      0.790D+00 0.504D+00-0.281D+01 0.302D+01
 Gap=     0.447 Goal=   None    Shift=    0.500
 Gap=     0.307 Goal=   None    Shift=    0.500
 RMSDP=8.56D-05 MaxDP=1.34D-03 DE=-3.99D-05 OVMax= 4.36D-03

 Cycle  11  Pass 1  IDiag  1:
 E= -193.475137374045     Delta-E=       -0.000014498355 Rises=F Damp=F
 DIIS: error= 3.90D-04 at cycle  11 NSaved=  11.
 NSaved=11 IEnMin=11 EnMin= -193.475137374045     IErMin=11 ErrMin= 3.90D-04
 ErrMax= 3.90D-04  0.00D+00 EMaxC= 1.00D+00 BMatC= 2.55D-06 BMatP= 6.67D-06
 IDIUse=1 WtCom= 1.00D+00 WtEn= 0.00D+00
 Coeff-Com:  0.500D-02-0.105D+00 0.469D+00-0.551D+00-0.298D-01 0.105D+01
 Coeff-Com: -0.120D+01-0.116D+01 0.455D+01-0.692D+01 0.490D+01
 Coeff:      0.500D-02-0.105D+00 0.469D+00-0.551D+00-0.298D-01 0.105D+01
 Coeff:     -0.120D+01-0.116D+01 0.455D+01-0.692D+01 0.490D+01
 Gap=     0.447 Goal=   None    Shift=    0.500
 Gap=     0.307 Goal=   None    Shift=    0.500
 RMSDP=5.50D-05 MaxDP=8.26D-04 DE=-1.45D-05 OVMax= 2.84D-03

 Cycle  12  Pass 1  IDiag  1:
 E= -193.475142959672     Delta-E=       -0.000005585627 Rises=F Damp=F
 DIIS: error= 2.20D-04 at cycle  12 NSaved=  12.
 NSaved=12 IEnMin=12 EnMin= -193.475142959672     IErMin=12 ErrMin= 2.20D-04
 ErrMax= 2.20D-04  0.00D+00 EMaxC= 1.00D+00 BMatC= 8.87D-07 BMatP= 2.55D-06
 IDIUse=1 WtCom= 1.00D+00 WtEn= 0.00D+00
 Coeff-Com: -0.182D-03 0.580D-02-0.332D-01 0.457D-01-0.173D-01-0.708D-01
 Coeff-Com:  0.200D+00 0.728D-02-0.999D+00 0.254D+01-0.396D+01 0.329D+01
 Coeff:     -0.182D-03 0.580D-02-0.332D-01 0.457D-01-0.173D-01-0.708D-01
 Coeff:      0.200D+00 0.728D-02-0.999D+00 0.254D+01-0.396D+01 0.329D+01
 Gap=     0.447 Goal=   None    Shift=    0.500
 Gap=     0.307 Goal=   None    Shift=    0.500
 RMSDP=3.27D-05 MaxDP=4.76D-04 DE=-5.59D-06 OVMax= 1.69D-03

 Cycle  13  Pass 1  IDiag  1:
 E= -193.475144869830     Delta-E=       -0.000001910158 Rises=F Damp=F
 DIIS: error= 1.20D-04 at cycle  13 NSaved=  13.
 NSaved=13 IEnMin=13 EnMin= -193.475144869830     IErMin=13 ErrMin= 1.20D-04
 ErrMax= 1.20D-04  0.00D+00 EMaxC= 1.00D+00 BMatC= 3.02D-07 BMatP= 8.87D-07
 IDIUse=1 WtCom= 1.00D+00 WtEn= 0.00D+00
 Coeff-Com:  0.154D-02-0.179D-01 0.797D-01-0.985D-01 0.184D-01 0.162D+00
 Coeff-Com: -0.250D+00-0.184D+00 0.118D+01-0.247D+01 0.365D+01-0.504D+01
 Coeff-Com:  0.397D+01
 Coeff:      0.154D-02-0.179D-01 0.797D-01-0.985D-01 0.184D-01 0.162D+00
 Coeff:     -0.250D+00-0.184D+00 0.118D+01-0.247D+01 0.365D+01-0.504D+01
 Coeff:      0.397D+01
 Gap=     0.447 Goal=   None    Shift=    0.500
 Gap=     0.307 Goal=   None    Shift=    0.500
 RMSDP=1.94D-05 MaxDP=2.81D-04 DE=-1.91D-06 OVMax= 1.00D-03

 Cycle  14  Pass 1  IDiag  1:
 E= -193.475145504781     Delta-E=       -0.000000634951 Rises=F Damp=F
 DIIS: error= 6.21D-05 at cycle  14 NSaved=  14.
 NSaved=14 IEnMin=14 EnMin= -193.475145504781     IErMin=14 ErrMin= 6.21D-05
 ErrMax= 6.21D-05  0.00D+00 EMaxC= 1.00D+00 BMatC= 1.01D-07 BMatP= 3.02D-07
 IDIUse=1 WtCom= 1.00D+00 WtEn= 0.00D+00
 Coeff-Com:  0.584D-03-0.801D-02 0.314D-01-0.344D-01-0.949D-02 0.647D-01
 Coeff-Com: -0.289D-01-0.862D-01 0.897D-01 0.104D+00-0.715D+00 0.188D+01
 Coeff-Com: -0.344D+01 0.316D+01
 Coeff:      0.584D-03-0.801D-02 0.314D-01-0.344D-01-0.949D-02 0.647D-01
 Coeff:     -0.289D-01-0.862D-01 0.897D-01 0.104D+00-0.715D+00 0.188D+01
 Coeff:     -0.344D+01 0.316D+01
 Gap=     0.447 Goal=   None    Shift=    0.500
 Gap=     0.307 Goal=   None    Shift=    0.500
 RMSDP=1.06D-05 MaxDP=1.52D-04 DE=-6.35D-07 OVMax= 5.57D-04

 Cycle  15  Pass 1  IDiag  1:
 E= -193.475145696508     Delta-E=       -0.000000191726 Rises=F Damp=F
 DIIS: error= 3.18D-05 at cycle  15 NSaved=  15.
 NSaved=15 IEnMin=15 EnMin= -193.475145696508     IErMin=15 ErrMin= 3.18D-05
 ErrMax= 3.18D-05  0.00D+00 EMaxC= 1.00D+00 BMatC= 3.15D-08 BMatP= 1.01D-07
 IDIUse=1 WtCom= 1.00D+00 WtEn= 0.00D+00
 Coeff-Com: -0.262D-03 0.292D-02-0.102D-01 0.105D-01 0.541D-02-0.222D-01
 Coeff-Com:  0.704D-02 0.247D-01 0.526D-02-0.120D+00 0.446D+00-0.132D+01
 Coeff-Com:  0.271D+01-0.437D+01 0.363D+01
 Coeff:     -0.262D-03 0.292D-02-0.102D-01 0.105D-01 0.541D-02-0.222D-01
 Coeff:      0.704D-02 0.247D-01 0.526D-02-0.120D+00 0.446D+00-0.132D+01
 Coeff:      0.271D+01-0.437D+01 0.363D+01
 Gap=     0.447 Goal=   None    Shift=    0.500
 Gap=     0.307 Goal=   None    Shift=    0.500
 RMSDP=5.50D-06 MaxDP=7.34D-05 DE=-1.92D-07 OVMax= 2.90D-04

 Cycle  16  Pass 1  IDiag  1:
 E= -193.475145749487     Delta-E=       -0.000000052979 Rises=F Damp=F
 DIIS: error= 1.59D-05 at cycle  16 NSaved=  16.
 NSaved=16 IEnMin=16 EnMin= -193.475145749487     IErMin=16 ErrMin= 1.59D-05
 ErrMax= 1.59D-05  0.00D+00 EMaxC= 1.00D+00 BMatC= 9.68D-09 BMatP= 3.15D-08
 IDIUse=1 WtCom= 1.00D+00 WtEn= 0.00D+00
 Coeff-Com:  0.182D-03-0.171D-02 0.730D-02-0.894D-02 0.150D-02 0.968D-02
 Coeff-Com: -0.674D-02-0.214D-01 0.658D-01-0.112D+00 0.843D-01 0.903D-01
 Coeff-Com: -0.607D+00 0.176D+01-0.356D+01 0.330D+01
 Coeff:      0.182D-03-0.171D-02 0.730D-02-0.894D-02 0.150D-02 0.968D-02
 Coeff:     -0.674D-02-0.214D-01 0.658D-01-0.112D+00 0.843D-01 0.903D-01
 Coeff:     -0.607D+00 0.176D+01-0.356D+01 0.330D+01
 Gap=     0.447 Goal=   None    Shift=    0.500
 Gap=     0.307 Goal=   None    Shift=    0.500
 RMSDP=2.75D-06 MaxDP=3.63D-05 DE=-5.30D-08 OVMax= 1.46D-04

 Cycle  17  Pass 1  IDiag  1:
 E= -193.475145763818     Delta-E=       -0.000000014331 Rises=F Damp=F
 DIIS: error= 8.19D-06 at cycle  17 NSaved=  17.
 NSaved=17 IEnMin=17 EnMin= -193.475145763818     IErMin=17 ErrMin= 8.19D-06
 ErrMax= 8.19D-06  0.00D+00 EMaxC= 1.00D+00 BMatC= 2.79D-09 BMatP= 9.68D-09
 IDIUse=1 WtCom= 1.00D+00 WtEn= 0.00D+00
 Coeff-Com: -0.123D-03 0.130D-02-0.528D-02 0.622D-02 0.330D-04-0.960D-02
 Coeff-Com:  0.927D-02 0.107D-01-0.353D-01 0.506D-01-0.154D-01-0.133D+00
 Coeff-Com:  0.477D+00-0.122D+01 0.249D+01-0.409D+01 0.346D+01
 Coeff:     -0.123D-03 0.130D-02-0.528D-02 0.622D-02 0.330D-04-0.960D-02
 Coeff:      0.927D-02 0.107D-01-0.353D-01 0.506D-01-0.154D-01-0.133D+00
 Coeff:      0.477D+00-0.122D+01 0.249D+01-0.409D+01 0.346D+01
 Gap=     0.447 Goal=   None    Shift=    0.500
 Gap=     0.307 Goal=   None    Shift=    0.500
 RMSDP=1.35D-06 MaxDP=1.78D-05 DE=-1.43D-08 OVMax= 7.22D-05

 Cycle  18  Pass 1  IDiag  1:
 E= -193.475145767691     Delta-E=       -0.000000003873 Rises=F Damp=F
 DIIS: error= 4.71D-06 at cycle  18 NSaved=  18.
 NSaved=18 IEnMin=18 EnMin= -193.475145767691     IErMin=18 ErrMin= 4.71D-06
 ErrMax= 4.71D-06  0.00D+00 EMaxC= 1.00D+00 BMatC= 7.96D-10 BMatP= 2.79D-09
 IDIUse=1 WtCom= 1.00D+00 WtEn= 0.00D+00
 Coeff-Com:  0.461D-04-0.405D-03 0.194D-02-0.255D-02 0.101D-02 0.109D-02
 Coeff-Com: -0.336D-03-0.589D-02 0.193D-01-0.369D-01 0.303D-01 0.341D-01
 Coeff-Com: -0.219D+00 0.696D+00-0.172D+01 0.317D+01-0.455D+01 0.359D+01
 Coeff:      0.461D-04-0.405D-03 0.194D-02-0.255D-02 0.101D-02 0.109D-02
 Coeff:     -0.336D-03-0.589D-02 0.193D-01-0.369D-01 0.303D-01 0.341D-01
 Coeff:     -0.219D+00 0.696D+00-0.172D+01 0.317D+01-0.455D+01 0.359D+01
 Gap=     0.447 Goal=   None    Shift=    0.500
 Gap=     0.307 Goal=   None    Shift=    0.500
 RMSDP=6.79D-07 MaxDP=9.15D-06 DE=-3.87D-09 OVMax= 3.66D-05

 SCF Done:  E(ULC-wHPBE) =  -193.475145768     A.U. after   18 cycles
            NFock= 18  Conv=0.68D-06     -V/T= 2.0053
 <Sx>= 0.0000 <Sy>= 0.0000 <Sz>= 0.5000 <S**2>= 0.8187 S= 0.5338
 <L.S>= 0.000000000000E+00
 KE= 1.924567750106D+02 PE=-7.499827189784D+02 EE= 2.089039394927D+02
 Annihilation of the first spin contaminant:
 S**2 before annihilation     0.8187,   after     0.7527
 Leave Link  502 at Tue Feb 25 12:21:55 2020, MaxMem=  6710886400 cpu:              25.5 elap:               1.6
 (Enter /opt/ohpc/pub/libs/gaussian/g16-A.03/haswell/g16/l508.exe)
 QCSCF skips out because SCF is already converged.
 Leave Link  508 at Tue Feb 25 12:21:55 2020, MaxMem=  6710886400 cpu:               0.0 elap:               0.1
 (Enter /opt/ohpc/pub/libs/gaussian/g16-A.03/haswell/g16/l601.exe)
 Copying SCF densities to generalized density rwf, IOpCl= 1 IROHF=0.

 **********************************************************************

            Population analysis using the SCF density.

 **********************************************************************

 Orbital symmetries:
 Alpha Orbitals:
       Occupied  (B2) (A1) (A1) (B2) (A1) (A1) (A1) (B2) (A1) (B2)
                 (A1) (B2) (A1) (A1) (B1) (B2) (A2) (B1)
       Virtual   (B2) (A2) (B1) (A1) (A1) (B2) (A1) (B2) (A1) (A1)
                 (B2) (A1) (B2) (B1) (B2) (B1) (A2) (A1) (A1) (B2)
                 (A1) (A2) (B1) (B2) (B2) (A1) (A1) (B2) (A1) (B2)
                 (A1) (A1) (A1) (B2) (A1) (B2) (A1) (A1) (B2)
 Beta  Orbitals:
       Occupied  (B2) (A1) (B2) (A1) (A1) (A1) (A1) (B2) (A1) (B2)
                 (A1) (B2) (A1) (A1) (B2) (B1) (A2)
       Virtual   (B1) (B2) (A2) (A1) (B1) (A1) (B2) (A1) (B2) (A1)
                 (B2) (A1) (A1) (B2) (B2) (B1) (A1) (A2) (B1) (A1)
                 (B2) (A1) (A2) (B1) (B2) (B2) (A1) (A1) (B2) (A1)
                 (B2) (A1) (A1) (A1) (B2) (A1) (B2) (A1) (A1) (B2)
 The electronic state is 2-B1.
 Alpha  occ. eigenvalues --  -10.40776 -10.40774 -10.35595 -10.34819 -10.34817
 Alpha  occ. eigenvalues --   -1.27425  -1.14195  -1.09795  -0.95324  -0.93208
 Alpha  occ. eigenvalues --   -0.88340  -0.78417  -0.75710  -0.74720  -0.74190
 Alpha  occ. eigenvalues --   -0.72497  -0.59051  -0.57566
 Alpha virt. eigenvalues --   -0.12858  -0.12584  -0.05308  -0.04548   0.00587
 Alpha virt. eigenvalues --    0.05375   0.07360   0.09685   0.09854   0.21038
 Alpha virt. eigenvalues --    0.21086   0.31188   0.32511   0.40563   0.41226
 Alpha virt. eigenvalues --    0.48398   0.48921   0.49382   0.52062   0.52940
 Alpha virt. eigenvalues --    0.53005   0.56297   0.57837   0.65786   0.72281
 Alpha virt. eigenvalues --    0.74515   0.76068   0.78403   0.78579   0.84842
 Alpha virt. eigenvalues --    0.84900   0.89284   0.93288   0.99527   1.07719
 Alpha virt. eigenvalues --    1.08739   1.14047   1.36020   1.37439
  Beta  occ. eigenvalues --  -10.40175 -10.40170 -10.35143 -10.35142 -10.34665
  Beta  occ. eigenvalues --   -1.26167  -1.12153  -1.09566  -0.94270  -0.92448
  Beta  occ. eigenvalues --   -0.88080  -0.78119  -0.75426  -0.74152  -0.72362
  Beta  occ. eigenvalues --   -0.69330  -0.57650
  Beta virt. eigenvalues --   -0.26924  -0.11385  -0.09378  -0.04318  -0.01818
  Beta virt. eigenvalues --    0.01005   0.05653   0.07597   0.09614   0.10402
  Beta virt. eigenvalues --    0.21407   0.21539   0.31576   0.32887   0.41611
  Beta virt. eigenvalues --    0.42843   0.49897   0.49919   0.51165   0.52424
  Beta virt. eigenvalues --    0.53349   0.54123   0.56806   0.59288   0.66350
  Beta virt. eigenvalues --    0.72778   0.75443   0.76646   0.78257   0.79104
  Beta virt. eigenvalues --    0.85140   0.85302   0.90322   0.93896   0.99507
  Beta virt. eigenvalues --    1.08179   1.09243   1.15057   1.36832   1.38208
          Condensed to atoms (all electrons):
               1          2          3          4          5          6
     1  C    5.357900   0.497801  -0.041747  -0.127692   0.181673   0.166343
     2  C    0.497801   4.966446   0.455911  -0.023684  -0.127692  -0.025131
     3  C   -0.041747   0.455911   4.880508   0.455911  -0.041747   0.008393
     4  C   -0.127692  -0.023684   0.455911   4.966446   0.497801  -0.025131
     5  C    0.181673  -0.127692  -0.041747   0.497801   5.357900   0.166343
     6  H    0.166343  -0.025131   0.008393  -0.025131   0.166343   0.356296
     7  H    0.337798   0.004916  -0.000367   0.003145  -0.014909  -0.009515
     8  H   -0.022866   0.361899  -0.011391   0.003897   0.000755   0.000382
     9  H    0.004992  -0.026629   0.366498  -0.026629   0.004992  -0.000029
    10  H    0.000755   0.003897  -0.011391   0.361899  -0.022866   0.000382
    11  H   -0.014909   0.003145  -0.000367   0.004916   0.337798  -0.009515
               7          8          9         10         11
     1  C    0.337798  -0.022866   0.004992   0.000755  -0.014909
     2  C    0.004916   0.361899  -0.026629   0.003897   0.003145
     3  C   -0.000367  -0.011391   0.366498  -0.011391  -0.000367
     4  C    0.003145   0.003897  -0.026629   0.361899   0.004916
     5  C   -0.014909   0.000755   0.004992  -0.022866   0.337798
     6  H   -0.009515   0.000382  -0.000029   0.000382  -0.009515
     7  H    0.336349   0.000131  -0.000051  -0.000015   0.000363
     8  H    0.000131   0.376435  -0.001291  -0.000081  -0.000015
     9  H   -0.000051  -0.001291   0.397204  -0.001291  -0.000051
    10  H   -0.000015  -0.000081  -0.001291   0.376435   0.000131
    11  H    0.000363  -0.000015  -0.000051   0.000131   0.336349
          Atomic-Atomic Spin Densities.
               1          2          3          4          5          6
     1  C    0.523216  -0.040263  -0.023660  -0.008989   0.023694  -0.004096
     2  C   -0.040263  -0.275841   0.028888   0.001000  -0.008989   0.000342
     3  C   -0.023660   0.028888   0.726530   0.028888  -0.023660   0.000196
     4  C   -0.008989   0.001000   0.028888  -0.275841  -0.040263   0.000342
     5  C    0.023694  -0.008989  -0.023660  -0.040263   0.523216  -0.004096
     6  H   -0.004096   0.000342   0.000196   0.000342  -0.004096  -0.015198
     7  H   -0.003156  -0.000527   0.000107  -0.000099   0.000216  -0.000255
     8  H   -0.000268   0.001931  -0.000938  -0.000143   0.000076   0.000027
     9  H   -0.000031  -0.000018  -0.001549  -0.000018  -0.000031  -0.000003
    10  H    0.000076  -0.000143  -0.000938   0.001931  -0.000268   0.000027
    11  H    0.000216  -0.000099   0.000107  -0.000527  -0.003156  -0.000255
               7          8          9         10         11
     1  C   -0.003156  -0.000268  -0.000031   0.000076   0.000216
     2  C   -0.000527   0.001931  -0.000018  -0.000143  -0.000099
     3  C    0.000107  -0.000938  -0.001549  -0.000938   0.000107
     4  C   -0.000099  -0.000143  -0.000018   0.001931  -0.000527
     5  C    0.000216   0.000076  -0.000031  -0.000268  -0.003156
     6  H   -0.000255   0.000027  -0.000003   0.000027  -0.000255
     7  H   -0.018395   0.000049   0.000004  -0.000000  -0.000069
     8  H    0.000049   0.007566   0.000017  -0.000000  -0.000000
     9  H    0.000004   0.000017  -0.027816   0.000017   0.000004
    10  H   -0.000000  -0.000000   0.000017   0.007566   0.000049
    11  H   -0.000069  -0.000000   0.000004   0.000049  -0.018395
 Mulliken charges and spin densities:
               1          2
     1  C   -0.340049   0.466738
     2  C   -0.090880  -0.293719
     3  C   -0.060212   0.733969
     4  C   -0.090880  -0.293719
     5  C   -0.340049   0.466738
     6  H    0.371182  -0.022968
     7  H    0.342155  -0.022125
     8  H    0.292146   0.008318
     9  H    0.282284  -0.029426
    10  H    0.292146   0.008318
    11  H    0.342155  -0.022125
 Sum of Mulliken charges =   1.00000   1.00000
 Mulliken charges and spin densities with hydrogens summed into heavy atoms:
               1          2
     1  C    0.373289   0.421646
     2  C    0.201267  -0.285401
     3  C    0.222072   0.704543
     4  C    0.201267  -0.285401
     5  C    0.002106   0.444613
 Electronic spatial extent (au):  <R**2>=            322.3972
 Charge=              1.0000 electrons
 Dipole moment (field-independent basis, Debye):
    X=             -0.0000    Y=             -0.0000    Z=             -2.0259  Tot=              2.0259
 Quadrupole moment (field-independent basis, Debye-Ang):
   XX=            -31.5597   YY=            -17.3878   ZZ=            -13.2186
   XY=              0.0000   XZ=              0.0000   YZ=             -0.0000
 Traceless Quadrupole moment (field-independent basis, Debye-Ang):
   XX=            -10.8377   YY=              3.3342   ZZ=              7.5034
   XY=              0.0000   XZ=              0.0000   YZ=             -0.0000
 Octapole moment (field-independent basis, Debye-Ang**2):
  XXX=              0.0000  YYY=             -0.0000  ZZZ=             -7.5373  XYY=             -0.0000
  XXY=             -0.0000  XXZ=              0.6958  XZZ=              0.0000  YZZ=              0.0000
  YYZ=             -2.8282  XYZ=             -0.0000
 Hexadecapole moment (field-independent basis, Debye-Ang**3):
 XXXX=            -31.7321 YYYY=           -147.2640 ZZZZ=           -126.6361 XXXY=             -0.0000
 XXXZ=             -0.0000 YYYX=             -0.0000 YYYZ=             -0.0000 ZZZX=              0.0000
 ZZZY=             -0.0000 XXYY=            -43.2308 XXZZ=            -39.3727 YYZZ=            -42.8260
 XXYZ=             -0.0000 YYXZ=             -0.0000 ZZXY=             -0.0000
 N-N= 1.551468587074D+02 E-N=-7.499827255270D+02  KE= 1.924567750106D+02
 Symmetry A1   KE= 1.112635221742D+02
 Symmetry A2   KE= 2.499814153986D+00
 Symmetry B1   KE= 3.216255768411D+00
 Symmetry B2   KE= 7.547718291403D+01
 Symmetry A1   SP=-1.606188453101D-14
 Symmetry A2   SP=-3.004270937220D-15
 Symmetry B1   SP= 1.000000000000D+00
 Symmetry B2   SP=-1.561974163207D-14
                          Isotropic Fermi Contact Couplings
        Atom                 a.u.       MegaHertz       Gauss      10(-4) cm-1
     1  C(13)              0.07099      79.80922      28.47791      26.62149
     2  C(13)             -0.05053     -56.81018     -20.27128     -18.94984
     3  C(13)              0.10257     115.30647      41.14421      38.46210
     4  C(13)             -0.05053     -56.81018     -20.27128     -18.94984
     5  C(13)              0.07099      79.80922      28.47791      26.62149
     6  H(1)              -0.00849     -37.95552     -13.54347     -12.66060
     7  H(1)              -0.00911     -40.70269     -14.52373     -13.57696
     8  H(1)               0.00321      14.34712       5.11941       4.78569
     9  H(1)              -0.01265     -56.52517     -20.16959     -18.85477
    10  H(1)               0.00321      14.34712       5.11941       4.78569
    11  H(1)              -0.00911     -40.70269     -14.52373     -13.57696
 --------------------------------------------------------
       Center         ----  Spin Dipole Couplings  ----
                      3XX-RR        3YY-RR        3ZZ-RR
 --------------------------------------------------------
     1   Atom        0.477112     -0.232139     -0.244973
     2   Atom       -0.198508      0.097154      0.101354
     3   Atom        0.689613     -0.352761     -0.336852
     4   Atom       -0.198508      0.097154      0.101354
     5   Atom        0.477112     -0.232139     -0.244973
     6   Atom       -0.007366      0.009439     -0.002073
     7   Atom       -0.006119      0.005996      0.000123
     8   Atom       -0.006291     -0.001337      0.007628
     9   Atom       -0.007747     -0.045253      0.053000
    10   Atom       -0.006291     -0.001337      0.007628
    11   Atom       -0.006119      0.005996      0.000123
 --------------------------------------------------------
                        XY            XZ            YZ
 --------------------------------------------------------
     1   Atom       -0.000000      0.000000     -0.008608
     2   Atom       -0.000000      0.000000     -0.006106
     3   Atom       -0.000000     -0.000000     -0.000000
     4   Atom       -0.000000     -0.000000      0.006106
     5   Atom        0.000000      0.000000      0.008608
     6   Atom       -0.000000      0.000000     -0.000000
     7   Atom        0.000000      0.000000     -0.034780
     8   Atom       -0.000000      0.000000     -0.006399
     9   Atom       -0.000000     -0.000000      0.000000
    10   Atom        0.000000     -0.000000      0.006399
    11   Atom       -0.000000     -0.000000      0.034780
 --------------------------------------------------------


 ---------------------------------------------------------------------------------
              Anisotropic Spin Dipole Couplings in Principal Axis System
 ---------------------------------------------------------------------------------

       Atom             a.u.   MegaHertz   Gauss  10(-4) cm-1        Axes

              Baa    -0.2493   -33.453   -11.937   -11.159 -0.0000  0.4485  0.8938
     1 C(13)  Bbb    -0.2278   -30.571   -10.909   -10.197 -0.0000  0.8938 -0.4485
              Bcc     0.4771    64.024    22.845    21.356  1.0000  0.0000  0.0000
 
              Baa    -0.1985   -26.638    -9.505    -8.885  1.0000  0.0000  0.0000
     2 C(13)  Bbb     0.0928    12.452     4.443     4.154 -0.0000  0.8140  0.5809
              Bcc     0.1057    14.185     5.062     4.732  0.0000 -0.5809  0.8140
 
              Baa    -0.3528   -47.337   -16.891   -15.790 -0.0000  1.0000 -0.0000
     3 C(13)  Bbb    -0.3369   -45.202   -16.129   -15.078  0.0000  0.0000  1.0000
              Bcc     0.6896    92.540    33.020    30.868  1.0000 -0.0000 -0.0000
 
              Baa    -0.1985   -26.638    -9.505    -8.885  1.0000  0.0000  0.0000
     4 C(13)  Bbb     0.0928    12.452     4.443     4.154 -0.0000  0.8140 -0.5809
              Bcc     0.1057    14.185     5.062     4.732 -0.0000  0.5809  0.8140
 
              Baa    -0.2493   -33.453   -11.937   -11.159 -0.0000 -0.4485  0.8938
     5 C(13)  Bbb    -0.2278   -30.571   -10.909   -10.197  0.0000  0.8938  0.4485
              Bcc     0.4771    64.024    22.845    21.356  1.0000 -0.0000  0.0000
 
              Baa    -0.0074    -3.930    -1.402    -1.311  1.0000  0.0000 -0.0000
     6 H(1)   Bbb    -0.0021    -1.106    -0.395    -0.369  0.0000  0.0000  1.0000
              Bcc     0.0094     5.036     1.797     1.680  0.0000  1.0000 -0.0000
 
              Baa    -0.0318   -16.990    -6.063    -5.667 -0.0000  0.6767  0.7362
     7 H(1)   Bbb    -0.0061    -3.265    -1.165    -1.089  1.0000  0.0000  0.0000
              Bcc     0.0380    20.255     7.228     6.756 -0.0000  0.7362 -0.6767
 
              Baa    -0.0063    -3.357    -1.198    -1.120  1.0000  0.0000  0.0000
     8 H(1)   Bbb    -0.0047    -2.490    -0.889    -0.831 -0.0000  0.8871  0.4617
              Bcc     0.0110     5.847     2.086     1.950  0.0000 -0.4617  0.8871
 
              Baa    -0.0453   -24.145    -8.616    -8.054  0.0000  1.0000 -0.0000
     9 H(1)   Bbb    -0.0077    -4.133    -1.475    -1.379  1.0000 -0.0000  0.0000
              Bcc     0.0530    28.278    10.090     9.433  0.0000  0.0000  1.0000
 
              Baa    -0.0063    -3.357    -1.198    -1.120  1.0000 -0.0000  0.0000
    10 H(1)   Bbb    -0.0047    -2.490    -0.889    -0.831  0.0000  0.8871 -0.4617
              Bcc     0.0110     5.847     2.086     1.950  0.0000  0.4617  0.8871
 
              Baa    -0.0318   -16.990    -6.063    -5.667  0.0000 -0.6767  0.7362
    11 H(1)   Bbb    -0.0061    -3.265    -1.165    -1.089  1.0000  0.0000  0.0000
              Bcc     0.0380    20.255     7.228     6.756 -0.0000  0.7362  0.6767
 

 ---------------------------------------------------------------------------------

 No NMR shielding tensors so no spin-rotation constants.
 Leave Link  601 at Tue Feb 25 12:21:55 2020, MaxMem=  6710886400 cpu:               5.9 elap:               0.5
 (Enter /opt/ohpc/pub/libs/gaussian/g16-A.03/haswell/g16/l9999.exe)

 Test job not archived.
 1\1\GINC-HASWELL008\SP\ULC-wHPBE\6-31G\C5H6(1+,2)\SMGO234\25-Feb-2020\
 0\\#P uLC-wHPBE/6-31G iop(3/107=0378100000, 3/108=0378100000) scf=(con
 ver=6,fermi,ndamp=35,noincfock,novaracc,vshift=500,xqc)\\H6 C5\\1,2\C,
 0,0.,0.897082,-0.935245\C,0,0.,1.134094,0.425375\C,0,0.,0.,1.243051\C,
 0,0.,-1.134094,0.425375\C,0,0.,-0.897082,-0.935245\H,0,0.,0.,-1.723356
 \H,0,0.,1.622537,-1.745737\H,0,0.,2.164126,0.77433\H,0,0.,0.,2.326294\
 H,0,0.,-2.164126,0.77433\H,0,0.,-1.622537,-1.745737\\Version=ES64L-G16
 RevA.03\State=2-B1\HF=-193.4751458\S2=0.818747\S2-1=0.\S2A=0.752669\RM
 SD=6.793e-07\Dipole=0.,0.,-0.7970322\Quadrupole=-8.0575341,2.4789107,5
 .5786234,0.,0.,0.\PG=C02V [C2(H1C1H1),SGV(C4H4)]\\@


 WE STILL HAVE JUDGEMENT HERE,
 THAT WE TEACH BUT BLOODY INSTRUCTIONS,
 WHICH, BEING TAUGHT,
 RETURN TO PLAGUE THE INVENTOR.
           MACBETH ACT I, SCENE VII
 Job cpu time:       0 days  0 hours  0 minutes 54.9 seconds.
 Elapsed time:       0 days  0 hours  0 minutes  3.9 seconds.
 File lengths (MBytes):  RWF=    272 Int=      0 D2E=      0 Chk=     32 Scr=     32
 Normal termination of Gaussian 16 at Tue Feb 25 12:21:55 2020.
