 Entering Gaussian System, Link 0=g16
 Input=1b_tune_c4.gjf
 Output=1b_tune_c4.log
 Initial command:
 /opt/ohpc/pub/libs/gaussian/g16-A.03/sandybridge/g16/l1.exe "/pscratch/cmri235_uksr/ocelot/fw/dev/ocelot_api/tests/wtuning_test/1b/tuning_1b_ocycle1/Gau-64837.inp" -scrdir="/pscratch/cmri235_uksr/ocelot/fw/dev/ocelot_api/tests/wtuning_test/1b/tuning_1b_ocycle1/"
 Entering Link 1 = /opt/ohpc/pub/libs/gaussian/g16-A.03/sandybridge/g16/l1.exe PID=     64838.
  
 Copyright (c) 1988,1990,1992,1993,1995,1998,2003,2009,2016,
            Gaussian, Inc.  All Rights Reserved.
  
 This is part of the Gaussian(R) 16 program.  It is based on
 the Gaussian(R) 09 system (copyright 2009, Gaussian, Inc.),
 the Gaussian(R) 03 system (copyright 2003, Gaussian, Inc.),
 the Gaussian(R) 98 system (copyright 1998, Gaussian, Inc.),
 the Gaussian(R) 94 system (copyright 1995, Gaussian, Inc.),
 the Gaussian 92(TM) system (copyright 1992, Gaussian, Inc.),
 the Gaussian 90(TM) system (copyright 1990, Gaussian, Inc.),
 the Gaussian 88(TM) system (copyright 1988, Gaussian, Inc.),
 the Gaussian 86(TM) system (copyright 1986, Carnegie Mellon
 University), and the Gaussian 82(TM) system (copyright 1983,
 Carnegie Mellon University). Gaussian is a federally registered
 trademark of Gaussian, Inc.
  
 This software contains proprietary and confidential information,
 including trade secrets, belonging to Gaussian, Inc.
  
 This software is provided under written license and may be
 used, copied, transmitted, or stored only in accord with that
 written license.
  
 The following legend is applicable only to US Government
 contracts under FAR:
  
                    RESTRICTED RIGHTS LEGEND
  
 Use, reproduction and disclosure by the US Government is
 subject to restrictions as set forth in subparagraphs (a)
 and (c) of the Commercial Computer Software - Restricted
 Rights clause in FAR 52.227-19.
  
 Gaussian, Inc.
 340 Quinnipiac St., Bldg. 40, Wallingford CT 06492
  
  
 ---------------------------------------------------------------
 Warning -- This program may not be used in any manner that
 competes with the business of Gaussian, Inc. or will provide
 assistance to any competitor of Gaussian, Inc.  The licensee
 of this program is prohibited from giving any competitor of
 Gaussian, Inc. access to this program.  By using this program,
 the user acknowledges that Gaussian, Inc. is engaged in the
 business of creating and licensing software in the field of
 computational chemistry and represents and warrants to the
 licensee that it is not a competitor of Gaussian, Inc. and that
 it will not use this program in any manner prohibited above.
 ---------------------------------------------------------------
  

 Cite this work as:
 Gaussian 16, Revision A.03,
 M. J. Frisch, G. W. Trucks, H. B. Schlegel, G. E. Scuseria, 
 M. A. Robb, J. R. Cheeseman, G. Scalmani, V. Barone, 
 G. A. Petersson, H. Nakatsuji, X. Li, M. Caricato, A. V. Marenich, 
 J. Bloino, B. G. Janesko, R. Gomperts, B. Mennucci, H. P. Hratchian, 
 J. V. Ortiz, A. F. Izmaylov, J. L. Sonnenberg, D. Williams-Young, 
 F. Ding, F. Lipparini, F. Egidi, J. Goings, B. Peng, A. Petrone, 
 T. Henderson, D. Ranasinghe, V. G. Zakrzewski, J. Gao, N. Rega, 
 G. Zheng, W. Liang, M. Hada, M. Ehara, K. Toyota, R. Fukuda, 
 J. Hasegawa, M. Ishida, T. Nakajima, Y. Honda, O. Kitao, H. Nakai, 
 T. Vreven, K. Throssell, J. A. Montgomery, Jr., J. E. Peralta, 
 F. Ogliaro, M. J. Bearpark, J. J. Heyd, E. N. Brothers, K. N. Kudin, 
 V. N. Staroverov, T. A. Keith, R. Kobayashi, J. Normand, 
 K. Raghavachari, A. P. Rendell, J. C. Burant, S. S. Iyengar, 
 J. Tomasi, M. Cossi, J. M. Millam, M. Klene, C. Adamo, R. Cammi, 
 J. W. Ochterski, R. L. Martin, K. Morokuma, O. Farkas, 
 J. B. Foresman, and D. J. Fox, Gaussian, Inc., Wallingford CT, 2016.
 
 ******************************************
 Gaussian 16:  EM64L-G16RevA.03 25-Dec-2016
                16-Mar-2020 
 ******************************************
 %mem=50GB
 %nproc=16
 Will use up to   16 processors via shared memory.
 ----------------------------------------------------------------------
 #P uLC-wHPBE/6-31G iop(3/107=0317300000, 3/108=0317300000) scf=(conver
 =6,fermi,ndamp=35,noincfock,novaracc,vshift=500,xqc)
 ----------------------------------------------------------------------
 1/38=1,172=1/1;
 2/12=2,17=6,18=5,40=1/2;
 3/5=1,6=6,11=2,25=1,30=1,74=-71,107=317300000,108=317300000,116=2/1,2,3;
 4//1;
 5/5=100002,6=6,8=3,10=500,13=1,18=-1,22=13,38=1,93=35/2,8;
 6/7=2,8=2,9=2,10=2,28=1/1;
 99/5=1,9=1/99;
 Leave Link    1 at Mon Mar 16 03:50:55 2020, MaxMem=  6710886400 cpu:              12.9 elap:               0.9
 (Enter /opt/ohpc/pub/libs/gaussian/g16-A.03/sandybridge/g16/l101.exe)
 -----
 H6 C6
 -----
 Symbolic Z-matrix:
 Charge =  1 Multiplicity = 2
 C                     0.        1.39638   0. 
 C                    -1.2093    0.69819   0. 
 C                    -1.2093   -0.69819   0. 
 C                     0.       -1.39638   0. 
 C                     1.2093   -0.69819   0. 
 C                     1.2093    0.69819   0. 
 H                     0.        2.48461   0. 
 H                    -2.15174   1.24231   0. 
 H                    -2.15174  -1.24231   0. 
 H                     0.       -2.48461   0. 
 H                     2.15174  -1.24231   0. 
 H                     2.15174   1.24231   0. 
 
 ITRead=  0  0  0  0  0  0  0  0  0  0  0  0
 MicOpt= -1 -1 -1 -1 -1 -1 -1 -1 -1 -1 -1 -1
 NAtoms=     12 NQM=       12 NQMF=       0 NMMI=      0 NMMIF=      0
                NMic=       0 NMicF=      0.
                    Isotopes and Nuclear Properties:
 (Nuclear quadrupole moments (NQMom) in fm**2, nuclear magnetic moments (NMagM)
  in nuclear magnetons)

  Atom         1           2           3           4           5           6           7           8           9          10
 IAtWgt=          12          12          12          12          12          12           1           1           1           1
 AtmWgt=  12.0000000  12.0000000  12.0000000  12.0000000  12.0000000  12.0000000   1.0078250   1.0078250   1.0078250   1.0078250
 NucSpn=           0           0           0           0           0           0           1           1           1           1
 AtZEff=  -0.0000000  -0.0000000  -0.0000000  -0.0000000  -0.0000000  -0.0000000  -0.0000000  -0.0000000  -0.0000000  -0.0000000
 NQMom=    0.0000000   0.0000000   0.0000000   0.0000000   0.0000000   0.0000000   0.0000000   0.0000000   0.0000000   0.0000000
 NMagM=    0.0000000   0.0000000   0.0000000   0.0000000   0.0000000   0.0000000   2.7928460   2.7928460   2.7928460   2.7928460
 AtZNuc=   6.0000000   6.0000000   6.0000000   6.0000000   6.0000000   6.0000000   1.0000000   1.0000000   1.0000000   1.0000000

  Atom        11          12
 IAtWgt=           1           1
 AtmWgt=   1.0078250   1.0078250
 NucSpn=           1           1
 AtZEff=  -0.0000000  -0.0000000
 NQMom=    0.0000000   0.0000000
 NMagM=    2.7928460   2.7928460
 AtZNuc=   1.0000000   1.0000000
 Leave Link  101 at Mon Mar 16 03:50:55 2020, MaxMem=  6710886400 cpu:               2.3 elap:               0.2
 (Enter /opt/ohpc/pub/libs/gaussian/g16-A.03/sandybridge/g16/l202.exe)
                          Input orientation:                          
 ---------------------------------------------------------------------
 Center     Atomic      Atomic             Coordinates (Angstroms)
 Number     Number       Type             X           Y           Z
 ---------------------------------------------------------------------
      1          6           0        0.000000    1.396379    0.000000
      2          6           0       -1.209300    0.698190    0.000000
      3          6           0       -1.209300   -0.698190    0.000000
      4          6           0        0.000000   -1.396379    0.000000
      5          6           0        1.209300   -0.698190    0.000000
      6          6           0        1.209300    0.698190    0.000000
      7          1           0        0.000000    2.484613    0.000000
      8          1           0       -2.151738    1.242306    0.000000
      9          1           0       -2.151738   -1.242306    0.000000
     10          1           0        0.000000   -2.484613    0.000000
     11          1           0        2.151738   -1.242306    0.000000
     12          1           0        2.151738    1.242306    0.000000
 ---------------------------------------------------------------------
                    Distance matrix (angstroms):
                    1          2          3          4          5
     1  C    0.000000
     2  C    1.396379   0.000000
     3  C    2.418600   1.396380   0.000000
     4  C    2.792758   2.418600   1.396379   0.000000
     5  C    2.418600   2.792759   2.418600   1.396379   0.000000
     6  C    1.396379   2.418600   2.792759   2.418600   1.396380
     7  H    1.088234   2.157247   3.404797   3.880992   3.404797
     8  H    2.157247   1.088233   2.157247   3.404796   3.880992
     9  H    3.404796   2.157247   1.088233   2.157247   3.404796
    10  H    3.880992   3.404797   2.157247   1.088234   2.157247
    11  H    3.404796   3.880992   3.404796   2.157247   1.088233
    12  H    2.157247   3.404796   3.880992   3.404796   2.157247
                    6          7          8          9         10
     6  C    0.000000
     7  H    2.157247   0.000000
     8  H    3.404796   2.484613   0.000000
     9  H    3.880992   4.303476   2.484612   0.000000
    10  H    3.404797   4.969226   4.303476   2.484613   0.000000
    11  H    2.157247   4.303476   4.969226   4.303476   2.484613
    12  H    1.088233   2.484613   4.303476   4.969226   4.303476
                   11         12
    11  H    0.000000
    12  H    2.484612   0.000000
 Stoichiometry    C6H6(1+,2)
 Framework group  D6H[3C2'(HC.CH)]
 Deg. of freedom     2
 Full point group                 D6H     NOp  24
 Largest Abelian subgroup         D2H     NOp   8
 Largest concise Abelian subgroup D2      NOp   4
                         Standard orientation:                         
 ---------------------------------------------------------------------
 Center     Atomic      Atomic             Coordinates (Angstroms)
 Number     Number       Type             X           Y           Z
 ---------------------------------------------------------------------
      1          6           0       -0.000000    1.396379   -0.000000
      2          6           0       -1.209300    0.698190   -0.000000
      3          6           0       -1.209300   -0.698189   -0.000000
      4          6           0       -0.000000   -1.396379   -0.000000
      5          6           0        1.209300   -0.698190   -0.000000
      6          6           0        1.209300    0.698189   -0.000000
      7          1           0       -0.000000    2.484613   -0.000000
      8          1           0       -2.151738    1.242307   -0.000000
      9          1           0       -2.151738   -1.242307   -0.000000
     10          1           0       -0.000000   -2.484613   -0.000000
     11          1           0        2.151738   -1.242307   -0.000000
     12          1           0        2.151738    1.242306   -0.000000
 ---------------------------------------------------------------------
 Rotational constants (GHZ):           5.6873431           5.6873431           2.8436715
 Leave Link  202 at Mon Mar 16 03:50:55 2020, MaxMem=  6710886400 cpu:               0.3 elap:               0.0
 (Enter /opt/ohpc/pub/libs/gaussian/g16-A.03/sandybridge/g16/l301.exe)
 Standard basis: 6-31G (6D, 7F)
 Ernie: Thresh=  0.10000D-02 Tol=  0.10000D-05 Strict=F.
 There are    16 symmetry adapted cartesian basis functions of AG  symmetry.
 There are    11 symmetry adapted cartesian basis functions of B1G symmetry.
 There are     2 symmetry adapted cartesian basis functions of B2G symmetry.
 There are     4 symmetry adapted cartesian basis functions of B3G symmetry.
 There are     2 symmetry adapted cartesian basis functions of AU  symmetry.
 There are     4 symmetry adapted cartesian basis functions of B1U symmetry.
 There are    16 symmetry adapted cartesian basis functions of B2U symmetry.
 There are    11 symmetry adapted cartesian basis functions of B3U symmetry.
 There are    16 symmetry adapted basis functions of AG  symmetry.
 There are    11 symmetry adapted basis functions of B1G symmetry.
 There are     2 symmetry adapted basis functions of B2G symmetry.
 There are     4 symmetry adapted basis functions of B3G symmetry.
 There are     2 symmetry adapted basis functions of AU  symmetry.
 There are     4 symmetry adapted basis functions of B1U symmetry.
 There are    16 symmetry adapted basis functions of B2U symmetry.
 There are    11 symmetry adapted basis functions of B3U symmetry.
    66 basis functions,   156 primitive gaussians,    66 cartesian basis functions
    21 alpha electrons       20 beta electrons
       nuclear repulsion energy       203.1815835396 Hartrees.
 IExCor=33909 DFT=T Ex+Corr=LC-wHPBE ExCW=0 ScaHFX=  1.000000
 ScaDFX=  1.000000  1.000000  1.000000  1.000000 ScalE2=  1.000000  1.000000
 IRadAn=      5 IRanWt=     -1 IRanGd=            0 ICorTp=0 IEmpDi=  4
 HFx  wShort=  0.000000 wLong=  0.317300 cFull=  0.000000 cShort=  0.000000 cLong=  1.000000
 DFx  wShort=  0.000000 wLong=  0.317300 cFull=  0.000000 cShort=  1.000000 cLong=  0.000000
 NAtoms=   12 NActive=   12 NUniq=    2 SFac= 4.00D+00 NAtFMM=   60 NAOKFM=F Big=F
 Integral buffers will be    131072 words long.
 Raffenetti 2 integral format.
 Two-electron integral symmetry is turned on.
 Leave Link  301 at Mon Mar 16 03:50:55 2020, MaxMem=  6710886400 cpu:               1.0 elap:               0.1
 (Enter /opt/ohpc/pub/libs/gaussian/g16-A.03/sandybridge/g16/l302.exe)
 NPDir=0 NMtPBC=     1 NCelOv=     1 NCel=       1 NClECP=     1 NCelD=      1
         NCelK=      1 NCelE2=     1 NClLst=     1 CellRange=     0.0.
 One-electron integrals computed using PRISM.
 One-electron integral symmetry used in STVInt
 NBasis=    66 RedAO= T EigKep=  7.02D-04  NBF=    16    11     2     4     2     4    16    11
 NBsUse=    66 1.00D-06 EigRej= -1.00D+00 NBFU=    16    11     2     4     2     4    16    11
 Precomputing XC quadrature grid using
 IXCGrd= 4 IRadAn=           5 IRanWt=          -1 IRanGd=           0 AccXCQ= 0.00D+00.
 Generated NRdTot=       0 NPtTot=           0 NUsed=           0 NTot=          32
 NSgBfM=    66    66    66    66    66 MxSgAt=    12 MxSgA2=    12.
 Leave Link  302 at Mon Mar 16 03:50:55 2020, MaxMem=  6710886400 cpu:               2.1 elap:               0.2
 (Enter /opt/ohpc/pub/libs/gaussian/g16-A.03/sandybridge/g16/l303.exe)
 DipDrv:  MaxL=1.
 Leave Link  303 at Mon Mar 16 03:50:55 2020, MaxMem=  6710886400 cpu:               0.6 elap:               0.1
 (Enter /opt/ohpc/pub/libs/gaussian/g16-A.03/sandybridge/g16/l401.exe)
 ExpMin= 1.61D-01 ExpMax= 3.05D+03 ExpMxC= 4.57D+02 IAcc=3 IRadAn=         5 AccDes= 0.00D+00
 Harris functional with IExCor=33909 and IRadAn=       5 diagonalized for initial guess.
 HarFok:  IExCor=33909 AccDes= 0.00D+00 IRadAn=         5 IDoV= 1 UseB2=F ITyADJ=14
 ICtDFT=  3500011 ScaDFX=  1.000000  1.000000  1.000000  1.000000
 FoFCou: FMM=F IPFlag=           0 FMFlag=      100000 FMFlg1=           0
         NFxFlg=           0 DoJE=T BraDBF=F KetDBF=T FulRan=T
         wScrn=  0.000000 ICntrl=       500 IOpCl=  0 I1Cent=   200000004 NGrid=           0
         NMat0=    1 NMatS0=      1 NMatT0=    0 NMatD0=    1 NMtDS0=    0 NMtDT0=    0
 Petite list used in FoFCou.
 Harris En= -225.047932595162    
 JPrj=0 DoOrth=F DoCkMO=F.
 Initial guess orbital symmetries:
 Alpha Orbitals:
       Occupied  (A1G) (E1U) (E1U) (E2G) (E2G) (B1U) (A1G) (E1U)
                 (E1U) (E2G) (E2G) (A1G) (B2U) (B1U) (E1U) (E1U)
                 (A2U) (E2G) (E2G) (E1G) (E1G)
       Virtual   (E2U) (E2U) (A1G) (B2G) (E1U) (E1U) (E2G) (E2G)
                 (B1U) (E2G) (E2G) (E1U) (E1U) (B2U) (A2U) (B1U)
                 (A2G) (A1G) (E2G) (E2G) (E1G) (E1G) (A1G) (E1U)
                 (E1U) (E2U) (E2U) (B2G) (B1U) (E2G) (E2G) (E1U)
                 (E1U) (A2G) (A1G) (E1U) (E1U) (E2G) (E2G) (E1U)
                 (E1U) (B1U) (E2G) (E2G) (B1U)
 Beta  Orbitals:
       Occupied  (A1G) (E1U) (E1U) (E2G) (E2G) (B1U) (A1G) (E1U)
                 (E1U) (E2G) (E2G) (A1G) (B2U) (B1U) (E1U) (E1U)
                 (A2U) (E2G) (E2G) (E1G)
       Virtual   (E1G) (E2U) (E2U) (A1G) (B2G) (E1U) (E1U) (E2G)
                 (E2G) (B1U) (E2G) (E2G) (E1U) (E1U) (B2U) (A2U)
                 (B1U) (A2G) (A1G) (E2G) (E2G) (E1G) (E1G) (A1G)
                 (E1U) (E1U) (E2U) (E2U) (B2G) (B1U) (E2G) (E2G)
                 (E1U) (E1U) (A2G) (A1G) (E1U) (E1U) (E2G) (E2G)
                 (E1U) (E1U) (B1U) (E2G) (E2G) (B1U)
 Initial guess <Sx>= 0.0000 <Sy>= 0.0000 <Sz>= 0.5000 <S**2>= 0.7500 S= 0.5000
 Leave Link  401 at Mon Mar 16 03:50:56 2020, MaxMem=  6710886400 cpu:               2.7 elap:               0.2
 (Enter /opt/ohpc/pub/libs/gaussian/g16-A.03/sandybridge/g16/l502.exe)
 Keep R1 and R2 ints in memory in symmetry-blocked form, NReq=19109854.
 FoFCou: FMM=F IPFlag=           0 FMFlag=           0 FMFlg1=           0
         NFxFlg=           0 DoJE=F BraDBF=F KetDBF=F FulRan=T
         wScrn=  0.000000 ICntrl=       600 IOpCl=  0 I1Cent=           0 NGrid=           0
         NMat0=    1 NMatS0=   2211 NMatT0=    0 NMatD0=    1 NMtDS0=    0 NMtDT0=    0
 Petite list used in FoFCou.
 UHF open shell SCF:
 Using DIIS extrapolation, IDIIS=    10.
 NGot=  6710886400 LenX=  6710146038 LenY=  6710141241
 Requested convergence on RMS density matrix=1.00D-06 within  32 cycles.
 Requested convergence on MAX density matrix=1.00D-04.
 Requested convergence on             energy=1.00D-04.
 Virtual orbitals will be shifted by   0.500 hartree.
 No special actions if energy rises.
 Dynamic level shift is on during FON iterations.

 Cycle   1  Pass 1  IDiag  1:
 Density matrix breaks symmetry, PCut= 1.00D-04
 Density has only Abelian symmetry.
 E= -231.646815617794    
 DIIS: error= 1.69D-02 at cycle   1 NSaved=   1.
 NSaved= 1 IEnMin= 1 EnMin= -231.646815617794     IErMin= 1 ErrMin= 1.69D-02
 ErrMax= 1.69D-02  0.00D+00 EMaxC= 1.00D+00 BMatC= 6.88D-02 BMatP= 6.88D-02
 IDIUse=1 WtCom= 1.00D+00 WtEn= 0.00D+00
 Coeff-Com:  0.100D+01
 Coeff:      0.100D+01
 Gap=     0.385 Goal=   None    Shift=    0.500
 T= 1153. Gap= 0.886 NK=0 IS=   22 IE=   66 IFin=   21
          NO(<0.9)=   0  NV(>0.1)=   0     21.00e < EF      0.00e >EF  Err=0.0D+00
 Gap=     0.200 Goal=   None    Shift=    0.500
 T= 1153. Gap= 0.699 NK=0 IS=   21 IE=   66 IFin=   20
          NO(<0.9)=   0  NV(>0.1)=   0     20.00e < EF      0.00e >EF  Err=0.0D+00
 GapD=    0.200 DampG=1.000 DampE=0.500 DampFc=0.5000 IDamp=-1.
 Damping current iteration by 5.00D-01
 RMSDP=3.25D-03 MaxDP=2.65D-02              OVMax= 3.34D-02

 Cycle   2  Pass 1  IDiag  1:
 Density matrix breaks symmetry, PCut= 1.00D-04
 Density has only Abelian symmetry.
 E= -231.657908221846     Delta-E=       -0.011092604051 Rises=F Damp=T
 DIIS: error= 1.05D-02 at cycle   2 NSaved=   2.
 NSaved= 2 IEnMin= 2 EnMin= -231.657908221846     IErMin= 2 ErrMin= 1.05D-02
 ErrMax= 1.05D-02  0.00D+00 EMaxC= 1.00D+00 BMatC= 1.74D-02 BMatP= 6.88D-02
 IDIUse=1 WtCom= 1.00D+00 WtEn= 0.00D+00
 Coeff-Com: -0.865D+00 0.186D+01
 Coeff:     -0.865D+00 0.186D+01
 Gap=     0.403 Goal=   None    Shift=    0.500
 T= 1071. Gap= 0.903 NK=0 IS=   22 IE=   66 IFin=   21
          NO(<0.9)=   0  NV(>0.1)=   0     21.00e < EF      0.00e >EF  Err=0.0D+00
 Gap=     0.224 Goal=   None    Shift=    0.500
 T= 1071. Gap= 0.723 NK=0 IS=   21 IE=   66 IFin=   20
          NO(<0.9)=   0  NV(>0.1)=   0     20.00e < EF      0.00e >EF  Err=0.0D+00
 GapD=    0.224 DampG=1.000 DampE=0.500 DampFc=0.5000 IDamp=-1.
 Damping current iteration by 5.00D-01
 RMSDP=2.38D-03 MaxDP=2.39D-02 DE=-1.11D-02 OVMax= 1.76D-02

 Cycle   3  Pass 1  IDiag  1:
 Density matrix breaks symmetry, PCut= 1.00D-04
 Density has only Abelian symmetry.
 E= -231.662804549271     Delta-E=       -0.004896327426 Rises=F Damp=T
 DIIS: error= 7.52D-03 at cycle   3 NSaved=   3.
 NSaved= 3 IEnMin= 3 EnMin= -231.662804549271     IErMin= 3 ErrMin= 7.52D-03
 ErrMax= 7.52D-03  0.00D+00 EMaxC= 1.00D+00 BMatC= 5.24D-03 BMatP= 1.74D-02
 IDIUse=1 WtCom= 1.00D+00 WtEn= 0.00D+00
 Coeff-Com:  0.243D+00-0.182D+01 0.258D+01
 Coeff:      0.243D+00-0.182D+01 0.258D+01
 Gap=     0.398 Goal=   None    Shift=    0.500
 T=  928. Gap= 0.898 NK=0 IS=   22 IE=   66 IFin=   21
          NO(<0.9)=   0  NV(>0.1)=   0     21.00e < EF      0.00e >EF  Err=0.0D+00
 Gap=     0.224 Goal=   None    Shift=    0.500
 T=  928. Gap= 0.724 NK=0 IS=   21 IE=   66 IFin=   20
          NO(<0.9)=   0  NV(>0.1)=   0     20.00e < EF      0.00e >EF  Err=0.0D+00
 GapD=    0.224 DampG=1.000 DampE=1.000 DampFc=1.0000 IDamp=-1.
 RMSDP=1.56D-03 MaxDP=1.66D-02 DE=-4.90D-03 OVMax= 1.27D-02

 Cycle   4  Pass 1  IDiag  1:
 Density matrix breaks symmetry, PCut= 1.00D-04
 Density has only Abelian symmetry.
 E= -231.668058389111     Delta-E=       -0.005253839840 Rises=F Damp=F
 DIIS: error= 4.58D-03 at cycle   4 NSaved=   4.
 NSaved= 4 IEnMin= 4 EnMin= -231.668058389111     IErMin= 4 ErrMin= 4.58D-03
 ErrMax= 4.58D-03  0.00D+00 EMaxC= 1.00D+00 BMatC= 3.73D-04 BMatP= 5.24D-03
 IDIUse=1 WtCom= 1.00D+00 WtEn= 0.00D+00
 Coeff-Com:  0.129D+00 0.431D+00-0.142D+01 0.186D+01
 Coeff:      0.129D+00 0.431D+00-0.142D+01 0.186D+01
 Gap=     0.397 Goal=   None    Shift=    0.500
 T=  666. Gap= 0.897 NK=0 IS=   22 IE=   66 IFin=   21
          NO(<0.9)=   0  NV(>0.1)=   0     21.00e < EF      0.00e >EF  Err=0.0D+00
 Gap=     0.230 Goal=   None    Shift=    0.500
 T=  666. Gap= 0.730 NK=0 IS=   21 IE=   66 IFin=   20
          NO(<0.9)=   0  NV(>0.1)=   0     20.00e < EF      0.00e >EF  Err=0.0D+00
 GapD=    0.230 DampG=1.000 DampE=1.000 DampFc=1.0000 IDamp=-1.
 RMSDP=2.85D-04 MaxDP=3.96D-03 DE=-5.25D-03 OVMax= 1.28D-02

 Cycle   5  Pass 1  IDiag  1:
 Density matrix breaks symmetry, PCut= 1.00D-04
 Density has only Abelian symmetry.
 E= -231.668442767543     Delta-E=       -0.000384378432 Rises=F Damp=F
 DIIS: error= 2.74D-03 at cycle   5 NSaved=   5.
 NSaved= 5 IEnMin= 5 EnMin= -231.668442767543     IErMin= 5 ErrMin= 2.74D-03
 ErrMax= 2.74D-03  0.00D+00 EMaxC= 1.00D+00 BMatC= 1.39D-04 BMatP= 3.73D-04
 IDIUse=1 WtCom= 1.00D+00 WtEn= 0.00D+00
 Coeff-Com: -0.125D+00 0.884D+00-0.122D+01-0.594D+00 0.206D+01
 Coeff:     -0.125D+00 0.884D+00-0.122D+01-0.594D+00 0.206D+01
 Gap=     0.395 Goal=   None    Shift=    0.500
 T=  415. Gap= 0.895 NK=0 IS=   22 IE=   66 IFin=   21
          NO(<0.9)=   0  NV(>0.1)=   0     21.00e < EF      0.00e >EF  Err=0.0D+00
 Gap=     0.232 Goal=   None    Shift=    0.500
 T=  415. Gap= 0.732 NK=0 IS=   21 IE=   66 IFin=   20
          NO(<0.9)=   0  NV(>0.1)=   0     20.00e < EF      0.00e >EF  Err=0.0D+00
 GapD=    0.232 DampG=1.000 DampE=1.000 DampFc=1.0000 IDamp=-1.
 RMSDP=1.95D-04 MaxDP=3.60D-03 DE=-3.84D-04 OVMax= 1.01D-02

 Cycle   6  Pass 1  IDiag  1:
 Density matrix breaks symmetry, PCut= 1.00D-04
 Density has only Abelian symmetry.
 E= -231.668623187228     Delta-E=       -0.000180419685 Rises=F Damp=F
 DIIS: error= 1.48D-03 at cycle   6 NSaved=   6.
 NSaved= 6 IEnMin= 6 EnMin= -231.668623187228     IErMin= 6 ErrMin= 1.48D-03
 ErrMax= 1.48D-03  0.00D+00 EMaxC= 1.00D+00 BMatC= 3.75D-05 BMatP= 1.39D-04
 IDIUse=1 WtCom= 1.00D+00 WtEn= 0.00D+00
 Coeff-Com:  0.126D-01-0.202D+00 0.346D+00-0.491D-01-0.137D+01 0.226D+01
 Coeff:      0.126D-01-0.202D+00 0.346D+00-0.491D-01-0.137D+01 0.226D+01
 Gap=     0.395 Goal=   None    Shift=    0.500
 T=  102. Gap= 0.895 NK=0 IS=   22 IE=   66 IFin=   21
          NO(<0.9)=   0  NV(>0.1)=   0     21.00e < EF      0.00e >EF  Err=0.0D+00
 Gap=     0.232 Goal=   None    Shift=    0.500
 T=  102. Gap= 0.732 NK=0 IS=   21 IE=   66 IFin=   20
          NO(<0.9)=   0  NV(>0.1)=   0     20.00e < EF      0.00e >EF  Err=0.0D+00
 GapD=    0.232 DampG=1.000 DampE=1.000 DampFc=1.0000 IDamp=-1.
 RMSDP=9.77D-05 MaxDP=1.82D-03 DE=-1.80D-04 OVMax= 5.68D-03

 Cycle   7  Pass 1  IDiag  1:
 Density matrix breaks symmetry, PCut= 1.00D-04
 Density has only Abelian symmetry.
 E= -231.668673619624     Delta-E=       -0.000050432396 Rises=F Damp=F
 DIIS: error= 7.55D-04 at cycle   7 NSaved=   7.
 NSaved= 7 IEnMin= 7 EnMin= -231.668673619624     IErMin= 7 ErrMin= 7.55D-04
 ErrMax= 7.55D-04  0.00D+00 EMaxC= 1.00D+00 BMatC= 1.03D-05 BMatP= 3.75D-05
 IDIUse=1 WtCom= 1.00D+00 WtEn= 0.00D+00
 Coeff-Com: -0.193D-01 0.217D+00-0.356D+00 0.854D-01 0.123D+01-0.372D+01
 Coeff-Com:  0.356D+01
 Coeff:     -0.193D-01 0.217D+00-0.356D+00 0.854D-01 0.123D+01-0.372D+01
 Coeff:      0.356D+01
 Gap=     0.394 Goal=   None    Shift=    0.500
 Gap=     0.233 Goal=   None    Shift=    0.500
 RMSDP=4.80D-05 MaxDP=8.25D-04 DE=-5.04D-05 OVMax= 3.03D-03

 Cycle   8  Pass 1  IDiag  1:
 Density matrix breaks symmetry, PCut= 1.00D-04
 Density has only Abelian symmetry.
 E= -231.668686959005     Delta-E=       -0.000013339381 Rises=F Damp=F
 DIIS: error= 3.70D-04 at cycle   8 NSaved=   8.
 NSaved= 8 IEnMin= 8 EnMin= -231.668686959005     IErMin= 8 ErrMin= 3.70D-04
 ErrMax= 3.70D-04  0.00D+00 EMaxC= 1.00D+00 BMatC= 2.58D-06 BMatP= 1.03D-05
 IDIUse=1 WtCom= 1.00D+00 WtEn= 0.00D+00
 Coeff-Com:  0.235D-02-0.340D-01 0.591D-01-0.225D-01-0.355D+00 0.139D+01
 Coeff-Com: -0.287D+01 0.283D+01
 Coeff:      0.235D-02-0.340D-01 0.591D-01-0.225D-01-0.355D+00 0.139D+01
 Coeff:     -0.287D+01 0.283D+01
 Gap=     0.394 Goal=   None    Shift=    0.500
 Gap=     0.233 Goal=   None    Shift=    0.500
 RMSDP=2.28D-05 MaxDP=3.78D-04 DE=-1.33D-05 OVMax= 1.51D-03

 Cycle   9  Pass 1  IDiag  1:
 Density matrix breaks symmetry, PCut= 1.00D-04
 Density has only Abelian symmetry.
 E= -231.668690194298     Delta-E=       -0.000003235293 Rises=F Damp=F
 DIIS: error= 1.79D-04 at cycle   9 NSaved=   9.
 NSaved= 9 IEnMin= 9 EnMin= -231.668690194298     IErMin= 9 ErrMin= 1.79D-04
 ErrMax= 1.79D-04  0.00D+00 EMaxC= 1.00D+00 BMatC= 5.92D-07 BMatP= 2.58D-06
 IDIUse=1 WtCom= 1.00D+00 WtEn= 0.00D+00
 Coeff-Com: -0.275D-02 0.291D-01-0.475D-01 0.120D-01 0.268D+00-0.105D+01
 Coeff-Com:  0.214D+01-0.347D+01 0.313D+01
 Coeff:     -0.275D-02 0.291D-01-0.475D-01 0.120D-01 0.268D+00-0.105D+01
 Coeff:      0.214D+01-0.347D+01 0.313D+01
 Gap=     0.394 Goal=   None    Shift=    0.500
 Gap=     0.233 Goal=   None    Shift=    0.500
 RMSDP=1.07D-05 MaxDP=1.77D-04 DE=-3.24D-06 OVMax= 7.32D-04

 Cycle  10  Pass 1  IDiag  1:
 Density matrix breaks symmetry, PCut= 1.00D-04
 Density has only Abelian symmetry.
 E= -231.668690940634     Delta-E=       -0.000000746336 Rises=F Damp=F
 DIIS: error= 8.56D-05 at cycle  10 NSaved=  10.
 NSaved=10 IEnMin=10 EnMin= -231.668690940634     IErMin=10 ErrMin= 8.56D-05
 ErrMax= 8.56D-05  0.00D+00 EMaxC= 1.00D+00 BMatC= 1.34D-07 BMatP= 5.92D-07
 IDIUse=1 WtCom= 1.00D+00 WtEn= 0.00D+00
 Coeff-Com:  0.827D-03-0.106D-01 0.179D-01-0.432D-02-0.128D+00 0.522D+00
 Coeff-Com: -0.120D+01 0.220D+01-0.344D+01 0.304D+01
 Coeff:      0.827D-03-0.106D-01 0.179D-01-0.432D-02-0.128D+00 0.522D+00
 Coeff:     -0.120D+01 0.220D+01-0.344D+01 0.304D+01
 Gap=     0.394 Goal=   None    Shift=    0.500
 Gap=     0.233 Goal=   None    Shift=    0.500
 RMSDP=5.07D-06 MaxDP=8.15D-05 DE=-7.46D-07 OVMax= 3.51D-04

 Cycle  11  Pass 1  IDiag  1:
 Density matrix breaks symmetry, PCut= 1.00D-04
 Density has only Abelian symmetry.
 E= -231.668691110134     Delta-E=       -0.000000169500 Rises=F Damp=F
 DIIS: error= 4.11D-05 at cycle  11 NSaved=  11.
 NSaved=11 IEnMin=11 EnMin= -231.668691110134     IErMin=11 ErrMin= 4.11D-05
 ErrMax= 4.11D-05  0.00D+00 EMaxC= 1.00D+00 BMatC= 2.96D-08 BMatP= 1.34D-07
 IDIUse=1 WtCom= 1.00D+00 WtEn= 0.00D+00
 Coeff-Com: -0.304D-03 0.446D-02-0.767D-02 0.117D-02 0.629D-01-0.255D+00
 Coeff-Com:  0.571D+00-0.111D+01 0.198D+01-0.327D+01 0.302D+01
 Coeff:     -0.304D-03 0.446D-02-0.767D-02 0.117D-02 0.629D-01-0.255D+00
 Coeff:      0.571D+00-0.111D+01 0.198D+01-0.327D+01 0.302D+01
 Gap=     0.394 Goal=   None    Shift=    0.500
 Gap=     0.233 Goal=   None    Shift=    0.500
 RMSDP=2.37D-06 MaxDP=3.63D-05 DE=-1.69D-07 OVMax= 1.67D-04

 Cycle  12  Pass 1  IDiag  1:
 Density matrix breaks symmetry, PCut= 1.00D-04
 Density has only Abelian symmetry.
 E= -231.668691148007     Delta-E=       -0.000000037873 Rises=F Damp=F
 DIIS: error= 1.96D-05 at cycle  12 NSaved=  12.
 NSaved=12 IEnMin=12 EnMin= -231.668691148007     IErMin=12 ErrMin= 1.96D-05
 ErrMax= 1.96D-05  0.00D+00 EMaxC= 1.00D+00 BMatC= 6.70D-09 BMatP= 2.96D-08
 IDIUse=1 WtCom= 1.00D+00 WtEn= 0.00D+00
 Coeff-Com: -0.618D-04 0.411D-04 0.161D-03-0.161D-04-0.684D-02 0.314D-01
 Coeff-Com: -0.818D-01 0.181D+00-0.408D+00 0.106D+01-0.262D+01 0.284D+01
 Coeff:     -0.618D-04 0.411D-04 0.161D-03-0.161D-04-0.684D-02 0.314D-01
 Coeff:     -0.818D-01 0.181D+00-0.408D+00 0.106D+01-0.262D+01 0.284D+01
 Gap=     0.394 Goal=   None    Shift=    0.500
 Gap=     0.233 Goal=   None    Shift=    0.500
 RMSDP=1.12D-06 MaxDP=1.69D-05 DE=-3.79D-08 OVMax= 8.00D-05

 Cycle  13  Pass 1  IDiag  1:
 Density matrix breaks symmetry, PCut= 1.00D-04
 Density has only Abelian symmetry.
 E= -231.668691156630     Delta-E=       -0.000000008623 Rises=F Damp=F
 DIIS: error= 9.38D-06 at cycle  13 NSaved=  13.
 NSaved=13 IEnMin=13 EnMin= -231.668691156630     IErMin=13 ErrMin= 9.38D-06
 ErrMax= 9.38D-06  0.00D+00 EMaxC= 1.00D+00 BMatC= 1.50D-09 BMatP= 6.70D-09
 IDIUse=1 WtCom= 1.00D+00 WtEn= 0.00D+00
 Coeff-Com:  0.105D-03-0.741D-03 0.107D-02-0.400D-03-0.197D-02 0.649D-02
 Coeff-Com: -0.101D-01 0.338D-02 0.482D-01-0.257D+00 0.904D+00-0.241D+01
 Coeff-Com:  0.272D+01
 Coeff:      0.105D-03-0.741D-03 0.107D-02-0.400D-03-0.197D-02 0.649D-02
 Coeff:     -0.101D-01 0.338D-02 0.482D-01-0.257D+00 0.904D+00-0.241D+01
 Coeff:      0.272D+01
 Gap=     0.394 Goal=   None    Shift=    0.500
 Gap=     0.233 Goal=   None    Shift=    0.500
 RMSDP=5.24D-07 MaxDP=7.94D-06 DE=-8.62D-09 OVMax= 3.80D-05

 Density matrix breaks symmetry, PCut= 1.00D-04
 Density has only Abelian symmetry.
 SCF Done:  E(ULC-wHPBE) =  -231.668691157     A.U. after   13 cycles
            NFock= 13  Conv=0.52D-06     -V/T= 2.0048
 <Sx>= 0.0000 <Sy>= 0.0000 <Sz>= 0.5000 <S**2>= 0.7723 S= 0.5111
 <L.S>= 0.000000000000E+00
 KE= 2.305558297836D+02 PE=-9.341510975411D+02 EE= 2.687449930613D+02
 Annihilation of the first spin contaminant:
 S**2 before annihilation     0.7723,   after     0.7501
 Leave Link  502 at Mon Mar 16 03:50:57 2020, MaxMem=  6710886400 cpu:              18.0 elap:               1.2
 (Enter /opt/ohpc/pub/libs/gaussian/g16-A.03/sandybridge/g16/l508.exe)
 QCSCF skips out because SCF is already converged.
 Leave Link  508 at Mon Mar 16 03:50:57 2020, MaxMem=  6710886400 cpu:               0.0 elap:               0.0
 (Enter /opt/ohpc/pub/libs/gaussian/g16-A.03/sandybridge/g16/l601.exe)
 Copying SCF densities to generalized density rwf, IOpCl= 1 IROHF=0.
 SCF density gives NOpUse=  8 NOpAll= 24.
 Marking SCF density as not fully symmetric.

 **********************************************************************

            Population analysis using the SCF density.

 **********************************************************************

 Orbital symmetries:
 Alpha Orbitals:
       Occupied  (?A) (?A) (?A) (?A) (?A) (?A) (?B) (?B) (?B) (?B)
                 (?B) (?B) (?B) (?B) (?B) (?B) (?C) (?B) (?B) (?C)
                 (?C)
       Virtual   (?C) (?C) (?B) (?C) (?B) (?B) (?B) (?B) (?B) (?B)
                 (?B) (?B) (?B) (?B) (?C) (?B) (?B) (?B) (?C) (?C)
                 (?B) (?B) (?B) (?C) (?B) (?B) (?C) (?C) (?B) (?B)
                 (?B) (?B) (?B) (?B) (?B) (?B) (?B) (?B) (?B) (?B)
                 (?B) (?B) (?B) (?B) (?B)
 Beta  Orbitals:
       Occupied  (?A) (?A) (?A) (?A) (?A) (?A) (?B) (B2G) (B2G)
                 (?B) (?B) (?B) (B2G) (B2G) (B2G) (B2G) (?C) (?B)
                 (?B) (?D)
       Virtual   (?D) (?C) (?C) (?D) (?D) (B2G) (B2G) (?D) (?D)
                 (B2G) (?D) (?D) (B2G) (B2G) (B2G) (?C) (B2G) (?D)
                 (?D) (?D) (?D) (?D) (?D) (?D) (B2G) (B2G) (E2U)
                 (E2U) (?D) (?D) (?A) (?A) (?D) (?D) (?A) (?D)
                 (?D) (?D) (?D) (?D) (?D) (?D) (?D) (E2G) (E2G)
                 (B1U)
 Unable to determine electronic state:  an orbital has unidentified symmetry.
 Alpha  occ. eigenvalues --  -10.34583 -10.34579 -10.30952 -10.30948 -10.30925
 Alpha  occ. eigenvalues --  -10.30921  -1.21644  -1.11150  -1.08560  -0.94384
 Alpha  occ. eigenvalues --   -0.94340  -0.85968  -0.79048  -0.78252  -0.75708
 Alpha  occ. eigenvalues --   -0.74242  -0.72908  -0.66508  -0.66333  -0.61374
 Alpha  occ. eigenvalues --   -0.57089
 Alpha virt. eigenvalues --   -0.17640  -0.14640  -0.00701   0.01673   0.04401
 Alpha virt. eigenvalues --    0.05671   0.07967   0.08894   0.10436   0.17944
 Alpha virt. eigenvalues --    0.18394   0.19106   0.19663   0.38106   0.38855
 Alpha virt. eigenvalues --    0.40953   0.43685   0.43763   0.46888   0.49347
 Alpha virt. eigenvalues --    0.49527   0.49691   0.52754   0.53573   0.53901
 Alpha virt. eigenvalues --    0.54408   0.55163   0.62571   0.72593   0.74089
 Alpha virt. eigenvalues --    0.75609   0.78685   0.80036   0.85877   0.85927
 Alpha virt. eigenvalues --    0.88226   0.88277   1.00268   1.01783   1.06179
 Alpha virt. eigenvalues --    1.07191   1.11413   1.33744   1.33953   1.79019
  Beta  occ. eigenvalues --  -10.33887 -10.33886 -10.30934 -10.30930 -10.30904
  Beta  occ. eigenvalues --  -10.30902  -1.20487  -1.08806  -1.08386  -0.93825
  Beta  occ. eigenvalues --   -0.93396  -0.85668  -0.78583  -0.77730  -0.75259
  Beta  occ. eigenvalues --   -0.74228  -0.67877  -0.66317  -0.66014  -0.57175
  Beta virt. eigenvalues --   -0.33910  -0.12772  -0.12263  -0.00505   0.04015
  Beta virt. eigenvalues --    0.04707   0.05678   0.08743   0.09073   0.10759
  Beta virt. eigenvalues --    0.18549   0.18593   0.19586   0.20043   0.38451
  Beta virt. eigenvalues --    0.40420   0.42031   0.44134   0.44135   0.49553
  Beta virt. eigenvalues --    0.49682   0.50059   0.50411   0.53080   0.54676
  Beta virt. eigenvalues --    0.55112   0.55543   0.55666   0.63564   0.72914
  Beta virt. eigenvalues --    0.74476   0.75658   0.79278   0.80105   0.86116
  Beta virt. eigenvalues --    0.86152   0.88536   0.89221   1.01584   1.02084
  Beta virt. eigenvalues --    1.07052   1.07298   1.11919   1.34305   1.34735
  Beta virt. eigenvalues --    1.79794
          Condensed to atoms (all electrons):
               1          2          3          4          5          6
     1  C    4.980579   0.446977  -0.054404  -0.022412  -0.054404   0.446977
     2  C    0.446977   4.931716   0.558622  -0.054404  -0.023149  -0.066936
     3  C   -0.054404   0.558622   4.931716   0.446977  -0.066936  -0.023149
     4  C   -0.022412  -0.054404   0.446977   4.980579   0.446977  -0.054404
     5  C   -0.054404  -0.023149  -0.066936   0.446977   4.931716   0.558622
     6  C    0.446977  -0.066936  -0.023149  -0.054404   0.558622   4.931716
     7  H    0.364069  -0.024355   0.003001   0.000064   0.003001  -0.024355
     8  H   -0.028086   0.370100  -0.020142   0.003194   0.000061   0.003067
     9  H    0.003194  -0.020142   0.370100  -0.028086   0.003067   0.000061
    10  H    0.000064   0.003001  -0.024355   0.364069  -0.024355   0.003001
    11  H    0.003194   0.000061   0.003067  -0.028086   0.370100  -0.020142
    12  H   -0.028086   0.003067   0.000061   0.003194  -0.020142   0.370100
               7          8          9         10         11         12
     1  C    0.364069  -0.028086   0.003194   0.000064   0.003194  -0.028086
     2  C   -0.024355   0.370100  -0.020142   0.003001   0.000061   0.003067
     3  C    0.003001  -0.020142   0.370100  -0.024355   0.003067   0.000061
     4  C    0.000064   0.003194  -0.028086   0.364069  -0.028086   0.003194
     5  C    0.003001   0.000061   0.003067  -0.024355   0.370100  -0.020142
     6  C   -0.024355   0.003067   0.000061   0.003001  -0.020142   0.370100
     7  H    0.404819  -0.002363  -0.000067   0.000005  -0.000067  -0.002363
     8  H   -0.002363   0.412835  -0.002617  -0.000067   0.000003  -0.000070
     9  H   -0.000067  -0.002617   0.412835  -0.002363  -0.000070   0.000003
    10  H    0.000005  -0.000067  -0.002363   0.404819  -0.002363  -0.000067
    11  H   -0.000067   0.000003  -0.000070  -0.002363   0.412835  -0.002617
    12  H   -0.002363  -0.000070   0.000003  -0.000067  -0.002617   0.412835
          Atomic-Atomic Spin Densities.
               1          2          3          4          5          6
     1  C    0.527373   0.025548  -0.006833  -0.010881  -0.006833   0.025548
     2  C    0.025548  -0.000318  -0.023688  -0.006833   0.001292  -0.007682
     3  C   -0.006833  -0.023688  -0.000318   0.025548  -0.007682   0.001292
     4  C   -0.010881  -0.006833   0.025548   0.527373   0.025548  -0.006833
     5  C   -0.006833   0.001292  -0.007682   0.025548  -0.000318  -0.023688
     6  C    0.025548  -0.007682   0.001292  -0.006833  -0.023688  -0.000318
     7  H   -0.000312  -0.000776   0.000003  -0.000052   0.000003  -0.000776
     8  H   -0.001978   0.001263   0.000104   0.000149  -0.000052   0.000064
     9  H    0.000149   0.000104   0.001263  -0.001978   0.000064  -0.000052
    10  H   -0.000052   0.000003  -0.000776  -0.000312  -0.000776   0.000003
    11  H    0.000149  -0.000052   0.000064  -0.001978   0.001263   0.000104
    12  H   -0.001978   0.000064  -0.000052   0.000149   0.000104   0.001263
               7          8          9         10         11         12
     1  C   -0.000312  -0.001978   0.000149  -0.000052   0.000149  -0.001978
     2  C   -0.000776   0.001263   0.000104   0.000003  -0.000052   0.000064
     3  C    0.000003   0.000104   0.001263  -0.000776   0.000064  -0.000052
     4  C   -0.000052   0.000149  -0.001978  -0.000312  -0.001978   0.000149
     5  C    0.000003  -0.000052   0.000064  -0.000776   0.001263   0.000104
     6  C   -0.000776   0.000064  -0.000052   0.000003   0.000104   0.001263
     7  H   -0.021239  -0.000034   0.000004  -0.000000   0.000004  -0.000034
     8  H   -0.000034  -0.001808   0.000015   0.000004  -0.000001   0.000004
     9  H    0.000004   0.000015  -0.001808  -0.000034   0.000004  -0.000001
    10  H   -0.000000   0.000004  -0.000034  -0.021239  -0.000034   0.000004
    11  H    0.000004  -0.000001   0.000004  -0.000034  -0.001808   0.000015
    12  H   -0.000034   0.000004  -0.000001   0.000004   0.000015  -0.001808
 Mulliken charges and spin densities:
               1          2
     1  C   -0.057662   0.549898
     2  C   -0.124558  -0.011074
     3  C   -0.124558  -0.011074
     4  C   -0.057662   0.549898
     5  C   -0.124558  -0.011074
     6  C   -0.124558  -0.011074
     7  H    0.278610  -0.023209
     8  H    0.264084  -0.002271
     9  H    0.264084  -0.002271
    10  H    0.278610  -0.023209
    11  H    0.264084  -0.002271
    12  H    0.264084  -0.002271
 Sum of Mulliken charges =   1.00000   1.00000
 Mulliken charges and spin densities with hydrogens summed into heavy atoms:
               1          2
     1  C    0.220948   0.526690
     2  C    0.139526  -0.013345
     3  C    0.139526  -0.013345
     4  C    0.220948   0.526690
     5  C    0.139526  -0.013345
     6  C    0.139526  -0.013345
 Electronic spatial extent (au):  <R**2>=            438.4645
 Charge=              1.0000 electrons
 Dipole moment (field-independent basis, Debye):
    X=             -0.0000    Y=              0.0000    Z=             -0.0000  Tot=              0.0000
 Quadrupole moment (field-independent basis, Debye-Ang):
   XX=            -21.5991   YY=            -18.0297   ZZ=            -35.0480
   XY=             -0.0000   XZ=              0.0000   YZ=              0.0000
 Traceless Quadrupole moment (field-independent basis, Debye-Ang):
   XX=              3.2931   YY=              6.8626   ZZ=            -10.1557
   XY=             -0.0000   XZ=              0.0000   YZ=              0.0000
 Octapole moment (field-independent basis, Debye-Ang**2):
  XXX=              0.0000  YYY=              0.0000  ZZZ=              0.0000  XYY=              0.0000
  XXY=              0.0000  XXZ=              0.0000  XZZ=              0.0000  YZZ=              0.0000
  YYZ=              0.0000  XYZ=             -0.0000
 Hexadecapole moment (field-independent basis, Debye-Ang**3):
 XXXX=           -208.0637 YYYY=           -194.3509 ZZZZ=            -34.1950 XXXY=              0.0000
 XXXZ=              0.0000 YYYX=              0.0000 YYYZ=              0.0000 ZZZX=             -0.0000
 ZZZY=             -0.0000 XXYY=            -68.4708 XXZZ=            -55.4415 YYZZ=            -52.1667
 XXYZ=              0.0000 YYXZ=              0.0000 ZZXY=              0.0000
 N-N= 2.031815835396D+02 E-N=-9.341510997576D+02  KE= 2.305558297836D+02
 Symmetry AG   KE= 7.454895153497D+01
 Symmetry B1G  KE= 3.772146475063D+01
 Symmetry B2G  KE= 2.334642055686D+00
 Symmetry B3G  KE= 1.200877453066D+00
 Symmetry AU   KE= 5.318144080806D-17
 Symmetry B1U  KE= 1.957855710675D+00
 Symmetry B2U  KE= 7.223662627805D+01
 Symmetry B3U  KE= 4.055541200049D+01
 Symmetry AG   SP=-7.956105934660D-15
 Symmetry B1G  SP=-7.467135837067D-15
 Symmetry B2G  SP=-5.228564976811D-16
 Symmetry B3G  SP= 1.000000000000D+00
 Symmetry AU   SP= 2.503229887070D-17
 Symmetry B1U  SP=-3.598873586294D-16
 Symmetry B2U  SP=-8.973636449802D-15
 Symmetry B3U  SP=-6.261012589187D-15
                          Isotropic Fermi Contact Couplings
        Atom                 a.u.       MegaHertz       Gauss      10(-4) cm-1
     1  C(13)              0.06925      77.85266      27.77977      25.96885
     2  C(13)             -0.00704      -7.91180      -2.82313      -2.63909
     3  C(13)             -0.00704      -7.91180      -2.82313      -2.63909
     4  C(13)              0.06925      77.85266      27.77977      25.96885
     5  C(13)             -0.00704      -7.91180      -2.82313      -2.63909
     6  C(13)             -0.00704      -7.91180      -2.82313      -2.63909
     7  H(1)              -0.00916     -40.95205     -14.61271     -13.66013
     8  H(1)              -0.00082      -3.67980      -1.31304      -1.22745
     9  H(1)              -0.00082      -3.67980      -1.31304      -1.22745
    10  H(1)              -0.00916     -40.95205     -14.61271     -13.66013
    11  H(1)              -0.00082      -3.67980      -1.31304      -1.22745
    12  H(1)              -0.00082      -3.67980      -1.31304      -1.22745
 --------------------------------------------------------
       Center         ----  Spin Dipole Couplings  ----
                      3XX-RR        3YY-RR        3ZZ-RR
 --------------------------------------------------------
     1   Atom       -0.267651     -0.260009      0.527659
     2   Atom       -0.014575     -0.022475      0.037050
     3   Atom       -0.014575     -0.022475      0.037050
     4   Atom       -0.267651     -0.260009      0.527659
     5   Atom       -0.014575     -0.022475      0.037050
     6   Atom       -0.014575     -0.022475      0.037050
     7   Atom       -0.034511      0.042881     -0.008371
     8   Atom        0.013275     -0.007154     -0.006121
     9   Atom        0.013275     -0.007154     -0.006121
    10   Atom       -0.034511      0.042881     -0.008371
    11   Atom        0.013275     -0.007154     -0.006121
    12   Atom        0.013275     -0.007154     -0.006121
 --------------------------------------------------------
                        XY            XZ            YZ
 --------------------------------------------------------
     1   Atom        0.000000      0.000000     -0.000000
     2   Atom        0.003986     -0.000000      0.000000
     3   Atom       -0.003986     -0.000000     -0.000000
     4   Atom        0.000000      0.000000      0.000000
     5   Atom        0.003986      0.000000     -0.000000
     6   Atom       -0.003986      0.000000      0.000000
     7   Atom       -0.000000      0.000000      0.000000
     8   Atom       -0.002331      0.000000     -0.000000
     9   Atom        0.002331      0.000000      0.000000
    10   Atom        0.000000     -0.000000     -0.000000
    11   Atom       -0.002331     -0.000000      0.000000
    12   Atom        0.002331     -0.000000     -0.000000
 --------------------------------------------------------


 ---------------------------------------------------------------------------------
              Anisotropic Spin Dipole Couplings in Principal Axis System
 ---------------------------------------------------------------------------------

       Atom             a.u.   MegaHertz   Gauss  10(-4) cm-1        Axes

              Baa    -0.2677   -35.916   -12.816   -11.980  1.0000 -0.0000  0.0000
     1 C(13)  Bbb    -0.2600   -34.891   -12.450   -11.638  0.0000  1.0000  0.0000
              Bcc     0.5277    70.807    25.266    23.619  0.0000  0.0000  1.0000
 
              Baa    -0.0241    -3.239    -1.156    -1.080 -0.3848  0.9230 -0.0000
     2 C(13)  Bbb    -0.0129    -1.733    -0.618    -0.578  0.9230  0.3848 -0.0000
              Bcc     0.0371     4.972     1.774     1.658  0.0000  0.0000  1.0000
 
              Baa    -0.0241    -3.239    -1.156    -1.080  0.3848  0.9230 -0.0000
     3 C(13)  Bbb    -0.0129    -1.733    -0.618    -0.578  0.9230 -0.3848  0.0000
              Bcc     0.0371     4.972     1.774     1.658  0.0000  0.0000  1.0000
 
              Baa    -0.2677   -35.916   -12.816   -11.980  1.0000 -0.0000 -0.0000
     4 C(13)  Bbb    -0.2600   -34.891   -12.450   -11.638  0.0000  1.0000 -0.0000
              Bcc     0.5277    70.807    25.266    23.619  0.0000  0.0000  1.0000
 
              Baa    -0.0241    -3.239    -1.156    -1.080 -0.3848  0.9230 -0.0000
     5 C(13)  Bbb    -0.0129    -1.733    -0.618    -0.578  0.9230  0.3848 -0.0000
              Bcc     0.0371     4.972     1.774     1.658  0.0000  0.0000  1.0000
 
              Baa    -0.0241    -3.239    -1.156    -1.080  0.3848  0.9230 -0.0000
     6 C(13)  Bbb    -0.0129    -1.733    -0.618    -0.578  0.9230 -0.3848  0.0000
              Bcc     0.0371     4.972     1.774     1.658  0.0000  0.0000  1.0000
 
              Baa    -0.0345   -18.413    -6.570    -6.142  1.0000  0.0000 -0.0000
     7 H(1)   Bbb    -0.0084    -4.466    -1.594    -1.490  0.0000  0.0000  1.0000
              Bcc     0.0429    22.879     8.164     7.632 -0.0000  1.0000 -0.0000
 
              Baa    -0.0074    -3.957    -1.412    -1.320  0.1120  0.9937  0.0000
     8 H(1)   Bbb    -0.0061    -3.266    -1.165    -1.089  0.0000  0.0000  1.0000
              Bcc     0.0135     7.223     2.577     2.409  0.9937 -0.1120  0.0000
 
              Baa    -0.0074    -3.957    -1.412    -1.320 -0.1120  0.9937  0.0000
     9 H(1)   Bbb    -0.0061    -3.266    -1.165    -1.089  0.0000  0.0000  1.0000
              Bcc     0.0135     7.223     2.577     2.409  0.9937  0.1120 -0.0000
 
              Baa    -0.0345   -18.413    -6.570    -6.142  1.0000 -0.0000 -0.0000
    10 H(1)   Bbb    -0.0084    -4.466    -1.594    -1.490  0.0000  0.0000  1.0000
              Bcc     0.0429    22.879     8.164     7.632  0.0000  1.0000 -0.0000
 
              Baa    -0.0074    -3.957    -1.412    -1.320  0.1120  0.9937  0.0000
    11 H(1)   Bbb    -0.0061    -3.266    -1.165    -1.089  0.0000  0.0000  1.0000
              Bcc     0.0135     7.223     2.577     2.409  0.9937 -0.1120  0.0000
 
              Baa    -0.0074    -3.957    -1.412    -1.320 -0.1120  0.9937  0.0000
    12 H(1)   Bbb    -0.0061    -3.266    -1.165    -1.089  0.0000  0.0000  1.0000
              Bcc     0.0135     7.223     2.577     2.409  0.9937  0.1120 -0.0000
 

 ---------------------------------------------------------------------------------

 No NMR shielding tensors so no spin-rotation constants.
 Leave Link  601 at Mon Mar 16 03:50:57 2020, MaxMem=  6710886400 cpu:               3.5 elap:               0.2
 (Enter /opt/ohpc/pub/libs/gaussian/g16-A.03/sandybridge/g16/l9999.exe)

 Test job not archived.
 1\1\GINC-CNODE145\SP\ULC-wHPBE\6-31G\C6H6(1+,2)\QAI222\16-Mar-2020\0\\
 #P uLC-wHPBE/6-31G iop(3/107=0317300000, 3/108=0317300000) scf=(conver
 =6,fermi,ndamp=35,noincfock,novaracc,vshift=500,xqc)\\H6 C6\\1,2\C,0,0
 .,1.396379,0.\C,0,-1.2093,0.69819,0.\C,0,-1.2093,-0.69819,0.\C,0,0.,-1
 .396379,0.\C,0,1.2093,-0.69819,0.\C,0,1.2093,0.69819,0.\H,0,0.,2.48461
 3,0.\H,0,-2.151738,1.242306,0.\H,0,-2.151738,-1.242306,0.\H,0,0.,-2.48
 4613,0.\H,0,2.151738,-1.242306,0.\H,0,2.151738,1.242306,0.\\Version=EM
 64L-G16RevA.03\HF=-231.6686912\S2=0.772349\S2-1=0.\S2A=0.750058\RMSD=5
 .238e-07\Dipole=0.,0.,0.\Quadrupole=2.4483548,5.1021762,-7.550531,0.,0
 .,0.\PG=D06H [3C2'(H1C1.C1H1)]\\@


 A CHEMICAL PHYSICIST MAKES PRECISE MEASUREMENTS ON IMPURE COMPOUNDS.
 A THEORETICAL PHYSICAL CHEMIST MAKES IMPRECISE
     MEASUREMENTS ON PURE COMPOUNDS.
 AN EXPERIMENTAL PHYSICAL CHEMIST MAKES IMPRECISE
     MEASUREMENTS ON IMPURE COMPOUNDS.
 Job cpu time:       0 days  0 hours  0 minutes 44.6 seconds.
 Elapsed time:       0 days  0 hours  0 minutes  3.1 seconds.
 File lengths (MBytes):  RWF=    272 Int=      0 D2E=      0 Chk=     32 Scr=     32
 Normal termination of Gaussian 16 at Mon Mar 16 03:50:57 2020.
