 Entering Gaussian System, Link 0=g16
 Input=1b_tune_n4.gjf
 Output=1b_tune_n4.log
 Initial command:
 /opt/ohpc/pub/libs/gaussian/g16-A.03/sandybridge/g16/l1.exe "/pscratch/cmri235_uksr/ocelot/fw/dev/ocelot_api/tests/wtuning_test/1b/tuning_1b_ocycle1/Gau-64667.inp" -scrdir="/pscratch/cmri235_uksr/ocelot/fw/dev/ocelot_api/tests/wtuning_test/1b/tuning_1b_ocycle1/"
 Entering Link 1 = /opt/ohpc/pub/libs/gaussian/g16-A.03/sandybridge/g16/l1.exe PID=     64668.
  
 Copyright (c) 1988,1990,1992,1993,1995,1998,2003,2009,2016,
            Gaussian, Inc.  All Rights Reserved.
  
 This is part of the Gaussian(R) 16 program.  It is based on
 the Gaussian(R) 09 system (copyright 2009, Gaussian, Inc.),
 the Gaussian(R) 03 system (copyright 2003, Gaussian, Inc.),
 the Gaussian(R) 98 system (copyright 1998, Gaussian, Inc.),
 the Gaussian(R) 94 system (copyright 1995, Gaussian, Inc.),
 the Gaussian 92(TM) system (copyright 1992, Gaussian, Inc.),
 the Gaussian 90(TM) system (copyright 1990, Gaussian, Inc.),
 the Gaussian 88(TM) system (copyright 1988, Gaussian, Inc.),
 the Gaussian 86(TM) system (copyright 1986, Carnegie Mellon
 University), and the Gaussian 82(TM) system (copyright 1983,
 Carnegie Mellon University). Gaussian is a federally registered
 trademark of Gaussian, Inc.
  
 This software contains proprietary and confidential information,
 including trade secrets, belonging to Gaussian, Inc.
  
 This software is provided under written license and may be
 used, copied, transmitted, or stored only in accord with that
 written license.
  
 The following legend is applicable only to US Government
 contracts under FAR:
  
                    RESTRICTED RIGHTS LEGEND
  
 Use, reproduction and disclosure by the US Government is
 subject to restrictions as set forth in subparagraphs (a)
 and (c) of the Commercial Computer Software - Restricted
 Rights clause in FAR 52.227-19.
  
 Gaussian, Inc.
 340 Quinnipiac St., Bldg. 40, Wallingford CT 06492
  
  
 ---------------------------------------------------------------
 Warning -- This program may not be used in any manner that
 competes with the business of Gaussian, Inc. or will provide
 assistance to any competitor of Gaussian, Inc.  The licensee
 of this program is prohibited from giving any competitor of
 Gaussian, Inc. access to this program.  By using this program,
 the user acknowledges that Gaussian, Inc. is engaged in the
 business of creating and licensing software in the field of
 computational chemistry and represents and warrants to the
 licensee that it is not a competitor of Gaussian, Inc. and that
 it will not use this program in any manner prohibited above.
 ---------------------------------------------------------------
  

 Cite this work as:
 Gaussian 16, Revision A.03,
 M. J. Frisch, G. W. Trucks, H. B. Schlegel, G. E. Scuseria, 
 M. A. Robb, J. R. Cheeseman, G. Scalmani, V. Barone, 
 G. A. Petersson, H. Nakatsuji, X. Li, M. Caricato, A. V. Marenich, 
 J. Bloino, B. G. Janesko, R. Gomperts, B. Mennucci, H. P. Hratchian, 
 J. V. Ortiz, A. F. Izmaylov, J. L. Sonnenberg, D. Williams-Young, 
 F. Ding, F. Lipparini, F. Egidi, J. Goings, B. Peng, A. Petrone, 
 T. Henderson, D. Ranasinghe, V. G. Zakrzewski, J. Gao, N. Rega, 
 G. Zheng, W. Liang, M. Hada, M. Ehara, K. Toyota, R. Fukuda, 
 J. Hasegawa, M. Ishida, T. Nakajima, Y. Honda, O. Kitao, H. Nakai, 
 T. Vreven, K. Throssell, J. A. Montgomery, Jr., J. E. Peralta, 
 F. Ogliaro, M. J. Bearpark, J. J. Heyd, E. N. Brothers, K. N. Kudin, 
 V. N. Staroverov, T. A. Keith, R. Kobayashi, J. Normand, 
 K. Raghavachari, A. P. Rendell, J. C. Burant, S. S. Iyengar, 
 J. Tomasi, M. Cossi, J. M. Millam, M. Klene, C. Adamo, R. Cammi, 
 J. W. Ochterski, R. L. Martin, K. Morokuma, O. Farkas, 
 J. B. Foresman, and D. J. Fox, Gaussian, Inc., Wallingford CT, 2016.
 
 ******************************************
 Gaussian 16:  EM64L-G16RevA.03 25-Dec-2016
                16-Mar-2020 
 ******************************************
 %mem=50GB
 %nproc=16
 Will use up to   16 processors via shared memory.
 ----------------------------------------------------------------------
 #P uLC-wHPBE/6-31G iop(3/107=0317300000, 3/108=0317300000) scf=(conver
 =6,fermi,ndamp=35,noincfock,novaracc,vshift=500,xqc)
 ----------------------------------------------------------------------
 1/38=1,172=1/1;
 2/12=2,17=6,18=5,40=1/2;
 3/5=1,6=6,11=2,25=1,30=1,74=-71,107=317300000,108=317300000,116=2/1,2,3;
 4//1;
 5/5=100002,6=6,8=3,10=500,13=1,18=-1,22=13,38=1,93=35/2,8;
 6/7=2,8=2,9=2,10=2,28=1/1;
 99/5=1,9=1/99;
 Leave Link    1 at Mon Mar 16 03:50:52 2020, MaxMem=  6710886400 cpu:              15.6 elap:               1.0
 (Enter /opt/ohpc/pub/libs/gaussian/g16-A.03/sandybridge/g16/l101.exe)
 -----
 H6 C6
 -----
 Symbolic Z-matrix:
 Charge =  0 Multiplicity = 1
 C                     0.        1.39638   0. 
 C                    -1.2093    0.69819   0. 
 C                    -1.2093   -0.69819   0. 
 C                     0.       -1.39638   0. 
 C                     1.2093   -0.69819   0. 
 C                     1.2093    0.69819   0. 
 H                     0.        2.48461   0. 
 H                    -2.15174   1.24231   0. 
 H                    -2.15174  -1.24231   0. 
 H                     0.       -2.48461   0. 
 H                     2.15174  -1.24231   0. 
 H                     2.15174   1.24231   0. 
 
 ITRead=  0  0  0  0  0  0  0  0  0  0  0  0
 MicOpt= -1 -1 -1 -1 -1 -1 -1 -1 -1 -1 -1 -1
 NAtoms=     12 NQM=       12 NQMF=       0 NMMI=      0 NMMIF=      0
                NMic=       0 NMicF=      0.
                    Isotopes and Nuclear Properties:
 (Nuclear quadrupole moments (NQMom) in fm**2, nuclear magnetic moments (NMagM)
  in nuclear magnetons)

  Atom         1           2           3           4           5           6           7           8           9          10
 IAtWgt=          12          12          12          12          12          12           1           1           1           1
 AtmWgt=  12.0000000  12.0000000  12.0000000  12.0000000  12.0000000  12.0000000   1.0078250   1.0078250   1.0078250   1.0078250
 NucSpn=           0           0           0           0           0           0           1           1           1           1
 AtZEff=  -0.0000000  -0.0000000  -0.0000000  -0.0000000  -0.0000000  -0.0000000  -0.0000000  -0.0000000  -0.0000000  -0.0000000
 NQMom=    0.0000000   0.0000000   0.0000000   0.0000000   0.0000000   0.0000000   0.0000000   0.0000000   0.0000000   0.0000000
 NMagM=    0.0000000   0.0000000   0.0000000   0.0000000   0.0000000   0.0000000   2.7928460   2.7928460   2.7928460   2.7928460
 AtZNuc=   6.0000000   6.0000000   6.0000000   6.0000000   6.0000000   6.0000000   1.0000000   1.0000000   1.0000000   1.0000000

  Atom        11          12
 IAtWgt=           1           1
 AtmWgt=   1.0078250   1.0078250
 NucSpn=           1           1
 AtZEff=  -0.0000000  -0.0000000
 NQMom=    0.0000000   0.0000000
 NMagM=    2.7928460   2.7928460
 AtZNuc=   1.0000000   1.0000000
 Leave Link  101 at Mon Mar 16 03:50:52 2020, MaxMem=  6710886400 cpu:               2.8 elap:               0.2
 (Enter /opt/ohpc/pub/libs/gaussian/g16-A.03/sandybridge/g16/l202.exe)
                          Input orientation:                          
 ---------------------------------------------------------------------
 Center     Atomic      Atomic             Coordinates (Angstroms)
 Number     Number       Type             X           Y           Z
 ---------------------------------------------------------------------
      1          6           0        0.000000    1.396379    0.000000
      2          6           0       -1.209300    0.698190    0.000000
      3          6           0       -1.209300   -0.698190    0.000000
      4          6           0        0.000000   -1.396379    0.000000
      5          6           0        1.209300   -0.698190    0.000000
      6          6           0        1.209300    0.698190    0.000000
      7          1           0        0.000000    2.484613    0.000000
      8          1           0       -2.151738    1.242306    0.000000
      9          1           0       -2.151738   -1.242306    0.000000
     10          1           0        0.000000   -2.484613    0.000000
     11          1           0        2.151738   -1.242306    0.000000
     12          1           0        2.151738    1.242306    0.000000
 ---------------------------------------------------------------------
                    Distance matrix (angstroms):
                    1          2          3          4          5
     1  C    0.000000
     2  C    1.396379   0.000000
     3  C    2.418600   1.396380   0.000000
     4  C    2.792758   2.418600   1.396379   0.000000
     5  C    2.418600   2.792759   2.418600   1.396379   0.000000
     6  C    1.396379   2.418600   2.792759   2.418600   1.396380
     7  H    1.088234   2.157247   3.404797   3.880992   3.404797
     8  H    2.157247   1.088233   2.157247   3.404796   3.880992
     9  H    3.404796   2.157247   1.088233   2.157247   3.404796
    10  H    3.880992   3.404797   2.157247   1.088234   2.157247
    11  H    3.404796   3.880992   3.404796   2.157247   1.088233
    12  H    2.157247   3.404796   3.880992   3.404796   2.157247
                    6          7          8          9         10
     6  C    0.000000
     7  H    2.157247   0.000000
     8  H    3.404796   2.484613   0.000000
     9  H    3.880992   4.303476   2.484612   0.000000
    10  H    3.404797   4.969226   4.303476   2.484613   0.000000
    11  H    2.157247   4.303476   4.969226   4.303476   2.484613
    12  H    1.088233   2.484613   4.303476   4.969226   4.303476
                   11         12
    11  H    0.000000
    12  H    2.484612   0.000000
 Stoichiometry    C6H6
 Framework group  D6H[3C2'(HC.CH)]
 Deg. of freedom     2
 Full point group                 D6H     NOp  24
 Largest Abelian subgroup         D2H     NOp   8
 Largest concise Abelian subgroup D2      NOp   4
                         Standard orientation:                         
 ---------------------------------------------------------------------
 Center     Atomic      Atomic             Coordinates (Angstroms)
 Number     Number       Type             X           Y           Z
 ---------------------------------------------------------------------
      1          6           0       -0.000000    1.396379   -0.000000
      2          6           0       -1.209300    0.698190   -0.000000
      3          6           0       -1.209300   -0.698189   -0.000000
      4          6           0       -0.000000   -1.396379   -0.000000
      5          6           0        1.209300   -0.698190   -0.000000
      6          6           0        1.209300    0.698189   -0.000000
      7          1           0       -0.000000    2.484613   -0.000000
      8          1           0       -2.151738    1.242307   -0.000000
      9          1           0       -2.151738   -1.242307   -0.000000
     10          1           0       -0.000000   -2.484613   -0.000000
     11          1           0        2.151738   -1.242307   -0.000000
     12          1           0        2.151738    1.242306   -0.000000
 ---------------------------------------------------------------------
 Rotational constants (GHZ):           5.6873431           5.6873431           2.8436715
 Leave Link  202 at Mon Mar 16 03:50:52 2020, MaxMem=  6710886400 cpu:               0.3 elap:               0.0
 (Enter /opt/ohpc/pub/libs/gaussian/g16-A.03/sandybridge/g16/l301.exe)
 Standard basis: 6-31G (6D, 7F)
 Ernie: Thresh=  0.10000D-02 Tol=  0.10000D-05 Strict=F.
 There are    16 symmetry adapted cartesian basis functions of AG  symmetry.
 There are    11 symmetry adapted cartesian basis functions of B1G symmetry.
 There are     2 symmetry adapted cartesian basis functions of B2G symmetry.
 There are     4 symmetry adapted cartesian basis functions of B3G symmetry.
 There are     2 symmetry adapted cartesian basis functions of AU  symmetry.
 There are     4 symmetry adapted cartesian basis functions of B1U symmetry.
 There are    16 symmetry adapted cartesian basis functions of B2U symmetry.
 There are    11 symmetry adapted cartesian basis functions of B3U symmetry.
 There are    16 symmetry adapted basis functions of AG  symmetry.
 There are    11 symmetry adapted basis functions of B1G symmetry.
 There are     2 symmetry adapted basis functions of B2G symmetry.
 There are     4 symmetry adapted basis functions of B3G symmetry.
 There are     2 symmetry adapted basis functions of AU  symmetry.
 There are     4 symmetry adapted basis functions of B1U symmetry.
 There are    16 symmetry adapted basis functions of B2U symmetry.
 There are    11 symmetry adapted basis functions of B3U symmetry.
    66 basis functions,   156 primitive gaussians,    66 cartesian basis functions
    21 alpha electrons       21 beta electrons
       nuclear repulsion energy       203.1815835396 Hartrees.
 IExCor=33909 DFT=T Ex+Corr=LC-wHPBE ExCW=0 ScaHFX=  1.000000
 ScaDFX=  1.000000  1.000000  1.000000  1.000000 ScalE2=  1.000000  1.000000
 IRadAn=      5 IRanWt=     -1 IRanGd=            0 ICorTp=0 IEmpDi=  4
 HFx  wShort=  0.000000 wLong=  0.317300 cFull=  0.000000 cShort=  0.000000 cLong=  1.000000
 DFx  wShort=  0.000000 wLong=  0.317300 cFull=  0.000000 cShort=  1.000000 cLong=  0.000000
 NAtoms=   12 NActive=   12 NUniq=    2 SFac= 4.00D+00 NAtFMM=   60 NAOKFM=F Big=F
 Integral buffers will be    131072 words long.
 Raffenetti 2 integral format.
 Two-electron integral symmetry is turned on.
 Leave Link  301 at Mon Mar 16 03:50:52 2020, MaxMem=  6710886400 cpu:               1.1 elap:               0.1
 (Enter /opt/ohpc/pub/libs/gaussian/g16-A.03/sandybridge/g16/l302.exe)
 NPDir=0 NMtPBC=     1 NCelOv=     1 NCel=       1 NClECP=     1 NCelD=      1
         NCelK=      1 NCelE2=     1 NClLst=     1 CellRange=     0.0.
 One-electron integrals computed using PRISM.
 One-electron integral symmetry used in STVInt
 NBasis=    66 RedAO= T EigKep=  7.02D-04  NBF=    16    11     2     4     2     4    16    11
 NBsUse=    66 1.00D-06 EigRej= -1.00D+00 NBFU=    16    11     2     4     2     4    16    11
 Precomputing XC quadrature grid using
 IXCGrd= 4 IRadAn=           5 IRanWt=          -1 IRanGd=           0 AccXCQ= 0.00D+00.
 Generated NRdTot=       0 NPtTot=           0 NUsed=           0 NTot=          32
 NSgBfM=    66    66    66    66    66 MxSgAt=    12 MxSgA2=    12.
 Leave Link  302 at Mon Mar 16 03:50:53 2020, MaxMem=  6710886400 cpu:               2.1 elap:               0.1
 (Enter /opt/ohpc/pub/libs/gaussian/g16-A.03/sandybridge/g16/l303.exe)
 DipDrv:  MaxL=1.
 Leave Link  303 at Mon Mar 16 03:50:53 2020, MaxMem=  6710886400 cpu:               0.6 elap:               0.1
 (Enter /opt/ohpc/pub/libs/gaussian/g16-A.03/sandybridge/g16/l401.exe)
 ExpMin= 1.61D-01 ExpMax= 3.05D+03 ExpMxC= 4.57D+02 IAcc=3 IRadAn=         5 AccDes= 0.00D+00
 Harris functional with IExCor=33909 and IRadAn=       5 diagonalized for initial guess.
 HarFok:  IExCor=33909 AccDes= 0.00D+00 IRadAn=         5 IDoV= 1 UseB2=F ITyADJ=14
 ICtDFT=  3500011 ScaDFX=  1.000000  1.000000  1.000000  1.000000
 FoFCou: FMM=F IPFlag=           0 FMFlag=      100000 FMFlg1=           0
         NFxFlg=           0 DoJE=T BraDBF=F KetDBF=T FulRan=T
         wScrn=  0.000000 ICntrl=       500 IOpCl=  0 I1Cent=   200000004 NGrid=           0
         NMat0=    1 NMatS0=      1 NMatT0=    0 NMatD0=    1 NMtDS0=    0 NMtDT0=    0
 Petite list used in FoFCou.
 Harris En= -225.240588543611    
 JPrj=0 DoOrth=F DoCkMO=F.
 Initial guess orbital symmetries:
 Alpha Orbitals:
       Occupied  (A1G) (E1U) (E1U) (E2G) (E2G) (B1U) (A1G) (E1U)
                 (E1U) (E2G) (E2G) (A1G) (B2U) (B1U) (E1U) (E1U)
                 (A2U) (E2G) (E2G) (E1G) (E1G)
       Virtual   (E2U) (E2U) (A1G) (B2G) (E1U) (E1U) (E2G) (E2G)
                 (B1U) (E2G) (E2G) (E1U) (E1U) (B2U) (A2U) (B1U)
                 (A2G) (A1G) (E2G) (E2G) (E1G) (E1G) (A1G) (E1U)
                 (E1U) (E2U) (E2U) (B2G) (B1U) (E2G) (E2G) (E1U)
                 (E1U) (A2G) (A1G) (E1U) (E1U) (E2G) (E2G) (E1U)
                 (E1U) (B1U) (E2G) (E2G) (B1U)
 Beta  Orbitals:
       Occupied  (A1G) (E1U) (E1U) (E2G) (E2G) (B1U) (A1G) (E1U)
                 (E1U) (E2G) (E2G) (A1G) (B2U) (B1U) (E1U) (E1U)
                 (A2U) (E2G) (E2G) (E1G) (E1G)
       Virtual   (E2U) (E2U) (A1G) (B2G) (E1U) (E1U) (E2G) (E2G)
                 (B1U) (E2G) (E2G) (E1U) (E1U) (B2U) (A2U) (B1U)
                 (A2G) (A1G) (E2G) (E2G) (E1G) (E1G) (A1G) (E1U)
                 (E1U) (E2U) (E2U) (B2G) (B1U) (E2G) (E2G) (E1U)
                 (E1U) (A2G) (A1G) (E1U) (E1U) (E2G) (E2G) (E1U)
                 (E1U) (B1U) (E2G) (E2G) (B1U)
 The electronic state of the initial guess is 1-A1G.
 Initial guess <Sx>= 0.0000 <Sy>= 0.0000 <Sz>= 0.0000 <S**2>= 0.0000 S= 0.0000
 Leave Link  401 at Mon Mar 16 03:50:53 2020, MaxMem=  6710886400 cpu:               2.9 elap:               0.2
 (Enter /opt/ohpc/pub/libs/gaussian/g16-A.03/sandybridge/g16/l502.exe)
 Keep R1 and R2 ints in memory in symmetry-blocked form, NReq=19109854.
 FoFCou: FMM=F IPFlag=           0 FMFlag=           0 FMFlg1=           0
         NFxFlg=           0 DoJE=F BraDBF=F KetDBF=F FulRan=T
         wScrn=  0.000000 ICntrl=       600 IOpCl=  0 I1Cent=           0 NGrid=           0
         NMat0=    1 NMatS0=   2211 NMatT0=    0 NMatD0=    1 NMtDS0=    0 NMtDT0=    0
 Petite list used in FoFCou.
 UHF open shell SCF:
 Using DIIS extrapolation, IDIIS=    10.
 NGot=  6710886400 LenX=  6710146038 LenY=  6710141241
 Requested convergence on RMS density matrix=1.00D-06 within  32 cycles.
 Requested convergence on MAX density matrix=1.00D-04.
 Requested convergence on             energy=1.00D-04.
 Virtual orbitals will be shifted by   0.500 hartree.
 No special actions if energy rises.
 Dynamic level shift is on during FON iterations.

 Cycle   1  Pass 1  IDiag  1:
 E= -231.940989540034    
 DIIS: error= 3.54D-02 at cycle   1 NSaved=   1.
 NSaved= 1 IEnMin= 1 EnMin= -231.940989540034     IErMin= 1 ErrMin= 3.54D-02
 ErrMax= 3.54D-02  0.00D+00 EMaxC= 1.00D+00 BMatC= 2.26D-01 BMatP= 2.26D-01
 IDIUse=1 WtCom= 1.00D+00 WtEn= 0.00D+00
 Coeff-Com:  0.100D+01
 Coeff:      0.100D+01
 Gap=     0.424 Goal=   None    Shift=    0.500
 T= 1595. Gap= 0.917 NK=0 IS=   22 IE=   66 IFin=   21
          NO(<0.9)=   0  NV(>0.1)=   0     21.00e < EF      0.00e >EF  Err=0.0D+00
 Gap=     0.424 Goal=   None    Shift=    0.500
 T= 1595. Gap= 0.917 NK=0 IS=   22 IE=   66 IFin=   21
          NO(<0.9)=   0  NV(>0.1)=   0     21.00e < EF      0.00e >EF  Err=0.0D+00
 GapD=    0.424 DampG=2.000 DampE=0.500 DampFc=1.0000 IDamp=-1.
 RMSDP=4.04D-03 MaxDP=3.78D-02              OVMax= 4.73D-02

 Cycle   2  Pass 1  IDiag  1:
 E= -232.008266123272     Delta-E=       -0.067276583238 Rises=F Damp=F
 DIIS: error= 4.10D-03 at cycle   2 NSaved=   2.
 NSaved= 2 IEnMin= 2 EnMin= -232.008266123272     IErMin= 2 ErrMin= 4.10D-03
 ErrMax= 4.10D-03  0.00D+00 EMaxC= 1.00D+00 BMatC= 4.47D-03 BMatP= 2.26D-01
 IDIUse=1 WtCom= 1.00D+00 WtEn= 0.00D+00
 Coeff-Com:  0.675D-01 0.933D+00
 Coeff:      0.675D-01 0.933D+00
 Gap=     0.426 Goal=   None    Shift=    0.500
 T= 1385. Gap= 0.924 NK=0 IS=   22 IE=   66 IFin=   21
          NO(<0.9)=   0  NV(>0.1)=   0     21.00e < EF      0.00e >EF  Err=0.0D+00
 Gap=     0.426 Goal=   None    Shift=    0.500
 T= 1385. Gap= 0.924 NK=0 IS=   22 IE=   66 IFin=   21
          NO(<0.9)=   0  NV(>0.1)=   0     21.00e < EF      0.00e >EF  Err=0.0D+00
 GapD=    0.426 DampG=2.000 DampE=1.000 DampFc=2.0000 IDamp=-1.
 RMSDP=7.63D-04 MaxDP=5.38D-03 DE=-6.73D-02 OVMax= 4.71D-03

 Cycle   3  Pass 1  IDiag  1:
 E= -232.009440432075     Delta-E=       -0.001174308803 Rises=F Damp=F
 DIIS: error= 1.53D-03 at cycle   3 NSaved=   3.
 NSaved= 3 IEnMin= 3 EnMin= -232.009440432075     IErMin= 3 ErrMin= 1.53D-03
 ErrMax= 1.53D-03  0.00D+00 EMaxC= 1.00D+00 BMatC= 5.19D-04 BMatP= 4.47D-03
 IDIUse=1 WtCom= 1.00D+00 WtEn= 0.00D+00
 Coeff-Com:  0.538D-02-0.367D+00 0.136D+01
 Coeff:      0.538D-02-0.367D+00 0.136D+01
 Gap=     0.424 Goal=   None    Shift=    0.500
 T= 1024. Gap= 0.924 NK=0 IS=   22 IE=   66 IFin=   21
          NO(<0.9)=   0  NV(>0.1)=   0     21.00e < EF      0.00e >EF  Err=0.0D+00
 Gap=     0.424 Goal=   None    Shift=    0.500
 T= 1024. Gap= 0.924 NK=0 IS=   22 IE=   66 IFin=   21
          NO(<0.9)=   0  NV(>0.1)=   0     21.00e < EF      0.00e >EF  Err=0.0D+00
 GapD=    0.424 DampG=2.000 DampE=1.000 DampFc=2.0000 IDamp=-1.
 RMSDP=3.74D-04 MaxDP=2.82D-03 DE=-1.17D-03 OVMax= 2.43D-03

 Cycle   4  Pass 1  IDiag  1:
 E= -232.009643908764     Delta-E=       -0.000203476689 Rises=F Damp=F
 DIIS: error= 5.92D-04 at cycle   4 NSaved=   4.
 NSaved= 4 IEnMin= 4 EnMin= -232.009643908764     IErMin= 4 ErrMin= 5.92D-04
 ErrMax= 5.92D-04  0.00D+00 EMaxC= 1.00D+00 BMatC= 6.70D-05 BMatP= 5.19D-04
 IDIUse=1 WtCom= 1.00D+00 WtEn= 0.00D+00
 Coeff-Com: -0.331D-02 0.774D-01-0.826D+00 0.175D+01
 Coeff:     -0.331D-02 0.774D-01-0.826D+00 0.175D+01
 Gap=     0.424 Goal=   None    Shift=    0.500
 Gap=     0.424 Goal=   None    Shift=    0.500
 RMSDP=1.92D-04 MaxDP=1.32D-03 DE=-2.03D-04 OVMax= 1.29D-03

 Cycle   5  Pass 1  IDiag  1:
 E= -232.009678112317     Delta-E=       -0.000034203553 Rises=F Damp=F
 DIIS: error= 2.31D-04 at cycle   5 NSaved=   5.
 NSaved= 5 IEnMin= 5 EnMin= -232.009678112317     IErMin= 5 ErrMin= 2.31D-04
 ErrMax= 2.31D-04  0.00D+00 EMaxC= 1.00D+00 BMatC= 7.84D-06 BMatP= 6.70D-05
 IDIUse=1 WtCom= 1.00D+00 WtEn= 0.00D+00
 Coeff-Com: -0.999D-03-0.312D-01 0.440D+00-0.174D+01 0.233D+01
 Coeff:     -0.999D-03-0.312D-01 0.440D+00-0.174D+01 0.233D+01
 Gap=     0.424 Goal=   None    Shift=    0.500
 Gap=     0.424 Goal=   None    Shift=    0.500
 RMSDP=8.48D-05 MaxDP=4.96D-04 DE=-3.42D-05 OVMax= 5.57D-04

 Cycle   6  Pass 1  IDiag  1:
 E= -232.009683001094     Delta-E=       -0.000004888777 Rises=F Damp=F
 DIIS: error= 8.85D-05 at cycle   6 NSaved=   6.
 NSaved= 6 IEnMin= 6 EnMin= -232.009683001094     IErMin= 6 ErrMin= 8.85D-05
 ErrMax= 8.85D-05  0.00D+00 EMaxC= 1.00D+00 BMatC= 1.05D-06 BMatP= 7.84D-06
 IDIUse=1 WtCom= 1.00D+00 WtEn= 0.00D+00
 Coeff-Com: -0.155D-03 0.124D-01-0.171D+00 0.826D+00-0.220D+01 0.254D+01
 Coeff:     -0.155D-03 0.124D-01-0.171D+00 0.826D+00-0.220D+01 0.254D+01
 Gap=     0.424 Goal=   None    Shift=    0.500
 Gap=     0.424 Goal=   None    Shift=    0.500
 RMSDP=3.20D-05 MaxDP=1.75D-04 DE=-4.89D-06 OVMax= 2.27D-04

 Cycle   7  Pass 1  IDiag  1:
 E= -232.009683695924     Delta-E=       -0.000000694831 Rises=F Damp=F
 DIIS: error= 3.43D-05 at cycle   7 NSaved=   7.
 NSaved= 7 IEnMin= 7 EnMin= -232.009683695924     IErMin= 7 ErrMin= 3.43D-05
 ErrMax= 3.43D-05  0.00D+00 EMaxC= 1.00D+00 BMatC= 1.56D-07 BMatP= 1.05D-06
 IDIUse=1 WtCom= 1.00D+00 WtEn= 0.00D+00
 Coeff-Com: -0.368D-04-0.368D-02 0.531D-01-0.260D+00 0.846D+00-0.212D+01
 Coeff-Com:  0.249D+01
 Coeff:     -0.368D-04-0.368D-02 0.531D-01-0.260D+00 0.846D+00-0.212D+01
 Coeff:      0.249D+01
 Gap=     0.424 Goal=   None    Shift=    0.500
 Gap=     0.424 Goal=   None    Shift=    0.500
 RMSDP=1.23D-05 MaxDP=6.61D-05 DE=-6.95D-07 OVMax= 9.38D-05

 Cycle   8  Pass 1  IDiag  1:
 E= -232.009683799022     Delta-E=       -0.000000103098 Rises=F Damp=F
 DIIS: error= 1.38D-05 at cycle   8 NSaved=   8.
 NSaved= 8 IEnMin= 8 EnMin= -232.009683799022     IErMin= 8 ErrMin= 1.38D-05
 ErrMax= 1.38D-05  0.00D+00 EMaxC= 1.00D+00 BMatC= 2.50D-08 BMatP= 1.56D-07
 IDIUse=1 WtCom= 1.00D+00 WtEn= 0.00D+00
 Coeff-Com: -0.304D-04 0.169D-02-0.229D-01 0.111D+00-0.332D+00 0.948D+00
 Coeff-Com: -0.240D+01 0.269D+01
 Coeff:     -0.304D-04 0.169D-02-0.229D-01 0.111D+00-0.332D+00 0.948D+00
 Coeff:     -0.240D+01 0.269D+01
 Gap=     0.424 Goal=   None    Shift=    0.500
 Gap=     0.424 Goal=   None    Shift=    0.500
 RMSDP=4.91D-06 MaxDP=2.79D-05 DE=-1.03D-07 OVMax= 3.89D-05

 Cycle   9  Pass 1  IDiag  1:
 E= -232.009683815006     Delta-E=       -0.000000015984 Rises=F Damp=F
 DIIS: error= 5.52D-06 at cycle   9 NSaved=   9.
 NSaved= 9 IEnMin= 9 EnMin= -232.009683815006     IErMin= 9 ErrMin= 5.52D-06
 ErrMax= 5.52D-06  0.00D+00 EMaxC= 1.00D+00 BMatC= 4.08D-09 BMatP= 2.50D-08
 IDIUse=1 WtCom= 1.00D+00 WtEn= 0.00D+00
 Coeff-Com: -0.258D-05-0.462D-04 0.661D-03-0.435D-02 0.187D-01-0.602D-01
 Coeff-Com:  0.341D+00-0.154D+01 0.225D+01
 Coeff:     -0.258D-05-0.462D-04 0.661D-03-0.435D-02 0.187D-01-0.602D-01
 Coeff:      0.341D+00-0.154D+01 0.225D+01
 Gap=     0.424 Goal=   None    Shift=    0.500
 Gap=     0.424 Goal=   None    Shift=    0.500
 RMSDP=1.94D-06 MaxDP=1.14D-05 DE=-1.60D-08 OVMax= 1.59D-05

 Cycle  10  Pass 1  IDiag  1:
 E= -232.009683817525     Delta-E=       -0.000000002519 Rises=F Damp=F
 DIIS: error= 2.20D-06 at cycle  10 NSaved=  10.
 NSaved=10 IEnMin=10 EnMin= -232.009683817525     IErMin=10 ErrMin= 2.20D-06
 ErrMax= 2.20D-06  0.00D+00 EMaxC= 1.00D+00 BMatC= 6.74D-10 BMatP= 4.08D-09
 IDIUse=1 WtCom= 1.00D+00 WtEn= 0.00D+00
 Coeff-Com:  0.107D-05-0.526D-04 0.803D-03-0.488D-02 0.188D-01-0.558D-01
 Coeff-Com:  0.116D+00 0.214D+00-0.182D+01 0.253D+01
 Coeff:      0.107D-05-0.526D-04 0.803D-03-0.488D-02 0.188D-01-0.558D-01
 Coeff:      0.116D+00 0.214D+00-0.182D+01 0.253D+01
 Gap=     0.424 Goal=   None    Shift=    0.500
 Gap=     0.424 Goal=   None    Shift=    0.500
 RMSDP=7.63D-07 MaxDP=4.59D-06 DE=-2.52D-09 OVMax= 6.48D-06

 SCF Done:  E(ULC-wHPBE) =  -232.009683818     A.U. after   10 cycles
            NFock= 10  Conv=0.76D-06     -V/T= 2.0060
 <Sx>= 0.0000 <Sy>= 0.0000 <Sz>= 0.0000 <S**2>=-0.0000 S=-0.0000
 <L.S>= 0.000000000000E+00
 KE= 2.306363023232D+02 PE=-9.442596648987D+02 EE= 2.784320952184D+02
 Annihilation of the first spin contaminant:
 S**2 before annihilation     0.0000,   after     0.0000
 Leave Link  502 at Mon Mar 16 03:50:54 2020, MaxMem=  6710886400 cpu:              11.4 elap:               0.7
 (Enter /opt/ohpc/pub/libs/gaussian/g16-A.03/sandybridge/g16/l508.exe)
 QCSCF skips out because SCF is already converged.
 Leave Link  508 at Mon Mar 16 03:50:54 2020, MaxMem=  6710886400 cpu:               0.3 elap:               0.0
 (Enter /opt/ohpc/pub/libs/gaussian/g16-A.03/sandybridge/g16/l601.exe)
 Copying SCF densities to generalized density rwf, IOpCl= 1 IROHF=0.

 **********************************************************************

            Population analysis using the SCF density.

 **********************************************************************

 Orbital symmetries:
 Alpha Orbitals:
       Occupied  (A1G) (E1U) (E1U) (E2G) (E2G) (B1U) (A1G) (E1U)
                 (E1U) (E2G) (E2G) (A1G) (B1U) (B2U) (E1U) (E1U)
                 (A2U) (E2G) (E2G) (E1G) (E1G)
       Virtual   (E2U) (E2U) (A1G) (E1U) (E1U) (B2G) (E2G) (E2G)
                 (B1U) (E2G) (E2G) (E1U) (E1U) (B2U) (A2U) (B1U)
                 (A2G) (A1G) (E1G) (E1G) (E2G) (E2G) (A1G) (E1U)
                 (E1U) (E2U) (E2U) (B2G) (B1U) (E2G) (E2G) (E1U)
                 (E1U) (A1G) (A2G) (E1U) (E1U) (E2G) (E2G) (E1U)
                 (E1U) (B1U) (E2G) (E2G) (B1U)
 Beta  Orbitals:
       Occupied  (A1G) (E1U) (E1U) (E2G) (E2G) (B1U) (A1G) (E1U)
                 (E1U) (E2G) (E2G) (A1G) (B1U) (B2U) (E1U) (E1U)
                 (A2U) (E2G) (E2G) (E1G) (E1G)
       Virtual   (E2U) (E2U) (A1G) (E1U) (E1U) (B2G) (E2G) (E2G)
                 (B1U) (E2G) (E2G) (E1U) (E1U) (B2U) (A2U) (B1U)
                 (A2G) (A1G) (E1G) (E1G) (E2G) (E2G) (A1G) (E1U)
                 (E1U) (E2U) (E2U) (B2G) (B1U) (E2G) (E2G) (E1U)
                 (E1U) (A1G) (A2G) (E1U) (E1U) (E2G) (E2G) (E1U)
                 (E1U) (B1U) (E2G) (E2G) (B1U)
 The electronic state is 1-A1G.
 Alpha  occ. eigenvalues --  -10.07368 -10.07358 -10.07358 -10.07327 -10.07327
 Alpha  occ. eigenvalues --  -10.07317  -0.96164  -0.85154  -0.85154  -0.70559
 Alpha  occ. eigenvalues --   -0.70559  -0.63015  -0.55843  -0.54482  -0.51949
 Alpha  occ. eigenvalues --   -0.51949  -0.47651  -0.43374  -0.43374  -0.34181
 Alpha  occ. eigenvalues --   -0.34181
 Alpha virt. eigenvalues --    0.08241   0.08241   0.18309   0.23803   0.23803
 Alpha virt. eigenvalues --    0.25935   0.27755   0.27755   0.28661   0.39684
 Alpha virt. eigenvalues --    0.39684   0.41343   0.41343   0.59233   0.62317
 Alpha virt. eigenvalues --    0.64260   0.65813   0.68177   0.70884   0.70884
 Alpha virt. eigenvalues --    0.72489   0.72489   0.73537   0.76655   0.76655
 Alpha virt. eigenvalues --    0.76733   0.76733   0.84257   0.94498   0.95617
 Alpha virt. eigenvalues --    0.95617   0.99907   0.99907   1.06586   1.07798
 Alpha virt. eigenvalues --    1.10650   1.10650   1.22932   1.22932   1.28995
 Alpha virt. eigenvalues --    1.28995   1.32588   1.56038   1.56038   2.00617
  Beta  occ. eigenvalues --  -10.07368 -10.07358 -10.07358 -10.07327 -10.07327
  Beta  occ. eigenvalues --  -10.07317  -0.96164  -0.85154  -0.85154  -0.70559
  Beta  occ. eigenvalues --   -0.70559  -0.63015  -0.55843  -0.54482  -0.51949
  Beta  occ. eigenvalues --   -0.51949  -0.47651  -0.43374  -0.43374  -0.34181
  Beta  occ. eigenvalues --   -0.34181
  Beta virt. eigenvalues --    0.08241   0.08241   0.18309   0.23803   0.23803
  Beta virt. eigenvalues --    0.25935   0.27755   0.27755   0.28661   0.39684
  Beta virt. eigenvalues --    0.39684   0.41343   0.41343   0.59233   0.62317
  Beta virt. eigenvalues --    0.64260   0.65813   0.68177   0.70884   0.70884
  Beta virt. eigenvalues --    0.72489   0.72489   0.73537   0.76655   0.76655
  Beta virt. eigenvalues --    0.76733   0.76733   0.84257   0.94498   0.95617
  Beta virt. eigenvalues --    0.95617   0.99907   0.99907   1.06586   1.07798
  Beta virt. eigenvalues --    1.10650   1.10650   1.22932   1.22932   1.28995
  Beta virt. eigenvalues --    1.28995   1.32588   1.56038   1.56038   2.00617
          Condensed to atoms (all electrons):
               1          2          3          4          5          6
     1  C    4.903248   0.539347  -0.050732  -0.034962  -0.050732   0.539347
     2  C    0.539347   4.903248   0.539347  -0.050732  -0.034962  -0.050732
     3  C   -0.050732   0.539347   4.903248   0.539347  -0.050732  -0.034962
     4  C   -0.034962  -0.050732   0.539347   4.903248   0.539347  -0.050732
     5  C   -0.050732  -0.034962  -0.050732   0.539347   4.903248   0.539347
     6  C    0.539347  -0.050732  -0.034962  -0.050732   0.539347   4.903248
     7  H    0.368427  -0.033383   0.003888   0.000354   0.003888  -0.033383
     8  H   -0.033383   0.368427  -0.033383   0.003888   0.000354   0.003888
     9  H    0.003888  -0.033383   0.368427  -0.033383   0.003888   0.000354
    10  H    0.000354   0.003888  -0.033383   0.368427  -0.033383   0.003888
    11  H    0.003888   0.000354   0.003888  -0.033383   0.368427  -0.033383
    12  H   -0.033383   0.003888   0.000354   0.003888  -0.033383   0.368427
               7          8          9         10         11         12
     1  C    0.368427  -0.033383   0.003888   0.000354   0.003888  -0.033383
     2  C   -0.033383   0.368427  -0.033383   0.003888   0.000354   0.003888
     3  C    0.003888  -0.033383   0.368427  -0.033383   0.003888   0.000354
     4  C    0.000354   0.003888  -0.033383   0.368427  -0.033383   0.003888
     5  C    0.003888   0.000354   0.003888  -0.033383   0.368427  -0.033383
     6  C   -0.033383   0.003888   0.000354   0.003888  -0.033383   0.368427
     7  H    0.542707  -0.003774  -0.000131   0.000007  -0.000131  -0.003774
     8  H   -0.003774   0.542707  -0.003774  -0.000131   0.000007  -0.000131
     9  H   -0.000131  -0.003774   0.542707  -0.003774  -0.000131   0.000007
    10  H    0.000007  -0.000131  -0.003774   0.542707  -0.003774  -0.000131
    11  H   -0.000131   0.000007  -0.000131  -0.003774   0.542707  -0.003774
    12  H   -0.003774  -0.000131   0.000007  -0.000131  -0.003774   0.542707
          Atomic-Atomic Spin Densities.
               1          2          3          4          5          6
     1  C   -0.000000  -0.000000  -0.000000   0.000000  -0.000000  -0.000000
     2  C   -0.000000  -0.000000  -0.000000  -0.000000   0.000000  -0.000000
     3  C   -0.000000  -0.000000  -0.000000  -0.000000  -0.000000   0.000000
     4  C    0.000000  -0.000000  -0.000000  -0.000000  -0.000000  -0.000000
     5  C   -0.000000   0.000000  -0.000000  -0.000000  -0.000000  -0.000000
     6  C   -0.000000  -0.000000   0.000000  -0.000000  -0.000000  -0.000000
     7  H    0.000000  -0.000000   0.000000  -0.000000   0.000000  -0.000000
     8  H   -0.000000   0.000000  -0.000000   0.000000  -0.000000   0.000000
     9  H    0.000000  -0.000000   0.000000  -0.000000   0.000000  -0.000000
    10  H   -0.000000   0.000000  -0.000000   0.000000  -0.000000   0.000000
    11  H    0.000000  -0.000000   0.000000  -0.000000   0.000000  -0.000000
    12  H   -0.000000   0.000000  -0.000000   0.000000  -0.000000   0.000000
               7          8          9         10         11         12
     1  C    0.000000  -0.000000   0.000000  -0.000000   0.000000  -0.000000
     2  C   -0.000000   0.000000  -0.000000   0.000000  -0.000000   0.000000
     3  C    0.000000  -0.000000   0.000000  -0.000000   0.000000  -0.000000
     4  C   -0.000000   0.000000  -0.000000   0.000000  -0.000000   0.000000
     5  C    0.000000  -0.000000   0.000000  -0.000000   0.000000  -0.000000
     6  C   -0.000000   0.000000  -0.000000   0.000000  -0.000000   0.000000
     7  H    0.000000  -0.000000   0.000000  -0.000000   0.000000  -0.000000
     8  H   -0.000000   0.000000  -0.000000   0.000000  -0.000000   0.000000
     9  H    0.000000  -0.000000   0.000000  -0.000000   0.000000  -0.000000
    10  H   -0.000000   0.000000  -0.000000   0.000000  -0.000000   0.000000
    11  H    0.000000  -0.000000   0.000000  -0.000000   0.000000  -0.000000
    12  H   -0.000000   0.000000  -0.000000   0.000000  -0.000000   0.000000
 Mulliken charges and spin densities:
               1          2
     1  C   -0.155306  -0.000000
     2  C   -0.155306  -0.000000
     3  C   -0.155306  -0.000000
     4  C   -0.155306  -0.000000
     5  C   -0.155306  -0.000000
     6  C   -0.155306  -0.000000
     7  H    0.155306   0.000000
     8  H    0.155306   0.000000
     9  H    0.155306   0.000000
    10  H    0.155306   0.000000
    11  H    0.155306   0.000000
    12  H    0.155306   0.000000
 Sum of Mulliken charges =   0.00000  -0.00000
 Mulliken charges and spin densities with hydrogens summed into heavy atoms:
               1          2
     1  C    0.000000  -0.000000
     2  C    0.000000  -0.000000
     3  C    0.000000  -0.000000
     4  C    0.000000  -0.000000
     5  C    0.000000  -0.000000
     6  C    0.000000  -0.000000
 Electronic spatial extent (au):  <R**2>=            458.0618
 Charge=              0.0000 electrons
 Dipole moment (field-independent basis, Debye):
    X=             -0.0000    Y=              0.0000    Z=             -0.0000  Tot=              0.0000
 Quadrupole moment (field-independent basis, Debye-Ang):
   XX=            -31.0320   YY=            -31.0320   ZZ=            -38.9719
   XY=             -0.0000   XZ=             -0.0000   YZ=             -0.0000
 Traceless Quadrupole moment (field-independent basis, Debye-Ang):
   XX=              2.6466   YY=              2.6466   ZZ=             -5.2933
   XY=             -0.0000   XZ=             -0.0000   YZ=             -0.0000
 Octapole moment (field-independent basis, Debye-Ang**2):
  XXX=              0.0000  YYY=              0.0000  ZZZ=              0.0000  XYY=              0.0000
  XXY=              0.0000  XXZ=              0.0000  XZZ=              0.0000  YZZ=              0.0000
  YYZ=              0.0000  XYZ=             -0.0000
 Hexadecapole moment (field-independent basis, Debye-Ang**3):
 XXXX=           -264.1452 YYYY=           -264.1452 ZZZZ=            -40.3797 XXXY=              0.0000
 XXXZ=             -0.0000 YYYX=              0.0000 YYYZ=             -0.0000 ZZZX=             -0.0000
 ZZZY=             -0.0000 XXYY=            -88.0484 XXZZ=            -60.7083 YYZZ=            -60.7083
 XXYZ=             -0.0000 YYXZ=             -0.0000 ZZXY=              0.0000
 N-N= 2.031815835396D+02 E-N=-9.442595556179D+02  KE= 2.306363023232D+02
 Symmetry AG   KE= 7.427144430685D+01
 Symmetry B1G  KE= 3.757829441775D+01
 Symmetry B2G  KE= 2.261635112647D+00
 Symmetry B3G  KE= 2.261635112647D+00
 Symmetry AU   KE= 4.125933468063D-17
 Symmetry B1U  KE= 1.890456741928D+00
 Symmetry B2U  KE= 7.197575795162D+01
 Symmetry B3U  KE= 4.039707867972D+01
 Symmetry AG   SP=-4.503235763734D-14
 Symmetry B1G  SP=-2.384917585487D-14
 Symmetry B2G  SP=-6.700570645444D-15
 Symmetry B3G  SP=-6.492781589951D-15
 Symmetry AU   SP= 6.174229793575D-17
 Symmetry B1U  SP=-8.150084482711D-15
 Symmetry B2U  SP=-4.327759097126D-14
 Symmetry B3U  SP=-2.088159115810D-14
                          Isotropic Fermi Contact Couplings
        Atom                 a.u.       MegaHertz       Gauss      10(-4) cm-1
     1  C(13)             -0.00000      -0.00000      -0.00000      -0.00000
     2  C(13)             -0.00000      -0.00000      -0.00000      -0.00000
     3  C(13)             -0.00000      -0.00000      -0.00000      -0.00000
     4  C(13)             -0.00000      -0.00000      -0.00000      -0.00000
     5  C(13)             -0.00000      -0.00000      -0.00000      -0.00000
     6  C(13)             -0.00000      -0.00000      -0.00000      -0.00000
     7  H(1)              -0.00000      -0.00000      -0.00000      -0.00000
     8  H(1)              -0.00000      -0.00000      -0.00000      -0.00000
     9  H(1)              -0.00000      -0.00000      -0.00000      -0.00000
    10  H(1)              -0.00000      -0.00000      -0.00000      -0.00000
    11  H(1)              -0.00000      -0.00000      -0.00000      -0.00000
    12  H(1)              -0.00000      -0.00000      -0.00000      -0.00000
 --------------------------------------------------------
       Center         ----  Spin Dipole Couplings  ----
                      3XX-RR        3YY-RR        3ZZ-RR
 --------------------------------------------------------
     1   Atom        0.000000      0.000000      0.000000
     2   Atom        0.000000      0.000000      0.000000
     3   Atom        0.000000      0.000000      0.000000
     4   Atom        0.000000      0.000000      0.000000
     5   Atom        0.000000      0.000000      0.000000
     6   Atom        0.000000      0.000000      0.000000
     7   Atom        0.000000      0.000000      0.000000
     8   Atom        0.000000      0.000000      0.000000
     9   Atom        0.000000      0.000000      0.000000
    10   Atom        0.000000      0.000000      0.000000
    11   Atom        0.000000      0.000000      0.000000
    12   Atom        0.000000      0.000000      0.000000
 --------------------------------------------------------
                        XY            XZ            YZ
 --------------------------------------------------------
     1   Atom        0.000000      0.000000      0.000000
     2   Atom        0.000000      0.000000      0.000000
     3   Atom        0.000000      0.000000      0.000000
     4   Atom        0.000000      0.000000      0.000000
     5   Atom        0.000000      0.000000      0.000000
     6   Atom        0.000000      0.000000      0.000000
     7   Atom        0.000000      0.000000      0.000000
     8   Atom        0.000000      0.000000      0.000000
     9   Atom        0.000000      0.000000      0.000000
    10   Atom        0.000000      0.000000      0.000000
    11   Atom        0.000000      0.000000      0.000000
    12   Atom        0.000000      0.000000      0.000000
 --------------------------------------------------------


 ---------------------------------------------------------------------------------
              Anisotropic Spin Dipole Couplings in Principal Axis System
 ---------------------------------------------------------------------------------

       Atom             a.u.   MegaHertz   Gauss  10(-4) cm-1        Axes

              Baa     0.0000     0.000     0.000     0.000  1.0000  0.0000  0.0000
     1 C(13)  Bbb     0.0000     0.000     0.000     0.000 -0.0000  1.0000  0.0000
              Bcc     0.0000     0.000     0.000     0.000  0.0000  0.0000  1.0000
 
              Baa     0.0000     0.000     0.000     0.000  1.0000  0.0000  0.0000
     2 C(13)  Bbb     0.0000     0.000     0.000     0.000 -0.0000  1.0000  0.0000
              Bcc     0.0000     0.000     0.000     0.000  0.0000  0.0000  1.0000
 
              Baa     0.0000     0.000     0.000     0.000  1.0000  0.0000  0.0000
     3 C(13)  Bbb     0.0000     0.000     0.000     0.000 -0.0000  1.0000  0.0000
              Bcc     0.0000     0.000     0.000     0.000  0.0000  0.0000  1.0000
 
              Baa     0.0000     0.000     0.000     0.000  1.0000  0.0000  0.0000
     4 C(13)  Bbb     0.0000     0.000     0.000     0.000 -0.0000  1.0000  0.0000
              Bcc     0.0000     0.000     0.000     0.000  0.0000  0.0000  1.0000
 
              Baa     0.0000     0.000     0.000     0.000  1.0000  0.0000  0.0000
     5 C(13)  Bbb     0.0000     0.000     0.000     0.000 -0.0000  1.0000  0.0000
              Bcc     0.0000     0.000     0.000     0.000  0.0000  0.0000  1.0000
 
              Baa     0.0000     0.000     0.000     0.000  1.0000  0.0000  0.0000
     6 C(13)  Bbb     0.0000     0.000     0.000     0.000 -0.0000  1.0000  0.0000
              Bcc     0.0000     0.000     0.000     0.000  0.0000  0.0000  1.0000
 
              Baa     0.0000     0.000     0.000     0.000  1.0000  0.0000  0.0000
     7 H(1)   Bbb     0.0000     0.000     0.000     0.000 -0.0000  1.0000  0.0000
              Bcc     0.0000     0.000     0.000     0.000  0.0000  0.0000  1.0000
 
              Baa     0.0000     0.000     0.000     0.000  1.0000  0.0000  0.0000
     8 H(1)   Bbb     0.0000     0.000     0.000     0.000 -0.0000  1.0000  0.0000
              Bcc     0.0000     0.000     0.000     0.000  0.0000  0.0000  1.0000
 
              Baa     0.0000     0.000     0.000     0.000  1.0000  0.0000  0.0000
     9 H(1)   Bbb     0.0000     0.000     0.000     0.000 -0.0000  1.0000  0.0000
              Bcc     0.0000     0.000     0.000     0.000  0.0000  0.0000  1.0000
 
              Baa     0.0000     0.000     0.000     0.000  1.0000  0.0000  0.0000
    10 H(1)   Bbb     0.0000     0.000     0.000     0.000 -0.0000  1.0000  0.0000
              Bcc     0.0000     0.000     0.000     0.000  0.0000  0.0000  1.0000
 
              Baa     0.0000     0.000     0.000     0.000  1.0000  0.0000  0.0000
    11 H(1)   Bbb     0.0000     0.000     0.000     0.000 -0.0000  1.0000  0.0000
              Bcc     0.0000     0.000     0.000     0.000  0.0000  0.0000  1.0000
 
              Baa     0.0000     0.000     0.000     0.000  1.0000  0.0000  0.0000
    12 H(1)   Bbb     0.0000     0.000     0.000     0.000 -0.0000  1.0000  0.0000
              Bcc     0.0000     0.000     0.000     0.000  0.0000  0.0000  1.0000
 

 ---------------------------------------------------------------------------------

 No NMR shielding tensors so no spin-rotation constants.
 Leave Link  601 at Mon Mar 16 03:50:54 2020, MaxMem=  6710886400 cpu:               2.1 elap:               0.2
 (Enter /opt/ohpc/pub/libs/gaussian/g16-A.03/sandybridge/g16/l9999.exe)

 Test job not archived.
 1\1\GINC-CNODE145\SP\ULC-wHPBE\6-31G\C6H6\QAI222\16-Mar-2020\0\\#P uLC
 -wHPBE/6-31G iop(3/107=0317300000, 3/108=0317300000) scf=(conver=6,fer
 mi,ndamp=35,noincfock,novaracc,vshift=500,xqc)\\H6 C6\\0,1\C,0,0.,1.39
 6379,0.\C,0,-1.2093,0.69819,0.\C,0,-1.2093,-0.69819,0.\C,0,0.,-1.39637
 9,0.\C,0,1.2093,-0.69819,0.\C,0,1.2093,0.69819,0.\H,0,0.,2.484613,0.\H
 ,0,-2.151738,1.242306,0.\H,0,-2.151738,-1.242306,0.\H,0,0.,-2.484613,0
 .\H,0,2.151738,-1.242306,0.\H,0,2.151738,1.242306,0.\\Version=EM64L-G1
 6RevA.03\State=1-A1G\HF=-232.0096838\S2=0.\S2-1=0.\S2A=0.\RMSD=7.632e-
 07\Dipole=0.,0.,0.\Quadrupole=1.9677016,1.9677016,-3.9354032,0.,0.,0.\
 PG=D06H [3C2'(H1C1.C1H1)]\\@


 Any fool can criticize, condemn, and complain -- and most do.
 -- Dale Carnegie
 Job cpu time:       0 days  0 hours  0 minutes 39.8 seconds.
 Elapsed time:       0 days  0 hours  0 minutes  2.8 seconds.
 File lengths (MBytes):  RWF=    272 Int=      0 D2E=      0 Chk=     32 Scr=     32
 Normal termination of Gaussian 16 at Mon Mar 16 03:50:54 2020.
