 Entering Gaussian System, Link 0=g16
 Input=1b_tune_c8.gjf
 Output=1b_tune_c8.log
 Initial command:
 /opt/ohpc/pub/libs/gaussian/g16-A.03/sandybridge/g16/l1.exe "/pscratch/cmri235_uksr/ocelot/fw/dev/ocelot_api/tests/wtuning_test/1b/tuning_1b_ocycle1/Gau-66194.inp" -scrdir="/pscratch/cmri235_uksr/ocelot/fw/dev/ocelot_api/tests/wtuning_test/1b/tuning_1b_ocycle1/"
 Entering Link 1 = /opt/ohpc/pub/libs/gaussian/g16-A.03/sandybridge/g16/l1.exe PID=     66195.
  
 Copyright (c) 1988,1990,1992,1993,1995,1998,2003,2009,2016,
            Gaussian, Inc.  All Rights Reserved.
  
 This is part of the Gaussian(R) 16 program.  It is based on
 the Gaussian(R) 09 system (copyright 2009, Gaussian, Inc.),
 the Gaussian(R) 03 system (copyright 2003, Gaussian, Inc.),
 the Gaussian(R) 98 system (copyright 1998, Gaussian, Inc.),
 the Gaussian(R) 94 system (copyright 1995, Gaussian, Inc.),
 the Gaussian 92(TM) system (copyright 1992, Gaussian, Inc.),
 the Gaussian 90(TM) system (copyright 1990, Gaussian, Inc.),
 the Gaussian 88(TM) system (copyright 1988, Gaussian, Inc.),
 the Gaussian 86(TM) system (copyright 1986, Carnegie Mellon
 University), and the Gaussian 82(TM) system (copyright 1983,
 Carnegie Mellon University). Gaussian is a federally registered
 trademark of Gaussian, Inc.
  
 This software contains proprietary and confidential information,
 including trade secrets, belonging to Gaussian, Inc.
  
 This software is provided under written license and may be
 used, copied, transmitted, or stored only in accord with that
 written license.
  
 The following legend is applicable only to US Government
 contracts under FAR:
  
                    RESTRICTED RIGHTS LEGEND
  
 Use, reproduction and disclosure by the US Government is
 subject to restrictions as set forth in subparagraphs (a)
 and (c) of the Commercial Computer Software - Restricted
 Rights clause in FAR 52.227-19.
  
 Gaussian, Inc.
 340 Quinnipiac St., Bldg. 40, Wallingford CT 06492
  
  
 ---------------------------------------------------------------
 Warning -- This program may not be used in any manner that
 competes with the business of Gaussian, Inc. or will provide
 assistance to any competitor of Gaussian, Inc.  The licensee
 of this program is prohibited from giving any competitor of
 Gaussian, Inc. access to this program.  By using this program,
 the user acknowledges that Gaussian, Inc. is engaged in the
 business of creating and licensing software in the field of
 computational chemistry and represents and warrants to the
 licensee that it is not a competitor of Gaussian, Inc. and that
 it will not use this program in any manner prohibited above.
 ---------------------------------------------------------------
  

 Cite this work as:
 Gaussian 16, Revision A.03,
 M. J. Frisch, G. W. Trucks, H. B. Schlegel, G. E. Scuseria, 
 M. A. Robb, J. R. Cheeseman, G. Scalmani, V. Barone, 
 G. A. Petersson, H. Nakatsuji, X. Li, M. Caricato, A. V. Marenich, 
 J. Bloino, B. G. Janesko, R. Gomperts, B. Mennucci, H. P. Hratchian, 
 J. V. Ortiz, A. F. Izmaylov, J. L. Sonnenberg, D. Williams-Young, 
 F. Ding, F. Lipparini, F. Egidi, J. Goings, B. Peng, A. Petrone, 
 T. Henderson, D. Ranasinghe, V. G. Zakrzewski, J. Gao, N. Rega, 
 G. Zheng, W. Liang, M. Hada, M. Ehara, K. Toyota, R. Fukuda, 
 J. Hasegawa, M. Ishida, T. Nakajima, Y. Honda, O. Kitao, H. Nakai, 
 T. Vreven, K. Throssell, J. A. Montgomery, Jr., J. E. Peralta, 
 F. Ogliaro, M. J. Bearpark, J. J. Heyd, E. N. Brothers, K. N. Kudin, 
 V. N. Staroverov, T. A. Keith, R. Kobayashi, J. Normand, 
 K. Raghavachari, A. P. Rendell, J. C. Burant, S. S. Iyengar, 
 J. Tomasi, M. Cossi, J. M. Millam, M. Klene, C. Adamo, R. Cammi, 
 J. W. Ochterski, R. L. Martin, K. Morokuma, O. Farkas, 
 J. B. Foresman, and D. J. Fox, Gaussian, Inc., Wallingford CT, 2016.
 
 ******************************************
 Gaussian 16:  EM64L-G16RevA.03 25-Dec-2016
                16-Mar-2020 
 ******************************************
 %mem=50GB
 %nproc=16
 Will use up to   16 processors via shared memory.
 ----------------------------------------------------------------------
 #P uLC-wHPBE/6-31G iop(3/107=0312200000, 3/108=0312200000) scf=(conver
 =6,fermi,ndamp=35,noincfock,novaracc,vshift=500,xqc)
 ----------------------------------------------------------------------
 1/38=1,172=1/1;
 2/12=2,17=6,18=5,40=1/2;
 3/5=1,6=6,11=2,25=1,30=1,74=-71,107=312200000,108=312200000,116=2/1,2,3;
 4//1;
 5/5=100002,6=6,8=3,10=500,13=1,18=-1,22=13,38=1,93=35/2,8;
 6/7=2,8=2,9=2,10=2,28=1/1;
 99/5=1,9=1/99;
 Leave Link    1 at Mon Mar 16 03:51:20 2020, MaxMem=  6710886400 cpu:              15.3 elap:               1.0
 (Enter /opt/ohpc/pub/libs/gaussian/g16-A.03/sandybridge/g16/l101.exe)
 -----
 H6 C6
 -----
 Symbolic Z-matrix:
 Charge =  1 Multiplicity = 2
 C                     0.        1.39638   0. 
 C                    -1.2093    0.69819   0. 
 C                    -1.2093   -0.69819   0. 
 C                     0.       -1.39638   0. 
 C                     1.2093   -0.69819   0. 
 C                     1.2093    0.69819   0. 
 H                     0.        2.48461   0. 
 H                    -2.15174   1.24231   0. 
 H                    -2.15174  -1.24231   0. 
 H                     0.       -2.48461   0. 
 H                     2.15174  -1.24231   0. 
 H                     2.15174   1.24231   0. 
 
 ITRead=  0  0  0  0  0  0  0  0  0  0  0  0
 MicOpt= -1 -1 -1 -1 -1 -1 -1 -1 -1 -1 -1 -1
 NAtoms=     12 NQM=       12 NQMF=       0 NMMI=      0 NMMIF=      0
                NMic=       0 NMicF=      0.
                    Isotopes and Nuclear Properties:
 (Nuclear quadrupole moments (NQMom) in fm**2, nuclear magnetic moments (NMagM)
  in nuclear magnetons)

  Atom         1           2           3           4           5           6           7           8           9          10
 IAtWgt=          12          12          12          12          12          12           1           1           1           1
 AtmWgt=  12.0000000  12.0000000  12.0000000  12.0000000  12.0000000  12.0000000   1.0078250   1.0078250   1.0078250   1.0078250
 NucSpn=           0           0           0           0           0           0           1           1           1           1
 AtZEff=  -0.0000000  -0.0000000  -0.0000000  -0.0000000  -0.0000000  -0.0000000  -0.0000000  -0.0000000  -0.0000000  -0.0000000
 NQMom=    0.0000000   0.0000000   0.0000000   0.0000000   0.0000000   0.0000000   0.0000000   0.0000000   0.0000000   0.0000000
 NMagM=    0.0000000   0.0000000   0.0000000   0.0000000   0.0000000   0.0000000   2.7928460   2.7928460   2.7928460   2.7928460
 AtZNuc=   6.0000000   6.0000000   6.0000000   6.0000000   6.0000000   6.0000000   1.0000000   1.0000000   1.0000000   1.0000000

  Atom        11          12
 IAtWgt=           1           1
 AtmWgt=   1.0078250   1.0078250
 NucSpn=           1           1
 AtZEff=  -0.0000000  -0.0000000
 NQMom=    0.0000000   0.0000000
 NMagM=    2.7928460   2.7928460
 AtZNuc=   1.0000000   1.0000000
 Leave Link  101 at Mon Mar 16 03:51:20 2020, MaxMem=  6710886400 cpu:               2.6 elap:               0.2
 (Enter /opt/ohpc/pub/libs/gaussian/g16-A.03/sandybridge/g16/l202.exe)
                          Input orientation:                          
 ---------------------------------------------------------------------
 Center     Atomic      Atomic             Coordinates (Angstroms)
 Number     Number       Type             X           Y           Z
 ---------------------------------------------------------------------
      1          6           0        0.000000    1.396379    0.000000
      2          6           0       -1.209300    0.698190    0.000000
      3          6           0       -1.209300   -0.698190    0.000000
      4          6           0        0.000000   -1.396379    0.000000
      5          6           0        1.209300   -0.698190    0.000000
      6          6           0        1.209300    0.698190    0.000000
      7          1           0        0.000000    2.484613    0.000000
      8          1           0       -2.151738    1.242306    0.000000
      9          1           0       -2.151738   -1.242306    0.000000
     10          1           0        0.000000   -2.484613    0.000000
     11          1           0        2.151738   -1.242306    0.000000
     12          1           0        2.151738    1.242306    0.000000
 ---------------------------------------------------------------------
                    Distance matrix (angstroms):
                    1          2          3          4          5
     1  C    0.000000
     2  C    1.396379   0.000000
     3  C    2.418600   1.396380   0.000000
     4  C    2.792758   2.418600   1.396379   0.000000
     5  C    2.418600   2.792759   2.418600   1.396379   0.000000
     6  C    1.396379   2.418600   2.792759   2.418600   1.396380
     7  H    1.088234   2.157247   3.404797   3.880992   3.404797
     8  H    2.157247   1.088233   2.157247   3.404796   3.880992
     9  H    3.404796   2.157247   1.088233   2.157247   3.404796
    10  H    3.880992   3.404797   2.157247   1.088234   2.157247
    11  H    3.404796   3.880992   3.404796   2.157247   1.088233
    12  H    2.157247   3.404796   3.880992   3.404796   2.157247
                    6          7          8          9         10
     6  C    0.000000
     7  H    2.157247   0.000000
     8  H    3.404796   2.484613   0.000000
     9  H    3.880992   4.303476   2.484612   0.000000
    10  H    3.404797   4.969226   4.303476   2.484613   0.000000
    11  H    2.157247   4.303476   4.969226   4.303476   2.484613
    12  H    1.088233   2.484613   4.303476   4.969226   4.303476
                   11         12
    11  H    0.000000
    12  H    2.484612   0.000000
 Stoichiometry    C6H6(1+,2)
 Framework group  D6H[3C2'(HC.CH)]
 Deg. of freedom     2
 Full point group                 D6H     NOp  24
 Largest Abelian subgroup         D2H     NOp   8
 Largest concise Abelian subgroup D2      NOp   4
                         Standard orientation:                         
 ---------------------------------------------------------------------
 Center     Atomic      Atomic             Coordinates (Angstroms)
 Number     Number       Type             X           Y           Z
 ---------------------------------------------------------------------
      1          6           0       -0.000000    1.396379   -0.000000
      2          6           0       -1.209300    0.698190   -0.000000
      3          6           0       -1.209300   -0.698189   -0.000000
      4          6           0       -0.000000   -1.396379   -0.000000
      5          6           0        1.209300   -0.698190   -0.000000
      6          6           0        1.209300    0.698189   -0.000000
      7          1           0       -0.000000    2.484613   -0.000000
      8          1           0       -2.151738    1.242307   -0.000000
      9          1           0       -2.151738   -1.242307   -0.000000
     10          1           0       -0.000000   -2.484613   -0.000000
     11          1           0        2.151738   -1.242307   -0.000000
     12          1           0        2.151738    1.242306   -0.000000
 ---------------------------------------------------------------------
 Rotational constants (GHZ):           5.6873431           5.6873431           2.8436715
 Leave Link  202 at Mon Mar 16 03:51:21 2020, MaxMem=  6710886400 cpu:               1.6 elap:               0.1
 (Enter /opt/ohpc/pub/libs/gaussian/g16-A.03/sandybridge/g16/l301.exe)
 Standard basis: 6-31G (6D, 7F)
 Ernie: Thresh=  0.10000D-02 Tol=  0.10000D-05 Strict=F.
 There are    16 symmetry adapted cartesian basis functions of AG  symmetry.
 There are    11 symmetry adapted cartesian basis functions of B1G symmetry.
 There are     2 symmetry adapted cartesian basis functions of B2G symmetry.
 There are     4 symmetry adapted cartesian basis functions of B3G symmetry.
 There are     2 symmetry adapted cartesian basis functions of AU  symmetry.
 There are     4 symmetry adapted cartesian basis functions of B1U symmetry.
 There are    16 symmetry adapted cartesian basis functions of B2U symmetry.
 There are    11 symmetry adapted cartesian basis functions of B3U symmetry.
 There are    16 symmetry adapted basis functions of AG  symmetry.
 There are    11 symmetry adapted basis functions of B1G symmetry.
 There are     2 symmetry adapted basis functions of B2G symmetry.
 There are     4 symmetry adapted basis functions of B3G symmetry.
 There are     2 symmetry adapted basis functions of AU  symmetry.
 There are     4 symmetry adapted basis functions of B1U symmetry.
 There are    16 symmetry adapted basis functions of B2U symmetry.
 There are    11 symmetry adapted basis functions of B3U symmetry.
    66 basis functions,   156 primitive gaussians,    66 cartesian basis functions
    21 alpha electrons       20 beta electrons
       nuclear repulsion energy       203.1815835396 Hartrees.
 IExCor=33909 DFT=T Ex+Corr=LC-wHPBE ExCW=0 ScaHFX=  1.000000
 ScaDFX=  1.000000  1.000000  1.000000  1.000000 ScalE2=  1.000000  1.000000
 IRadAn=      5 IRanWt=     -1 IRanGd=            0 ICorTp=0 IEmpDi=  4
 HFx  wShort=  0.000000 wLong=  0.312200 cFull=  0.000000 cShort=  0.000000 cLong=  1.000000
 DFx  wShort=  0.000000 wLong=  0.312200 cFull=  0.000000 cShort=  1.000000 cLong=  0.000000
 NAtoms=   12 NActive=   12 NUniq=    2 SFac= 4.00D+00 NAtFMM=   60 NAOKFM=F Big=F
 Integral buffers will be    131072 words long.
 Raffenetti 2 integral format.
 Two-electron integral symmetry is turned on.
 Leave Link  301 at Mon Mar 16 03:51:21 2020, MaxMem=  6710886400 cpu:               1.0 elap:               0.1
 (Enter /opt/ohpc/pub/libs/gaussian/g16-A.03/sandybridge/g16/l302.exe)
 NPDir=0 NMtPBC=     1 NCelOv=     1 NCel=       1 NClECP=     1 NCelD=      1
         NCelK=      1 NCelE2=     1 NClLst=     1 CellRange=     0.0.
 One-electron integrals computed using PRISM.
 One-electron integral symmetry used in STVInt
 NBasis=    66 RedAO= T EigKep=  7.02D-04  NBF=    16    11     2     4     2     4    16    11
 NBsUse=    66 1.00D-06 EigRej= -1.00D+00 NBFU=    16    11     2     4     2     4    16    11
 Precomputing XC quadrature grid using
 IXCGrd= 4 IRadAn=           5 IRanWt=          -1 IRanGd=           0 AccXCQ= 0.00D+00.
 Generated NRdTot=       0 NPtTot=           0 NUsed=           0 NTot=          32
 NSgBfM=    66    66    66    66    66 MxSgAt=    12 MxSgA2=    12.
 Leave Link  302 at Mon Mar 16 03:51:21 2020, MaxMem=  6710886400 cpu:               2.2 elap:               0.2
 (Enter /opt/ohpc/pub/libs/gaussian/g16-A.03/sandybridge/g16/l303.exe)
 DipDrv:  MaxL=1.
 Leave Link  303 at Mon Mar 16 03:51:21 2020, MaxMem=  6710886400 cpu:               0.8 elap:               0.2
 (Enter /opt/ohpc/pub/libs/gaussian/g16-A.03/sandybridge/g16/l401.exe)
 ExpMin= 1.61D-01 ExpMax= 3.05D+03 ExpMxC= 4.57D+02 IAcc=3 IRadAn=         5 AccDes= 0.00D+00
 Harris functional with IExCor=33909 and IRadAn=       5 diagonalized for initial guess.
 HarFok:  IExCor=33909 AccDes= 0.00D+00 IRadAn=         5 IDoV= 1 UseB2=F ITyADJ=14
 ICtDFT=  3500011 ScaDFX=  1.000000  1.000000  1.000000  1.000000
 FoFCou: FMM=F IPFlag=           0 FMFlag=      100000 FMFlg1=           0
         NFxFlg=           0 DoJE=T BraDBF=F KetDBF=T FulRan=T
         wScrn=  0.000000 ICntrl=       500 IOpCl=  0 I1Cent=   200000004 NGrid=           0
         NMat0=    1 NMatS0=      1 NMatT0=    0 NMatD0=    1 NMtDS0=    0 NMtDT0=    0
 Petite list used in FoFCou.
 Harris En= -225.139278215767    
 JPrj=0 DoOrth=F DoCkMO=F.
 Initial guess orbital symmetries:
 Alpha Orbitals:
       Occupied  (A1G) (E1U) (E1U) (E2G) (E2G) (B1U) (A1G) (E1U)
                 (E1U) (E2G) (E2G) (A1G) (B2U) (B1U) (E1U) (E1U)
                 (A2U) (E2G) (E2G) (E1G) (E1G)
       Virtual   (E2U) (E2U) (A1G) (B2G) (E1U) (E1U) (E2G) (E2G)
                 (B1U) (E2G) (E2G) (E1U) (E1U) (B2U) (A2U) (B1U)
                 (A2G) (A1G) (E2G) (E2G) (E1G) (E1G) (A1G) (E1U)
                 (E1U) (E2U) (E2U) (B2G) (B1U) (E2G) (E2G) (E1U)
                 (E1U) (A2G) (A1G) (E1U) (E1U) (E2G) (E2G) (E1U)
                 (E1U) (B1U) (E2G) (E2G) (B1U)
 Beta  Orbitals:
       Occupied  (A1G) (E1U) (E1U) (E2G) (E2G) (B1U) (A1G) (E1U)
                 (E1U) (E2G) (E2G) (A1G) (B2U) (B1U) (E1U) (E1U)
                 (A2U) (E2G) (E2G) (E1G)
       Virtual   (E1G) (E2U) (E2U) (A1G) (B2G) (E1U) (E1U) (E2G)
                 (E2G) (B1U) (E2G) (E2G) (E1U) (E1U) (B2U) (A2U)
                 (B1U) (A2G) (A1G) (E2G) (E2G) (E1G) (E1G) (A1G)
                 (E1U) (E1U) (E2U) (E2U) (B2G) (B1U) (E2G) (E2G)
                 (E1U) (E1U) (A2G) (A1G) (E1U) (E1U) (E2G) (E2G)
                 (E1U) (E1U) (B1U) (E2G) (E2G) (B1U)
 Initial guess <Sx>= 0.0000 <Sy>= 0.0000 <Sz>= 0.5000 <S**2>= 0.7500 S= 0.5000
 Leave Link  401 at Mon Mar 16 03:51:21 2020, MaxMem=  6710886400 cpu:               2.8 elap:               0.2
 (Enter /opt/ohpc/pub/libs/gaussian/g16-A.03/sandybridge/g16/l502.exe)
 Keep R1 and R2 ints in memory in symmetry-blocked form, NReq=19109854.
 FoFCou: FMM=F IPFlag=           0 FMFlag=           0 FMFlg1=           0
         NFxFlg=           0 DoJE=F BraDBF=F KetDBF=F FulRan=T
         wScrn=  0.000000 ICntrl=       600 IOpCl=  0 I1Cent=           0 NGrid=           0
         NMat0=    1 NMatS0=   2211 NMatT0=    0 NMatD0=    1 NMtDS0=    0 NMtDT0=    0
 Petite list used in FoFCou.
 UHF open shell SCF:
 Using DIIS extrapolation, IDIIS=    10.
 NGot=  6710886400 LenX=  6710146038 LenY=  6710141241
 Requested convergence on RMS density matrix=1.00D-06 within  32 cycles.
 Requested convergence on MAX density matrix=1.00D-04.
 Requested convergence on             energy=1.00D-04.
 Virtual orbitals will be shifted by   0.500 hartree.
 No special actions if energy rises.
 Dynamic level shift is on during FON iterations.

 Cycle   1  Pass 1  IDiag  1:
 Density matrix breaks symmetry, PCut= 1.00D-04
 Density has only Abelian symmetry.
 E= -231.645596765647    
 DIIS: error= 1.70D-02 at cycle   1 NSaved=   1.
 NSaved= 1 IEnMin= 1 EnMin= -231.645596765647     IErMin= 1 ErrMin= 1.70D-02
 ErrMax= 1.70D-02  0.00D+00 EMaxC= 1.00D+00 BMatC= 7.00D-02 BMatP= 7.00D-02
 IDIUse=1 WtCom= 1.00D+00 WtEn= 0.00D+00
 Coeff-Com:  0.100D+01
 Coeff:      0.100D+01
 Gap=     0.384 Goal=   None    Shift=    0.500
 T= 1154. Gap= 0.884 NK=0 IS=   22 IE=   66 IFin=   21
          NO(<0.9)=   0  NV(>0.1)=   0     21.00e < EF      0.00e >EF  Err=0.0D+00
 Gap=     0.198 Goal=   None    Shift=    0.500
 T= 1154. Gap= 0.697 NK=0 IS=   21 IE=   66 IFin=   20
          NO(<0.9)=   0  NV(>0.1)=   0     20.00e < EF      0.00e >EF  Err=0.0D+00
 GapD=    0.198 DampG=1.000 DampE=0.500 DampFc=0.5000 IDamp=-1.
 Damping current iteration by 5.00D-01
 RMSDP=3.24D-03 MaxDP=2.69D-02              OVMax= 3.37D-02

 Cycle   2  Pass 1  IDiag  1:
 Density matrix breaks symmetry, PCut= 1.00D-04
 Density has only Abelian symmetry.
 E= -231.656907767197     Delta-E=       -0.011311001550 Rises=F Damp=T
 DIIS: error= 1.04D-02 at cycle   2 NSaved=   2.
 NSaved= 2 IEnMin= 2 EnMin= -231.656907767197     IErMin= 2 ErrMin= 1.04D-02
 ErrMax= 1.04D-02  0.00D+00 EMaxC= 1.00D+00 BMatC= 1.75D-02 BMatP= 7.00D-02
 IDIUse=1 WtCom= 1.00D+00 WtEn= 0.00D+00
 Coeff-Com: -0.861D+00 0.186D+01
 Coeff:     -0.861D+00 0.186D+01
 Gap=     0.402 Goal=   None    Shift=    0.500
 T= 1071. Gap= 0.902 NK=0 IS=   22 IE=   66 IFin=   21
          NO(<0.9)=   0  NV(>0.1)=   0     21.00e < EF      0.00e >EF  Err=0.0D+00
 Gap=     0.223 Goal=   None    Shift=    0.500
 T= 1071. Gap= 0.722 NK=0 IS=   21 IE=   66 IFin=   20
          NO(<0.9)=   0  NV(>0.1)=   0     20.00e < EF      0.00e >EF  Err=0.0D+00
 GapD=    0.223 DampG=1.000 DampE=0.500 DampFc=0.5000 IDamp=-1.
 Damping current iteration by 5.00D-01
 RMSDP=2.35D-03 MaxDP=2.41D-02 DE=-1.13D-02 OVMax= 1.74D-02

 Cycle   3  Pass 1  IDiag  1:
 Density matrix breaks symmetry, PCut= 1.00D-04
 Density has only Abelian symmetry.
 E= -231.661863064686     Delta-E=       -0.004955297489 Rises=F Damp=T
 DIIS: error= 7.49D-03 at cycle   3 NSaved=   3.
 NSaved= 3 IEnMin= 3 EnMin= -231.661863064686     IErMin= 3 ErrMin= 7.49D-03
 ErrMax= 7.49D-03  0.00D+00 EMaxC= 1.00D+00 BMatC= 5.24D-03 BMatP= 1.75D-02
 IDIUse=1 WtCom= 1.00D+00 WtEn= 0.00D+00
 Coeff-Com:  0.237D+00-0.180D+01 0.256D+01
 Coeff:      0.237D+00-0.180D+01 0.256D+01
 Gap=     0.397 Goal=   None    Shift=    0.500
 T=  927. Gap= 0.897 NK=0 IS=   22 IE=   66 IFin=   21
          NO(<0.9)=   0  NV(>0.1)=   0     21.00e < EF      0.00e >EF  Err=0.0D+00
 Gap=     0.223 Goal=   None    Shift=    0.500
 T=  927. Gap= 0.723 NK=0 IS=   21 IE=   66 IFin=   20
          NO(<0.9)=   0  NV(>0.1)=   0     20.00e < EF      0.00e >EF  Err=0.0D+00
 GapD=    0.223 DampG=1.000 DampE=1.000 DampFc=1.0000 IDamp=-1.
 RMSDP=1.53D-03 MaxDP=1.66D-02 DE=-4.96D-03 OVMax= 1.25D-02

 Cycle   4  Pass 1  IDiag  1:
 Density matrix breaks symmetry, PCut= 1.00D-04
 Density has only Abelian symmetry.
 E= -231.667132273451     Delta-E=       -0.005269208765 Rises=F Damp=F
 DIIS: error= 4.52D-03 at cycle   4 NSaved=   4.
 NSaved= 4 IEnMin= 4 EnMin= -231.667132273451     IErMin= 4 ErrMin= 4.52D-03
 ErrMax= 4.52D-03  0.00D+00 EMaxC= 1.00D+00 BMatC= 3.65D-04 BMatP= 5.24D-03
 IDIUse=1 WtCom= 1.00D+00 WtEn= 0.00D+00
 Coeff-Com:  0.128D+00 0.416D+00-0.139D+01 0.184D+01
 Coeff:      0.128D+00 0.416D+00-0.139D+01 0.184D+01
 Gap=     0.395 Goal=   None    Shift=    0.500
 T=  663. Gap= 0.896 NK=0 IS=   22 IE=   66 IFin=   21
          NO(<0.9)=   0  NV(>0.1)=   0     21.00e < EF      0.00e >EF  Err=0.0D+00
 Gap=     0.228 Goal=   None    Shift=    0.500
 T=  663. Gap= 0.728 NK=0 IS=   21 IE=   66 IFin=   20
          NO(<0.9)=   0  NV(>0.1)=   0     20.00e < EF      0.00e >EF  Err=0.0D+00
 GapD=    0.228 DampG=1.000 DampE=1.000 DampFc=1.0000 IDamp=-1.
 RMSDP=2.80D-04 MaxDP=3.90D-03 DE=-5.27D-03 OVMax= 1.26D-02

 Cycle   5  Pass 1  IDiag  1:
 Density matrix breaks symmetry, PCut= 1.00D-04
 Density has only Abelian symmetry.
 E= -231.667506937480     Delta-E=       -0.000374664029 Rises=F Damp=F
 DIIS: error= 2.71D-03 at cycle   5 NSaved=   5.
 NSaved= 5 IEnMin= 5 EnMin= -231.667506937480     IErMin= 5 ErrMin= 2.71D-03
 ErrMax= 2.71D-03  0.00D+00 EMaxC= 1.00D+00 BMatC= 1.37D-04 BMatP= 3.65D-04
 IDIUse=1 WtCom= 1.00D+00 WtEn= 0.00D+00
 Coeff-Com: -0.125D+00 0.880D+00-0.122D+01-0.605D+00 0.207D+01
 Coeff:     -0.125D+00 0.880D+00-0.122D+01-0.605D+00 0.207D+01
 Gap=     0.394 Goal=   None    Shift=    0.500
 T=  410. Gap= 0.894 NK=0 IS=   22 IE=   66 IFin=   21
          NO(<0.9)=   0  NV(>0.1)=   0     21.00e < EF      0.00e >EF  Err=0.0D+00
 Gap=     0.230 Goal=   None    Shift=    0.500
 T=  410. Gap= 0.730 NK=0 IS=   21 IE=   66 IFin=   20
          NO(<0.9)=   0  NV(>0.1)=   0     20.00e < EF      0.00e >EF  Err=0.0D+00
 GapD=    0.230 DampG=1.000 DampE=1.000 DampFc=1.0000 IDamp=-1.
 RMSDP=1.94D-04 MaxDP=3.59D-03 DE=-3.75D-04 OVMax= 1.00D-02

 Cycle   6  Pass 1  IDiag  1:
 Density matrix breaks symmetry, PCut= 1.00D-04
 Density has only Abelian symmetry.
 E= -231.667684832917     Delta-E=       -0.000177895437 Rises=F Damp=F
 DIIS: error= 1.47D-03 at cycle   6 NSaved=   6.
 NSaved= 6 IEnMin= 6 EnMin= -231.667684832917     IErMin= 6 ErrMin= 1.47D-03
 ErrMax= 1.47D-03  0.00D+00 EMaxC= 1.00D+00 BMatC= 3.70D-05 BMatP= 1.37D-04
 IDIUse=1 WtCom= 1.00D+00 WtEn= 0.00D+00
 Coeff-Com:  0.122D-01-0.198D+00 0.340D+00-0.417D-01-0.137D+01 0.226D+01
 Coeff:      0.122D-01-0.198D+00 0.340D+00-0.417D-01-0.137D+01 0.226D+01
 Gap=     0.393 Goal=   None    Shift=    0.500
 T=   94. Gap= 0.893 NK=0 IS=   22 IE=   66 IFin=   21
          NO(<0.9)=   0  NV(>0.1)=   0     21.00e < EF      0.00e >EF  Err=0.0D+00
 Gap=     0.231 Goal=   None    Shift=    0.500
 T=   94. Gap= 0.731 NK=0 IS=   21 IE=   66 IFin=   20
          NO(<0.9)=   0  NV(>0.1)=   0     20.00e < EF      0.00e >EF  Err=0.0D+00
 GapD=    0.231 DampG=1.000 DampE=1.000 DampFc=1.0000 IDamp=-1.
 RMSDP=9.70D-05 MaxDP=1.81D-03 DE=-1.78D-04 OVMax= 5.63D-03

 Cycle   7  Pass 1  IDiag  1:
 Density matrix breaks symmetry, PCut= 1.00D-04
 Density has only Abelian symmetry.
 E= -231.667734539590     Delta-E=       -0.000049706673 Rises=F Damp=F
 DIIS: error= 7.50D-04 at cycle   7 NSaved=   7.
 NSaved= 7 IEnMin= 7 EnMin= -231.667734539590     IErMin= 7 ErrMin= 7.50D-04
 ErrMax= 7.50D-04  0.00D+00 EMaxC= 1.00D+00 BMatC= 1.02D-05 BMatP= 3.70D-05
 IDIUse=1 WtCom= 1.00D+00 WtEn= 0.00D+00
 Coeff-Com: -0.190D-01 0.215D+00-0.353D+00 0.772D-01 0.124D+01-0.374D+01
 Coeff-Com:  0.357D+01
 Coeff:     -0.190D-01 0.215D+00-0.353D+00 0.772D-01 0.124D+01-0.374D+01
 Coeff:      0.357D+01
 Gap=     0.393 Goal=   None    Shift=    0.500
 Gap=     0.231 Goal=   None    Shift=    0.500
 RMSDP=4.77D-05 MaxDP=8.22D-04 DE=-4.97D-05 OVMax= 3.02D-03

 Cycle   8  Pass 1  IDiag  1:
 Density matrix breaks symmetry, PCut= 1.00D-04
 Density has only Abelian symmetry.
 E= -231.667747757149     Delta-E=       -0.000013217559 Rises=F Damp=F
 DIIS: error= 3.68D-04 at cycle   8 NSaved=   8.
 NSaved= 8 IEnMin= 8 EnMin= -231.667747757149     IErMin= 8 ErrMin= 3.68D-04
 ErrMax= 3.68D-04  0.00D+00 EMaxC= 1.00D+00 BMatC= 2.56D-06 BMatP= 1.02D-05
 IDIUse=1 WtCom= 1.00D+00 WtEn= 0.00D+00
 Coeff-Com:  0.222D-02-0.327D-01 0.569D-01-0.205D-01-0.354D+00 0.139D+01
 Coeff-Com: -0.287D+01 0.283D+01
 Coeff:      0.222D-02-0.327D-01 0.569D-01-0.205D-01-0.354D+00 0.139D+01
 Coeff:     -0.287D+01 0.283D+01
 Gap=     0.393 Goal=   None    Shift=    0.500
 Gap=     0.231 Goal=   None    Shift=    0.500
 RMSDP=2.28D-05 MaxDP=3.78D-04 DE=-1.32D-05 OVMax= 1.50D-03

 Cycle   9  Pass 1  IDiag  1:
 Density matrix breaks symmetry, PCut= 1.00D-04
 Density has only Abelian symmetry.
 E= -231.667750972193     Delta-E=       -0.000003215044 Rises=F Damp=F
 DIIS: error= 1.78D-04 at cycle   9 NSaved=   9.
 NSaved= 9 IEnMin= 9 EnMin= -231.667750972193     IErMin= 9 ErrMin= 1.78D-04
 ErrMax= 1.78D-04  0.00D+00 EMaxC= 1.00D+00 BMatC= 5.89D-07 BMatP= 2.56D-06
 IDIUse=1 WtCom= 1.00D+00 WtEn= 0.00D+00
 Coeff-Com: -0.268D-02 0.283D-01-0.462D-01 0.107D-01 0.270D+00-0.106D+01
 Coeff-Com:  0.215D+01-0.349D+01 0.314D+01
 Coeff:     -0.268D-02 0.283D-01-0.462D-01 0.107D-01 0.270D+00-0.106D+01
 Coeff:      0.215D+01-0.349D+01 0.314D+01
 Gap=     0.393 Goal=   None    Shift=    0.500
 Gap=     0.231 Goal=   None    Shift=    0.500
 RMSDP=1.07D-05 MaxDP=1.77D-04 DE=-3.22D-06 OVMax= 7.30D-04

 Cycle  10  Pass 1  IDiag  1:
 Density matrix breaks symmetry, PCut= 1.00D-04
 Density has only Abelian symmetry.
 E= -231.667751716324     Delta-E=       -0.000000744132 Rises=F Damp=F
 DIIS: error= 8.54D-05 at cycle  10 NSaved=  10.
 NSaved=10 IEnMin=10 EnMin= -231.667751716324     IErMin=10 ErrMin= 8.54D-05
 ErrMax= 8.54D-05  0.00D+00 EMaxC= 1.00D+00 BMatC= 1.33D-07 BMatP= 5.89D-07
 IDIUse=1 WtCom= 1.00D+00 WtEn= 0.00D+00
 Coeff-Com:  0.762D-03-0.977D-02 0.165D-01-0.351D-02-0.126D+00 0.512D+00
 Coeff-Com: -0.118D+01 0.217D+01-0.341D+01 0.303D+01
 Coeff:      0.762D-03-0.977D-02 0.165D-01-0.351D-02-0.126D+00 0.512D+00
 Coeff:     -0.118D+01 0.217D+01-0.341D+01 0.303D+01
 Gap=     0.393 Goal=   None    Shift=    0.500
 Gap=     0.231 Goal=   None    Shift=    0.500
 RMSDP=5.07D-06 MaxDP=8.19D-05 DE=-7.44D-07 OVMax= 3.51D-04

 Cycle  11  Pass 1  IDiag  1:
 Density matrix breaks symmetry, PCut= 1.00D-04
 Density has only Abelian symmetry.
 E= -231.667751885966     Delta-E=       -0.000000169642 Rises=F Damp=F
 DIIS: error= 4.10D-05 at cycle  11 NSaved=  11.
 NSaved=11 IEnMin=11 EnMin= -231.667751885966     IErMin=11 ErrMin= 4.10D-05
 ErrMax= 4.10D-05  0.00D+00 EMaxC= 1.00D+00 BMatC= 2.97D-08 BMatP= 1.33D-07
 IDIUse=1 WtCom= 1.00D+00 WtEn= 0.00D+00
 Coeff-Com: -0.243D-03 0.373D-02-0.646D-02 0.734D-03 0.583D-01-0.237D+00
 Coeff-Com:  0.533D+00-0.104D+01 0.190D+01-0.320D+01 0.300D+01
 Coeff:     -0.243D-03 0.373D-02-0.646D-02 0.734D-03 0.583D-01-0.237D+00
 Coeff:      0.533D+00-0.104D+01 0.190D+01-0.320D+01 0.300D+01
 Gap=     0.393 Goal=   None    Shift=    0.500
 Gap=     0.231 Goal=   None    Shift=    0.500
 RMSDP=2.37D-06 MaxDP=3.66D-05 DE=-1.70D-07 OVMax= 1.67D-04

 Cycle  12  Pass 1  IDiag  1:
 Density matrix breaks symmetry, PCut= 1.00D-04
 Density has only Abelian symmetry.
 E= -231.667751924033     Delta-E=       -0.000000038067 Rises=F Damp=F
 DIIS: error= 1.97D-05 at cycle  12 NSaved=  12.
 NSaved=12 IEnMin=12 EnMin= -231.667751924033     IErMin=12 ErrMin= 1.97D-05
 ErrMax= 1.97D-05  0.00D+00 EMaxC= 1.00D+00 BMatC= 6.75D-09 BMatP= 2.97D-08
 IDIUse=1 WtCom= 1.00D+00 WtEn= 0.00D+00
 Coeff-Com: -0.815D-04 0.276D-03-0.226D-03 0.458D-04-0.454D-02 0.227D-01
 Coeff-Com: -0.631D-01 0.149D+00-0.361D+00 0.101D+01-0.260D+01 0.284D+01
 Coeff:     -0.815D-04 0.276D-03-0.226D-03 0.458D-04-0.454D-02 0.227D-01
 Coeff:     -0.631D-01 0.149D+00-0.361D+00 0.101D+01-0.260D+01 0.284D+01
 Gap=     0.393 Goal=   None    Shift=    0.500
 Gap=     0.231 Goal=   None    Shift=    0.500
 RMSDP=1.12D-06 MaxDP=1.70D-05 DE=-3.81D-08 OVMax= 8.02D-05

 Cycle  13  Pass 1  IDiag  1:
 Density matrix breaks symmetry, PCut= 1.00D-04
 Density has only Abelian symmetry.
 E= -231.667751932730     Delta-E=       -0.000000008697 Rises=F Damp=F
 DIIS: error= 9.41D-06 at cycle  13 NSaved=  13.
 NSaved=13 IEnMin=13 EnMin= -231.667751932730     IErMin=13 ErrMin= 9.41D-06
 ErrMax= 9.41D-06  0.00D+00 EMaxC= 1.00D+00 BMatC= 1.52D-09 BMatP= 6.75D-09
 IDIUse=1 WtCom= 1.00D+00 WtEn= 0.00D+00
 Coeff-Com:  0.106D-03-0.769D-03 0.112D-02-0.371D-03-0.252D-02 0.852D-02
 Coeff-Com: -0.144D-01 0.113D-01 0.360D-01-0.243D+00 0.893D+00-0.241D+01
 Coeff-Com:  0.272D+01
 Coeff:      0.106D-03-0.769D-03 0.112D-02-0.371D-03-0.252D-02 0.852D-02
 Coeff:     -0.144D-01 0.113D-01 0.360D-01-0.243D+00 0.893D+00-0.241D+01
 Coeff:      0.272D+01
 Gap=     0.393 Goal=   None    Shift=    0.500
 Gap=     0.231 Goal=   None    Shift=    0.500
 RMSDP=5.27D-07 MaxDP=8.03D-06 DE=-8.70D-09 OVMax= 3.82D-05

 Density matrix breaks symmetry, PCut= 1.00D-04
 Density has only Abelian symmetry.
 SCF Done:  E(ULC-wHPBE) =  -231.667751933     A.U. after   13 cycles
            NFock= 13  Conv=0.53D-06     -V/T= 2.0048
 <Sx>= 0.0000 <Sy>= 0.0000 <Sz>= 0.5000 <S**2>= 0.7719 S= 0.5109
 <L.S>= 0.000000000000E+00
 KE= 2.305589087294D+02 PE=-9.341561986166D+02 EE= 2.687479544149D+02
 Annihilation of the first spin contaminant:
 S**2 before annihilation     0.7719,   after     0.7501
 Leave Link  502 at Mon Mar 16 03:51:23 2020, MaxMem=  6710886400 cpu:              17.1 elap:               1.1
 (Enter /opt/ohpc/pub/libs/gaussian/g16-A.03/sandybridge/g16/l508.exe)
 QCSCF skips out because SCF is already converged.
 Leave Link  508 at Mon Mar 16 03:51:23 2020, MaxMem=  6710886400 cpu:               0.1 elap:               0.0
 (Enter /opt/ohpc/pub/libs/gaussian/g16-A.03/sandybridge/g16/l601.exe)
 Copying SCF densities to generalized density rwf, IOpCl= 1 IROHF=0.
 SCF density gives NOpUse=  8 NOpAll= 24.
 Marking SCF density as not fully symmetric.

 **********************************************************************

            Population analysis using the SCF density.

 **********************************************************************

 Orbital symmetries:
 Alpha Orbitals:
       Occupied  (?A) (?A) (?A) (?A) (?A) (?A) (?B) (?B) (?B) (?B)
                 (?B) (?B) (?B) (?B) (?B) (?B) (?C) (?B) (?B) (?C)
                 (?C)
       Virtual   (?C) (?C) (?B) (?C) (?B) (?B) (?B) (?B) (?B) (?B)
                 (?B) (?B) (?B) (?B) (?C) (?B) (?B) (?B) (?C) (?C)
                 (?B) (?B) (?B) (?C) (?B) (?B) (?C) (?C) (?B) (?B)
                 (?B) (?B) (?B) (?B) (?B) (?B) (?B) (?B) (?B) (?B)
                 (?B) (?B) (?B) (?B) (?B)
 Beta  Orbitals:
       Occupied  (?A) (?A) (?A) (?A) (?A) (?A) (?B) (B2G) (B2G)
                 (?B) (?B) (?B) (B2G) (B2G) (B2G) (B2G) (?C) (?B)
                 (?B) (?D)
       Virtual   (?D) (?C) (?C) (?D) (?D) (B2G) (B2G) (?D) (?D)
                 (B2G) (?D) (?D) (B2G) (B2G) (B2G) (?C) (B2G) (?D)
                 (?D) (?D) (?D) (?D) (?D) (?D) (B2G) (B2G) (E2U)
                 (E2U) (?D) (?D) (?A) (?A) (?D) (?D) (?A) (?D)
                 (?D) (?D) (?D) (?D) (?D) (?D) (?D) (E2G) (E2G)
                 (B1U)
 Unable to determine electronic state:  an orbital has unidentified symmetry.
 Alpha  occ. eigenvalues --  -10.34287 -10.34283 -10.30665 -10.30661 -10.30638
 Alpha  occ. eigenvalues --  -10.30634  -1.21351  -1.10881  -1.08301  -0.94166
 Alpha  occ. eigenvalues --   -0.94120  -0.85771  -0.78874  -0.78072  -0.75536
 Alpha  occ. eigenvalues --   -0.74075  -0.72746  -0.66361  -0.66186  -0.61264
 Alpha  occ. eigenvalues --   -0.57013
 Alpha virt. eigenvalues --   -0.17688  -0.14709  -0.00783   0.01541   0.04314
 Alpha virt. eigenvalues --    0.05581   0.07871   0.08796   0.10338   0.17843
 Alpha virt. eigenvalues --    0.18293   0.19001   0.19557   0.38001   0.38728
 Alpha virt. eigenvalues --    0.40801   0.43574   0.43615   0.46758   0.49208
 Alpha virt. eigenvalues --    0.49373   0.49541   0.52622   0.53430   0.53758
 Alpha virt. eigenvalues --    0.54262   0.55014   0.62426   0.72421   0.73927
 Alpha virt. eigenvalues --    0.75441   0.78527   0.79875   0.85709   0.85754
 Alpha virt. eigenvalues --    0.88066   0.88119   1.00121   1.01632   1.06023
 Alpha virt. eigenvalues --    1.07033   1.11250   1.33575   1.33784   1.78855
  Beta  occ. eigenvalues --  -10.33593 -10.33591 -10.30646 -10.30642 -10.30617
  Beta  occ. eigenvalues --  -10.30614  -1.20202  -1.08558  -1.08125  -0.93608
  Beta  occ. eigenvalues --   -0.93180  -0.85472  -0.78409  -0.77551  -0.75088
  Beta  occ. eigenvalues --   -0.74060  -0.67782  -0.66169  -0.65867  -0.57083
  Beta virt. eigenvalues --   -0.33980  -0.12863  -0.12367  -0.00587   0.03869
  Beta virt. eigenvalues --    0.04619   0.05588   0.08649   0.08976   0.10662
  Beta virt. eigenvalues --    0.18447   0.18493   0.19482   0.19937   0.38345
  Beta virt. eigenvalues --    0.40288   0.41879   0.43987   0.44025   0.49419
  Beta virt. eigenvalues --    0.49543   0.49905   0.50257   0.52949   0.54531
  Beta virt. eigenvalues --    0.54960   0.55399   0.55519   0.63420   0.72741
  Beta virt. eigenvalues --    0.74312   0.75490   0.79120   0.79945   0.85948
  Beta virt. eigenvalues --    0.85978   0.88378   0.89061   1.01440   1.01934
  Beta virt. eigenvalues --    1.06899   1.07142   1.11757   1.34140   1.34569
  Beta virt. eigenvalues --    1.79636
          Condensed to atoms (all electrons):
               1          2          3          4          5          6
     1  C    4.980252   0.447046  -0.054315  -0.022526  -0.054315   0.447046
     2  C    0.447046   4.931335   0.558304  -0.054315  -0.023296  -0.066849
     3  C   -0.054315   0.558304   4.931335   0.447046  -0.066849  -0.023296
     4  C   -0.022526  -0.054315   0.447046   4.980252   0.447046  -0.054315
     5  C   -0.054315  -0.023296  -0.066849   0.447046   4.931335   0.558304
     6  C    0.447046  -0.066849  -0.023296  -0.054315   0.558304   4.931335
     7  H    0.364055  -0.024475   0.003025   0.000065   0.003025  -0.024475
     8  H   -0.028189   0.370078  -0.020261   0.003219   0.000061   0.003091
     9  H    0.003219  -0.020261   0.370078  -0.028189   0.003091   0.000061
    10  H    0.000065   0.003025  -0.024475   0.364055  -0.024475   0.003025
    11  H    0.003219   0.000061   0.003091  -0.028189   0.370078  -0.020261
    12  H   -0.028189   0.003091   0.000061   0.003219  -0.020261   0.370078
               7          8          9         10         11         12
     1  C    0.364055  -0.028189   0.003219   0.000065   0.003219  -0.028189
     2  C   -0.024475   0.370078  -0.020261   0.003025   0.000061   0.003091
     3  C    0.003025  -0.020261   0.370078  -0.024475   0.003091   0.000061
     4  C    0.000065   0.003219  -0.028189   0.364055  -0.028189   0.003219
     5  C    0.003025   0.000061   0.003091  -0.024475   0.370078  -0.020261
     6  C   -0.024475   0.003091   0.000061   0.003025  -0.020261   0.370078
     7  H    0.405741  -0.002395  -0.000068   0.000005  -0.000068  -0.002395
     8  H   -0.002395   0.413732  -0.002650  -0.000068   0.000003  -0.000071
     9  H   -0.000068  -0.002650   0.413732  -0.002395  -0.000071   0.000003
    10  H    0.000005  -0.000068  -0.002395   0.405741  -0.002395  -0.000068
    11  H   -0.000068   0.000003  -0.000071  -0.002395   0.413732  -0.002650
    12  H   -0.002395  -0.000071   0.000003  -0.000068  -0.002650   0.413732
          Atomic-Atomic Spin Densities.
               1          2          3          4          5          6
     1  C    0.526165   0.025393  -0.006796  -0.010912  -0.006796   0.025393
     2  C    0.025393   0.000315  -0.023591  -0.006796   0.001286  -0.007605
     3  C   -0.006796  -0.023591   0.000315   0.025393  -0.007605   0.001286
     4  C   -0.010912  -0.006796   0.025393   0.526165   0.025393  -0.006796
     5  C   -0.006796   0.001286  -0.007605   0.025393   0.000315  -0.023591
     6  C    0.025393  -0.007605   0.001286  -0.006796  -0.023591   0.000315
     7  H   -0.000265  -0.000777   0.000002  -0.000053   0.000002  -0.000777
     8  H   -0.001981   0.001275   0.000099   0.000150  -0.000053   0.000066
     9  H    0.000150   0.000099   0.001275  -0.001981   0.000066  -0.000053
    10  H   -0.000053   0.000002  -0.000777  -0.000265  -0.000777   0.000002
    11  H    0.000150  -0.000053   0.000066  -0.001981   0.001275   0.000099
    12  H   -0.001981   0.000066  -0.000053   0.000150   0.000099   0.001275
               7          8          9         10         11         12
     1  C   -0.000265  -0.001981   0.000150  -0.000053   0.000150  -0.001981
     2  C   -0.000777   0.001275   0.000099   0.000002  -0.000053   0.000066
     3  C    0.000002   0.000099   0.001275  -0.000777   0.000066  -0.000053
     4  C   -0.000053   0.000150  -0.001981  -0.000265  -0.001981   0.000150
     5  C    0.000002  -0.000053   0.000066  -0.000777   0.001275   0.000099
     6  C   -0.000777   0.000066  -0.000053   0.000002   0.000099   0.001275
     7  H   -0.021200  -0.000034   0.000004  -0.000000   0.000004  -0.000034
     8  H   -0.000034  -0.001831   0.000015   0.000004  -0.000001   0.000004
     9  H    0.000004   0.000015  -0.001831  -0.000034   0.000004  -0.000001
    10  H   -0.000000   0.000004  -0.000034  -0.021200  -0.000034   0.000004
    11  H    0.000004  -0.000001   0.000004  -0.000034  -0.001831   0.000015
    12  H   -0.000034   0.000004  -0.000001   0.000004   0.000015  -0.001831
 Mulliken charges and spin densities:
               1          2
     1  C   -0.057367   0.548467
     2  C   -0.123745  -0.010385
     3  C   -0.123745  -0.010385
     4  C   -0.057367   0.548467
     5  C   -0.123745  -0.010385
     6  C   -0.123745  -0.010385
     7  H    0.277959  -0.023124
     8  H    0.263449  -0.002287
     9  H    0.263449  -0.002287
    10  H    0.277959  -0.023124
    11  H    0.263449  -0.002287
    12  H    0.263449  -0.002287
 Sum of Mulliken charges =   1.00000   1.00000
 Mulliken charges and spin densities with hydrogens summed into heavy atoms:
               1          2
     1  C    0.220592   0.525343
     2  C    0.139704  -0.012672
     3  C    0.139704  -0.012672
     4  C    0.220592   0.525343
     5  C    0.139704  -0.012672
     6  C    0.139704  -0.012672
 Electronic spatial extent (au):  <R**2>=            438.4694
 Charge=              1.0000 electrons
 Dipole moment (field-independent basis, Debye):
    X=             -0.0000    Y=              0.0000    Z=             -0.0000  Tot=              0.0000
 Quadrupole moment (field-independent basis, Debye-Ang):
   XX=            -21.5992   YY=            -18.0422   ZZ=            -35.0420
   XY=             -0.0000   XZ=              0.0000   YZ=              0.0000
 Traceless Quadrupole moment (field-independent basis, Debye-Ang):
   XX=              3.2952   YY=              6.8523   ZZ=            -10.1475
   XY=             -0.0000   XZ=              0.0000   YZ=              0.0000
 Octapole moment (field-independent basis, Debye-Ang**2):
  XXX=              0.0000  YYY=              0.0000  ZZZ=              0.0000  XYY=              0.0000
  XXY=              0.0000  XXZ=              0.0000  XZZ=              0.0000  YZZ=              0.0000
  YYZ=              0.0000  XYZ=              0.0000
 Hexadecapole moment (field-independent basis, Debye-Ang**3):
 XXXX=           -208.1236 YYYY=           -194.4624 ZZZZ=            -34.1813 XXXY=              0.0000
 XXXZ=              0.0000 YYYX=             -0.0000 YYYZ=              0.0000 ZZZX=             -0.0000
 ZZZY=             -0.0000 XXYY=            -68.4946 XXZZ=            -55.4288 YYZZ=            -52.1668
 XXYZ=              0.0000 YYXZ=              0.0000 ZZXY=              0.0000
 N-N= 2.031815835396D+02 E-N=-9.341562008538D+02  KE= 2.305589087294D+02
 Symmetry AG   KE= 7.454930947818D+01
 Symmetry B1G  KE= 3.772154428113D+01
 Symmetry B2G  KE= 2.335623595063D+00
 Symmetry B3G  KE= 1.201191514669D+00
 Symmetry AU   KE=-1.621918238850D-16
 Symmetry B1U  KE= 1.958283557453D+00
 Symmetry B2U  KE= 7.223724988193D+01
 Symmetry B3U  KE= 4.055570642098D+01
 Symmetry AG   SP= 1.854958786400D-14
 Symmetry B1G  SP=-9.900364185964D-15
 Symmetry B2G  SP=-4.741487150822D-16
 Symmetry B3G  SP= 1.000000000000D+00
 Symmetry AU   SP=-4.702721662678D-17
 Symmetry B1U  SP= 1.738396210836D-15
 Symmetry B2U  SP=-9.394679587223D-15
 Symmetry B3U  SP=-1.323101377808D-14
                          Isotropic Fermi Contact Couplings
        Atom                 a.u.       MegaHertz       Gauss      10(-4) cm-1
     1  C(13)              0.06907      77.64573      27.70593      25.89983
     2  C(13)             -0.00695      -7.80970      -2.78669      -2.60503
     3  C(13)             -0.00695      -7.80970      -2.78669      -2.60503
     4  C(13)              0.06907      77.64573      27.70593      25.89983
     5  C(13)             -0.00695      -7.80970      -2.78669      -2.60503
     6  C(13)             -0.00695      -7.80970      -2.78669      -2.60503
     7  H(1)              -0.00912     -40.78163     -14.55190     -13.60329
     8  H(1)              -0.00083      -3.71505      -1.32562      -1.23921
     9  H(1)              -0.00083      -3.71505      -1.32562      -1.23921
    10  H(1)              -0.00912     -40.78163     -14.55190     -13.60329
    11  H(1)              -0.00083      -3.71505      -1.32562      -1.23921
    12  H(1)              -0.00083      -3.71505      -1.32562      -1.23921
 --------------------------------------------------------
       Center         ----  Spin Dipole Couplings  ----
                      3XX-RR        3YY-RR        3ZZ-RR
 --------------------------------------------------------
     1   Atom       -0.267145     -0.259562      0.526706
     2   Atom       -0.014823     -0.022713      0.037536
     3   Atom       -0.014823     -0.022713      0.037536
     4   Atom       -0.267145     -0.259562      0.526706
     5   Atom       -0.014823     -0.022713      0.037536
     6   Atom       -0.014823     -0.022713      0.037536
     7   Atom       -0.034444      0.042813     -0.008368
     8   Atom        0.013274     -0.007152     -0.006123
     9   Atom        0.013274     -0.007152     -0.006123
    10   Atom       -0.034444      0.042813     -0.008368
    11   Atom        0.013274     -0.007152     -0.006123
    12   Atom        0.013274     -0.007152     -0.006123
 --------------------------------------------------------
                        XY            XZ            YZ
 --------------------------------------------------------
     1   Atom        0.000000      0.000000     -0.000000
     2   Atom        0.004002     -0.000000      0.000000
     3   Atom       -0.004002     -0.000000     -0.000000
     4   Atom        0.000000      0.000000      0.000000
     5   Atom        0.004002      0.000000     -0.000000
     6   Atom       -0.004002      0.000000      0.000000
     7   Atom       -0.000000      0.000000      0.000000
     8   Atom       -0.002371      0.000000     -0.000000
     9   Atom        0.002371      0.000000      0.000000
    10   Atom        0.000000     -0.000000     -0.000000
    11   Atom       -0.002371     -0.000000      0.000000
    12   Atom        0.002371     -0.000000     -0.000000
 --------------------------------------------------------


 ---------------------------------------------------------------------------------
              Anisotropic Spin Dipole Couplings in Principal Axis System
 ---------------------------------------------------------------------------------

       Atom             a.u.   MegaHertz   Gauss  10(-4) cm-1        Axes

              Baa    -0.2671   -35.848   -12.792   -11.958  1.0000 -0.0000  0.0000
     1 C(13)  Bbb    -0.2596   -34.831   -12.428   -11.618  0.0000  1.0000  0.0000
              Bcc     0.5267    70.679    25.220    23.576  0.0000  0.0000  1.0000
 
              Baa    -0.0244    -3.273    -1.168    -1.092 -0.3860  0.9225 -0.0000
     2 C(13)  Bbb    -0.0131    -1.764    -0.630    -0.589  0.9225  0.3860 -0.0000
              Bcc     0.0375     5.037     1.797     1.680  0.0000  0.0000  1.0000
 
              Baa    -0.0244    -3.273    -1.168    -1.092  0.3860  0.9225 -0.0000
     3 C(13)  Bbb    -0.0131    -1.764    -0.630    -0.589  0.9225 -0.3860  0.0000
              Bcc     0.0375     5.037     1.797     1.680  0.0000  0.0000  1.0000
 
              Baa    -0.2671   -35.848   -12.792   -11.958  1.0000 -0.0000 -0.0000
     4 C(13)  Bbb    -0.2596   -34.831   -12.428   -11.618  0.0000  1.0000 -0.0000
              Bcc     0.5267    70.679    25.220    23.576  0.0000  0.0000  1.0000
 
              Baa    -0.0244    -3.273    -1.168    -1.092 -0.3860  0.9225 -0.0000
     5 C(13)  Bbb    -0.0131    -1.764    -0.630    -0.589  0.9225  0.3860 -0.0000
              Bcc     0.0375     5.037     1.797     1.680  0.0000  0.0000  1.0000
 
              Baa    -0.0244    -3.273    -1.168    -1.092  0.3860  0.9225 -0.0000
     6 C(13)  Bbb    -0.0131    -1.764    -0.630    -0.589  0.9225 -0.3860  0.0000
              Bcc     0.0375     5.037     1.797     1.680  0.0000  0.0000  1.0000
 
              Baa    -0.0344   -18.378    -6.558    -6.130  1.0000  0.0000 -0.0000
     7 H(1)   Bbb    -0.0084    -4.465    -1.593    -1.489  0.0000  0.0000  1.0000
              Bcc     0.0428    22.843     8.151     7.620 -0.0000  1.0000 -0.0000
 
              Baa    -0.0074    -3.961    -1.413    -1.321  0.1138  0.9935  0.0000
     8 H(1)   Bbb    -0.0061    -3.267    -1.166    -1.090  0.0000  0.0000  1.0000
              Bcc     0.0135     7.228     2.579     2.411  0.9935 -0.1138  0.0000
 
              Baa    -0.0074    -3.961    -1.413    -1.321 -0.1138  0.9935  0.0000
     9 H(1)   Bbb    -0.0061    -3.267    -1.166    -1.090  0.0000  0.0000  1.0000
              Bcc     0.0135     7.228     2.579     2.411  0.9935  0.1138 -0.0000
 
              Baa    -0.0344   -18.378    -6.558    -6.130  1.0000 -0.0000 -0.0000
    10 H(1)   Bbb    -0.0084    -4.465    -1.593    -1.489  0.0000  0.0000  1.0000
              Bcc     0.0428    22.843     8.151     7.620  0.0000  1.0000 -0.0000
 
              Baa    -0.0074    -3.961    -1.413    -1.321  0.1138  0.9935  0.0000
    11 H(1)   Bbb    -0.0061    -3.267    -1.166    -1.090  0.0000  0.0000  1.0000
              Bcc     0.0135     7.228     2.579     2.411  0.9935 -0.1138  0.0000
 
              Baa    -0.0074    -3.961    -1.413    -1.321 -0.1138  0.9935  0.0000
    12 H(1)   Bbb    -0.0061    -3.267    -1.166    -1.090  0.0000  0.0000  1.0000
              Bcc     0.0135     7.228     2.579     2.411  0.9935  0.1138 -0.0000
 

 ---------------------------------------------------------------------------------

 No NMR shielding tensors so no spin-rotation constants.
 Leave Link  601 at Mon Mar 16 03:51:23 2020, MaxMem=  6710886400 cpu:               4.3 elap:               0.3
 (Enter /opt/ohpc/pub/libs/gaussian/g16-A.03/sandybridge/g16/l9999.exe)

 Test job not archived.
 1\1\GINC-CNODE145\SP\ULC-wHPBE\6-31G\C6H6(1+,2)\QAI222\16-Mar-2020\0\\
 #P uLC-wHPBE/6-31G iop(3/107=0312200000, 3/108=0312200000) scf=(conver
 =6,fermi,ndamp=35,noincfock,novaracc,vshift=500,xqc)\\H6 C6\\1,2\C,0,0
 .,1.396379,0.\C,0,-1.2093,0.69819,0.\C,0,-1.2093,-0.69819,0.\C,0,0.,-1
 .396379,0.\C,0,1.2093,-0.69819,0.\C,0,1.2093,0.69819,0.\H,0,0.,2.48461
 3,0.\H,0,-2.151738,1.242306,0.\H,0,-2.151738,-1.242306,0.\H,0,0.,-2.48
 4613,0.\H,0,2.151738,-1.242306,0.\H,0,2.151738,1.242306,0.\\Version=EM
 64L-G16RevA.03\HF=-231.6677519\S2=0.771858\S2-1=0.\S2A=0.750056\RMSD=5
 .267e-07\Dipole=0.,0.,0.\Quadrupole=2.4499339,5.0944962,-7.54443,0.,0.
 ,0.\PG=D06H [3C2'(H1C1.C1H1)]\\@


 MAN IS A SINGULAR CREATURE.  HE HAS A SET OF GIFTS
 WHICH MAKE HIM UNIQUE AMONG THE ANIMALS: SO THAT, 
 UNLIKE THEM, HE IS NOT A FIGURE IN THE LANDSCAPE --
 HE IS A SHAPER OF THE LANDSCAPE.

                       -- JACOB BRONOWSKI
 Job cpu time:       0 days  0 hours  0 minutes 48.6 seconds.
 Elapsed time:       0 days  0 hours  0 minutes  3.5 seconds.
 File lengths (MBytes):  RWF=    272 Int=      0 D2E=      0 Chk=     32 Scr=     32
 Normal termination of Gaussian 16 at Mon Mar 16 03:51:23 2020.
