 Entering Gaussian System, Link 0=g16
 Input=1b_tune_c9.gjf
 Output=1b_tune_c9.log
 Initial command:
 /opt/ohpc/pub/libs/gaussian/g16-A.03/haswell/g16/l1.exe "/scratch/smgo234/Ocelot/test/1b/tuning_1b_ocycle1/Gau-42153.inp" -scrdir="/scratch/smgo234/Ocelot/test/1b/tuning_1b_ocycle1/"
 Entering Link 1 = /opt/ohpc/pub/libs/gaussian/g16-A.03/haswell/g16/l1.exe PID=     42154.
  
 Copyright (c) 1988,1990,1992,1993,1995,1998,2003,2009,2016,
            Gaussian, Inc.  All Rights Reserved.
  
 This is part of the Gaussian(R) 16 program.  It is based on
 the Gaussian(R) 09 system (copyright 2009, Gaussian, Inc.),
 the Gaussian(R) 03 system (copyright 2003, Gaussian, Inc.),
 the Gaussian(R) 98 system (copyright 1998, Gaussian, Inc.),
 the Gaussian(R) 94 system (copyright 1995, Gaussian, Inc.),
 the Gaussian 92(TM) system (copyright 1992, Gaussian, Inc.),
 the Gaussian 90(TM) system (copyright 1990, Gaussian, Inc.),
 the Gaussian 88(TM) system (copyright 1988, Gaussian, Inc.),
 the Gaussian 86(TM) system (copyright 1986, Carnegie Mellon
 University), and the Gaussian 82(TM) system (copyright 1983,
 Carnegie Mellon University). Gaussian is a federally registered
 trademark of Gaussian, Inc.
  
 This software contains proprietary and confidential information,
 including trade secrets, belonging to Gaussian, Inc.
  
 This software is provided under written license and may be
 used, copied, transmitted, or stored only in accord with that
 written license.
  
 The following legend is applicable only to US Government
 contracts under FAR:
  
                    RESTRICTED RIGHTS LEGEND
  
 Use, reproduction and disclosure by the US Government is
 subject to restrictions as set forth in subparagraphs (a)
 and (c) of the Commercial Computer Software - Restricted
 Rights clause in FAR 52.227-19.
  
 Gaussian, Inc.
 340 Quinnipiac St., Bldg. 40, Wallingford CT 06492
  
  
 ---------------------------------------------------------------
 Warning -- This program may not be used in any manner that
 competes with the business of Gaussian, Inc. or will provide
 assistance to any competitor of Gaussian, Inc.  The licensee
 of this program is prohibited from giving any competitor of
 Gaussian, Inc. access to this program.  By using this program,
 the user acknowledges that Gaussian, Inc. is engaged in the
 business of creating and licensing software in the field of
 computational chemistry and represents and warrants to the
 licensee that it is not a competitor of Gaussian, Inc. and that
 it will not use this program in any manner prohibited above.
 ---------------------------------------------------------------
  

 Cite this work as:
 Gaussian 16, Revision A.03,
 M. J. Frisch, G. W. Trucks, H. B. Schlegel, G. E. Scuseria, 
 M. A. Robb, J. R. Cheeseman, G. Scalmani, V. Barone, 
 G. A. Petersson, H. Nakatsuji, X. Li, M. Caricato, A. V. Marenich, 
 J. Bloino, B. G. Janesko, R. Gomperts, B. Mennucci, H. P. Hratchian, 
 J. V. Ortiz, A. F. Izmaylov, J. L. Sonnenberg, D. Williams-Young, 
 F. Ding, F. Lipparini, F. Egidi, J. Goings, B. Peng, A. Petrone, 
 T. Henderson, D. Ranasinghe, V. G. Zakrzewski, J. Gao, N. Rega, 
 G. Zheng, W. Liang, M. Hada, M. Ehara, K. Toyota, R. Fukuda, 
 J. Hasegawa, M. Ishida, T. Nakajima, Y. Honda, O. Kitao, H. Nakai, 
 T. Vreven, K. Throssell, J. A. Montgomery, Jr., J. E. Peralta, 
 F. Ogliaro, M. J. Bearpark, J. J. Heyd, E. N. Brothers, K. N. Kudin, 
 V. N. Staroverov, T. A. Keith, R. Kobayashi, J. Normand, 
 K. Raghavachari, A. P. Rendell, J. C. Burant, S. S. Iyengar, 
 J. Tomasi, M. Cossi, J. M. Millam, M. Klene, C. Adamo, R. Cammi, 
 J. W. Ochterski, R. L. Martin, K. Morokuma, O. Farkas, 
 J. B. Foresman, and D. J. Fox, Gaussian, Inc., Wallingford CT, 2016.
 
 ******************************************
 Gaussian 16:  ES64L-G16RevA.03 25-Dec-2016
                25-Feb-2020 
 ******************************************
 %mem=50GB
 %nproc=16
 Will use up to   16 processors via shared memory.
 ----------------------------------------------------------------------
 #P uLC-wHPBE/6-31G iop(3/107=0314500000, 3/108=0314500000) scf=(conver
 =6,fermi,ndamp=35,noincfock,novaracc,vshift=500,xqc)
 ----------------------------------------------------------------------
 1/38=1,172=1/1;
 2/12=2,17=6,18=5,40=1/2;
 3/5=1,6=6,11=2,25=1,30=1,74=-71,107=314500000,108=314500000,116=2/1,2,3;
 4//1;
 5/5=100002,6=6,8=3,10=500,13=1,18=-1,22=13,38=1,93=35/2,8;
 6/7=2,8=2,9=2,10=2,28=1/1;
 99/5=1,9=1/99;
 Leave Link    1 at Tue Feb 25 12:22:41 2020, MaxMem=  6710886400 cpu:               9.9 elap:               0.7
 (Enter /opt/ohpc/pub/libs/gaussian/g16-A.03/haswell/g16/l101.exe)
 -----
 H6 C5
 -----
 Symbolic Z-matrix:
 Charge =  1 Multiplicity = 2
 C                     0.        0.89708  -0.93525 
 C                     0.        1.13409   0.42538 
 C                     0.        0.        1.24305 
 C                     0.       -1.13409   0.42538 
 C                     0.       -0.89708  -0.93525 
 H                     0.        0.       -1.72336 
 H                     0.        1.62254  -1.74574 
 H                     0.        2.16413   0.77433 
 H                     0.        0.        2.32629 
 H                     0.       -2.16413   0.77433 
 H                     0.       -1.62254  -1.74574 
 
 ITRead=  0  0  0  0  0  0  0  0  0  0  0
 MicOpt= -1 -1 -1 -1 -1 -1 -1 -1 -1 -1 -1
 NAtoms=     11 NQM=       11 NQMF=       0 NMMI=      0 NMMIF=      0
                NMic=       0 NMicF=      0.
                    Isotopes and Nuclear Properties:
 (Nuclear quadrupole moments (NQMom) in fm**2, nuclear magnetic moments (NMagM)
  in nuclear magnetons)

  Atom         1           2           3           4           5           6           7           8           9          10
 IAtWgt=          12          12          12          12          12           1           1           1           1           1
 AtmWgt=  12.0000000  12.0000000  12.0000000  12.0000000  12.0000000   1.0078250   1.0078250   1.0078250   1.0078250   1.0078250
 NucSpn=           0           0           0           0           0           1           1           1           1           1
 AtZEff=  -0.0000000  -0.0000000  -0.0000000  -0.0000000  -0.0000000  -0.0000000  -0.0000000  -0.0000000  -0.0000000  -0.0000000
 NQMom=    0.0000000   0.0000000   0.0000000   0.0000000   0.0000000   0.0000000   0.0000000   0.0000000   0.0000000   0.0000000
 NMagM=    0.0000000   0.0000000   0.0000000   0.0000000   0.0000000   2.7928460   2.7928460   2.7928460   2.7928460   2.7928460
 AtZNuc=   6.0000000   6.0000000   6.0000000   6.0000000   6.0000000   1.0000000   1.0000000   1.0000000   1.0000000   1.0000000

  Atom        11
 IAtWgt=           1
 AtmWgt=   1.0078250
 NucSpn=           1
 AtZEff=  -0.0000000
 NQMom=    0.0000000
 NMagM=    2.7928460
 AtZNuc=   1.0000000
 Leave Link  101 at Tue Feb 25 12:22:41 2020, MaxMem=  6710886400 cpu:               2.4 elap:               0.2
 (Enter /opt/ohpc/pub/libs/gaussian/g16-A.03/haswell/g16/l202.exe)
                          Input orientation:                          
 ---------------------------------------------------------------------
 Center     Atomic      Atomic             Coordinates (Angstroms)
 Number     Number       Type             X           Y           Z
 ---------------------------------------------------------------------
      1          6           0        0.000000    0.897082   -0.935245
      2          6           0        0.000000    1.134094    0.425375
      3          6           0        0.000000    0.000000    1.243051
      4          6           0        0.000000   -1.134094    0.425375
      5          6           0        0.000000   -0.897082   -0.935245
      6          1           0        0.000000    0.000000   -1.723356
      7          1           0        0.000000    1.622537   -1.745737
      8          1           0        0.000000    2.164126    0.774330
      9          1           0        0.000000    0.000000    2.326294
     10          1           0        0.000000   -2.164126    0.774330
     11          1           0        0.000000   -1.622537   -1.745737
 ---------------------------------------------------------------------
                    Distance matrix (angstroms):
                    1          2          3          4          5
     1  C    0.000000
     2  C    1.381109   0.000000
     3  C    2.355786   1.398128   0.000000
     4  C    2.444783   2.268188   1.398128   0.000000
     5  C    1.794164   2.444783   2.355786   1.381109   0.000000
     6  H    1.194100   2.429653   2.966407   2.429653   1.194100
     7  H    1.087742   2.225377   3.400806   3.508952   2.646767
     8  H    2.127921   1.087536   2.214304   3.316629   3.506229
     9  H    3.382661   2.213518   1.083243   2.213518   3.382661
    10  H    3.506229   3.316629   2.214304   1.087536   2.127921
    11  H    2.646767   3.508952   3.400806   2.225377   1.087742
                    6          7          8          9         10
     6  H    0.000000
     7  H    1.622691   0.000000
     8  H    3.304826   2.577607   0.000000
     9  H    4.049650   4.383385   2.663087   0.000000
    10  H    3.304826   4.548577   4.328252   2.663087   0.000000
    11  H    1.622691   3.245074   4.548577   4.383385   2.577607
                   11
    11  H    0.000000
 Stoichiometry    C5H6(1+,2)
 Framework group  C2V[C2(HCH),SGV(C4H4)]
 Deg. of freedom    10
 Full point group                 C2V     NOp   4
 Largest Abelian subgroup         C2V     NOp   4
 Largest concise Abelian subgroup C2      NOp   2
                         Standard orientation:                         
 ---------------------------------------------------------------------
 Center     Atomic      Atomic             Coordinates (Angstroms)
 Number     Number       Type             X           Y           Z
 ---------------------------------------------------------------------
      1          6           0        0.000000    0.897082   -0.935245
      2          6           0        0.000000    1.134094    0.425375
      3          6           0        0.000000   -0.000000    1.243051
      4          6           0       -0.000000   -1.134094    0.425375
      5          6           0       -0.000000   -0.897082   -0.935245
      6          1           0       -0.000000    0.000000   -1.723356
      7          1           0        0.000000    1.622537   -1.745737
      8          1           0        0.000000    2.164126    0.774330
      9          1           0        0.000000   -0.000000    2.326294
     10          1           0       -0.000000   -2.164126    0.774330
     11          1           0       -0.000000   -1.622537   -1.745737
 ---------------------------------------------------------------------
 Rotational constants (GHZ):           8.4725427           7.7835829           4.0567316
 Leave Link  202 at Tue Feb 25 12:22:41 2020, MaxMem=  6710886400 cpu:               0.2 elap:               0.0
 (Enter /opt/ohpc/pub/libs/gaussian/g16-A.03/haswell/g16/l301.exe)
 Standard basis: 6-31G (6D, 7F)
 Ernie: Thresh=  0.10000D-02 Tol=  0.10000D-05 Strict=F.
 There are    27 symmetry adapted cartesian basis functions of A1  symmetry.
 There are     4 symmetry adapted cartesian basis functions of A2  symmetry.
 There are     6 symmetry adapted cartesian basis functions of B1  symmetry.
 There are    20 symmetry adapted cartesian basis functions of B2  symmetry.
 There are    27 symmetry adapted basis functions of A1  symmetry.
 There are     4 symmetry adapted basis functions of A2  symmetry.
 There are     6 symmetry adapted basis functions of B1  symmetry.
 There are    20 symmetry adapted basis functions of B2  symmetry.
    57 basis functions,   134 primitive gaussians,    57 cartesian basis functions
    18 alpha electrons       17 beta electrons
       nuclear repulsion energy       155.1468587074 Hartrees.
 IExCor=33909 DFT=T Ex+Corr=LC-wHPBE ExCW=0 ScaHFX=  1.000000
 ScaDFX=  1.000000  1.000000  1.000000  1.000000 ScalE2=  1.000000  1.000000
 IRadAn=      5 IRanWt=     -1 IRanGd=            0 ICorTp=0 IEmpDi=  4
 HFx  wShort=  0.000000 wLong=  0.314500 cFull=  0.000000 cShort=  0.000000 cLong=  1.000000
 DFx  wShort=  0.000000 wLong=  0.314500 cFull=  0.000000 cShort=  1.000000 cLong=  0.000000
 NAtoms=   11 NActive=   11 NUniq=    7 SFac= 2.47D+00 NAtFMM=   60 NAOKFM=F Big=F
 Integral buffers will be    131072 words long.
 Raffenetti 2 integral format.
 Two-electron integral symmetry is turned on.
 Leave Link  301 at Tue Feb 25 12:22:41 2020, MaxMem=  6710886400 cpu:               0.8 elap:               0.1
 (Enter /opt/ohpc/pub/libs/gaussian/g16-A.03/haswell/g16/l302.exe)
 NPDir=0 NMtPBC=     1 NCelOv=     1 NCel=       1 NClECP=     1 NCelD=      1
         NCelK=      1 NCelE2=     1 NClLst=     1 CellRange=     0.0.
 One-electron integrals computed using PRISM.
 One-electron integral symmetry used in STVInt
 NBasis=    57 RedAO= T EigKep=  1.93D-03  NBF=    27     4     6    20
 NBsUse=    57 1.00D-06 EigRej= -1.00D+00 NBFU=    27     4     6    20
 Precomputing XC quadrature grid using
 IXCGrd= 4 IRadAn=           5 IRanWt=          -1 IRanGd=           0 AccXCQ= 0.00D+00.
 Generated NRdTot=       0 NPtTot=           0 NUsed=           0 NTot=          32
 NSgBfM=    57    57    57    57    57 MxSgAt=    11 MxSgA2=    11.
 Leave Link  302 at Tue Feb 25 12:22:41 2020, MaxMem=  6710886400 cpu:               2.9 elap:               0.2
 (Enter /opt/ohpc/pub/libs/gaussian/g16-A.03/haswell/g16/l303.exe)
 DipDrv:  MaxL=1.
 Leave Link  303 at Tue Feb 25 12:22:41 2020, MaxMem=  6710886400 cpu:               0.5 elap:               0.1
 (Enter /opt/ohpc/pub/libs/gaussian/g16-A.03/haswell/g16/l401.exe)
 ExpMin= 1.61D-01 ExpMax= 3.05D+03 ExpMxC= 4.57D+02 IAcc=3 IRadAn=         5 AccDes= 0.00D+00
 Harris functional with IExCor=33909 and IRadAn=       5 diagonalized for initial guess.
 HarFok:  IExCor=33909 AccDes= 0.00D+00 IRadAn=         5 IDoV= 1 UseB2=F ITyADJ=14
 ICtDFT=  3500011 ScaDFX=  1.000000  1.000000  1.000000  1.000000
 FoFCou: FMM=F IPFlag=           0 FMFlag=      100000 FMFlg1=           0
         NFxFlg=           0 DoJE=T BraDBF=F KetDBF=T FulRan=T
         wScrn=  0.000000 ICntrl=       500 IOpCl=  0 I1Cent=   200000004 NGrid=           0
         NMat0=    1 NMatS0=      1 NMatT0=    0 NMatD0=    1 NMtDS0=    0 NMtDT0=    0
 Petite list used in FoFCou.
 Harris En= -187.893496120199    
 JPrj=0 DoOrth=F DoCkMO=F.
 Initial guess orbital symmetries:
 Alpha Orbitals:
       Occupied  (A1) (B2) (A1) (B2) (A1) (A1) (B2) (A1) (A1) (B2)
                 (A1) (B2) (A1) (B2) (A1) (B1) (A2) (B1)
       Virtual   (A2) (B2) (B1) (A1) (A1) (B2) (A1) (B2) (A1) (B2)
                 (A1) (B2) (A1) (B2) (B1) (A1) (A2) (B1) (B2) (A1)
                 (A1) (A2) (B1) (B2) (B2) (A1) (B2) (A1) (A1) (B2)
                 (A1) (A1) (A1) (B2) (A1) (B2) (A1) (A1) (B2)
 Beta  Orbitals:
       Occupied  (A1) (B2) (A1) (B2) (A1) (A1) (B2) (A1) (A1) (B2)
                 (A1) (B2) (A1) (B2) (A1) (B1) (A2)
       Virtual   (B1) (A2) (B2) (B1) (A1) (A1) (B2) (A1) (B2) (A1)
                 (B2) (A1) (B2) (A1) (B2) (B1) (A1) (A2) (B1) (B2)
                 (A1) (A1) (A2) (B1) (B2) (B2) (A1) (B2) (A1) (A1)
                 (B2) (A1) (A1) (A1) (B2) (A1) (B2) (A1) (A1) (B2)
 The electronic state of the initial guess is 2-B1.
 Initial guess <Sx>= 0.0000 <Sy>= 0.0000 <Sz>= 0.5000 <S**2>= 0.7500 S= 0.5000
 Leave Link  401 at Tue Feb 25 12:22:42 2020, MaxMem=  6710886400 cpu:               4.2 elap:               0.3
 (Enter /opt/ohpc/pub/libs/gaussian/g16-A.03/haswell/g16/l502.exe)
 Keep R1 and R2 ints in memory in symmetry-blocked form, NReq=16815681.
 FoFCou: FMM=F IPFlag=           0 FMFlag=           0 FMFlg1=           0
         NFxFlg=           0 DoJE=F BraDBF=F KetDBF=F FulRan=T
         wScrn=  0.000000 ICntrl=       600 IOpCl=  0 I1Cent=           0 NGrid=           0
         NMat0=    1 NMatS0=   1653 NMatT0=    0 NMatD0=    1 NMtDS0=    0 NMtDT0=    0
 Petite list used in FoFCou.
 UHF open shell SCF:
 Using DIIS extrapolation, IDIIS=    10.
 NGot=  6710886400 LenX=  6710059561 LenY=  6710055871
 Requested convergence on RMS density matrix=1.00D-06 within  32 cycles.
 Requested convergence on MAX density matrix=1.00D-04.
 Requested convergence on             energy=1.00D-04.
 Virtual orbitals will be shifted by   0.500 hartree.
 No special actions if energy rises.
 Dynamic level shift is on during FON iterations.

 Cycle   1  Pass 1  IDiag  1:
 E= -193.408172638351    
 DIIS: error= 4.74D-02 at cycle   1 NSaved=   1.
 NSaved= 1 IEnMin= 1 EnMin= -193.408172638351     IErMin= 1 ErrMin= 4.74D-02
 ErrMax= 4.74D-02  0.00D+00 EMaxC= 1.00D+00 BMatC= 1.79D-01 BMatP= 1.79D-01
 IDIUse=1 WtCom= 1.00D+00 WtEn= 0.00D+00
 Coeff-Com:  0.100D+01
 Coeff:      0.100D+01
 Gap=     0.355 Goal=   None    Shift=    0.500
 T= 1770. Gap= 0.825 NK=0 IS=   19 IE=   57 IFin=   18
          NO(<0.9)=   0  NV(>0.1)=   0     18.00e < EF      0.00e >EF  Err=0.0D+00
 Gap=     0.245 Goal=   None    Shift=    0.500
 T= 1770. Gap= 0.748 NK=0 IS=   18 IE=   57 IFin=   17
          NO(<0.9)=   0  NV(>0.1)=   0     17.00e < EF      0.00e >EF  Err=0.0D+00
 GapD=    0.245 DampG=1.000 DampE=0.500 DampFc=0.5000 IDamp=-1.
 Damping current iteration by 5.00D-01
 RMSDP=6.57D-03 MaxDP=4.95D-02              OVMax= 9.87D-02

 Cycle   2  Pass 1  IDiag  1:
 E= -193.442588207371     Delta-E=       -0.034415569021 Rises=F Damp=T
 DIIS: error= 2.28D-02 at cycle   2 NSaved=   2.
 NSaved= 2 IEnMin= 2 EnMin= -193.442588207371     IErMin= 2 ErrMin= 2.28D-02
 ErrMax= 2.28D-02  0.00D+00 EMaxC= 1.00D+00 BMatC= 3.13D-02 BMatP= 1.79D-01
 IDIUse=1 WtCom= 1.00D+00 WtEn= 0.00D+00
 Coeff-Com: -0.545D+00 0.155D+01
 Coeff:     -0.545D+00 0.155D+01
 Gap=     0.425 Goal=   None    Shift=    0.500
 T= 1656. Gap= 0.910 NK=4 IS=   19 IE=   23 IFin=   18
          NO(<0.9)=   0  NV(>0.1)=   0     18.00e < EF      0.00e >EF  Err=0.0D+00
 Gap=     0.272 Goal=   None    Shift=    0.500
 T= 1656. Gap= 0.770 NK=4 IS=   18 IE=   23 IFin=   17
          NO(<0.9)=   0  NV(>0.1)=   0     17.00e < EF      0.00e >EF  Err=0.0D+00
 GapD=    0.272 DampG=1.000 DampE=0.500 DampFc=0.5000 IDamp=-1.
 Damping current iteration by 5.00D-01
 RMSDP=3.98D-03 MaxDP=3.09D-02 DE=-3.44D-02 OVMax= 1.56D-02

 Cycle   3  Pass 1  IDiag  1:
 E= -193.454833856149     Delta-E=       -0.012245648778 Rises=F Damp=T
 DIIS: error= 1.29D-02 at cycle   3 NSaved=   3.
 NSaved= 3 IEnMin= 3 EnMin= -193.454833856149     IErMin= 3 ErrMin= 1.29D-02
 ErrMax= 1.29D-02  0.00D+00 EMaxC= 1.00D+00 BMatC= 7.31D-03 BMatP= 3.13D-02
 IDIUse=1 WtCom= 1.00D+00 WtEn= 0.00D+00
 Coeff-Com:  0.340D+00-0.187D+01 0.253D+01
 Coeff:      0.340D+00-0.187D+01 0.253D+01
 Gap=     0.417 Goal=   None    Shift=    0.500
 T= 1448. Gap= 0.917 NK=0 IS=   19 IE=   57 IFin=   18
          NO(<0.9)=   0  NV(>0.1)=   0     18.00e < EF      0.00e >EF  Err=0.0D+00
 Gap=     0.276 Goal=   None    Shift=    0.500
 T= 1448. Gap= 0.776 NK=0 IS=   18 IE=   57 IFin=   17
          NO(<0.9)=   0  NV(>0.1)=   0     17.00e < EF      0.00e >EF  Err=0.0D+00
 GapD=    0.276 DampG=1.000 DampE=0.500 DampFc=0.5000 IDamp=-1.
 Damping current iteration by 5.00D-01
 RMSDP=2.19D-03 MaxDP=1.64D-02 DE=-1.22D-02 OVMax= 1.46D-02

 Cycle   4  Pass 1  IDiag  1:
 E= -193.460628667841     Delta-E=       -0.005794811692 Rises=F Damp=T
 DIIS: error= 8.21D-03 at cycle   4 NSaved=   4.
 NSaved= 4 IEnMin= 4 EnMin= -193.460628667841     IErMin= 4 ErrMin= 8.21D-03
 ErrMax= 8.21D-03  0.00D+00 EMaxC= 1.00D+00 BMatC= 2.48D-03 BMatP= 7.31D-03
 IDIUse=1 WtCom= 1.00D+00 WtEn= 0.00D+00
 Coeff-Com: -0.258D-02 0.837D+00-0.369D+01 0.386D+01
 Coeff:     -0.258D-02 0.837D+00-0.369D+01 0.386D+01
 Gap=     0.421 Goal=   None    Shift=    0.500
 T= 1065. Gap= 0.921 NK=0 IS=   19 IE=   57 IFin=   18
          NO(<0.9)=   0  NV(>0.1)=   0     18.00e < EF      0.00e >EF  Err=0.0D+00
 Gap=     0.280 Goal=   None    Shift=    0.500
 T= 1065. Gap= 0.780 NK=0 IS=   18 IE=   57 IFin=   17
          NO(<0.9)=   0  NV(>0.1)=   0     17.00e < EF      0.00e >EF  Err=0.0D+00
 GapD=    0.280 DampG=1.000 DampE=1.000 DampFc=1.0000 IDamp=-1.
 RMSDP=1.35D-03 MaxDP=1.35D-02 DE=-5.79D-03 OVMax= 1.39D-02

 Cycle   5  Pass 1  IDiag  1:
 E= -193.467320385938     Delta-E=       -0.006691718097 Rises=F Damp=F
 DIIS: error= 3.58D-03 at cycle   5 NSaved=   5.
 NSaved= 5 IEnMin= 5 EnMin= -193.467320385938     IErMin= 5 ErrMin= 3.58D-03
 ErrMax= 3.58D-03  0.00D+00 EMaxC= 1.00D+00 BMatC= 3.63D-04 BMatP= 2.48D-03
 IDIUse=1 WtCom= 1.00D+00 WtEn= 0.00D+00
 Coeff-Com: -0.172D+00 0.876D+00-0.728D+00-0.849D+00 0.187D+01
 Coeff:     -0.172D+00 0.876D+00-0.728D+00-0.849D+00 0.187D+01
 Gap=     0.422 Goal=   None    Shift=    0.500
 T=  721. Gap= 0.922 NK=0 IS=   19 IE=   57 IFin=   18
          NO(<0.9)=   0  NV(>0.1)=   0     18.00e < EF      0.00e >EF  Err=0.0D+00
 Gap=     0.283 Goal=   None    Shift=    0.500
 T=  721. Gap= 0.783 NK=0 IS=   18 IE=   57 IFin=   17
          NO(<0.9)=   0  NV(>0.1)=   0     17.00e < EF      0.00e >EF  Err=0.0D+00
 GapD=    0.283 DampG=1.000 DampE=1.000 DampFc=1.0000 IDamp=-1.
 RMSDP=3.89D-04 MaxDP=6.02D-03 DE=-6.69D-03 OVMax= 1.31D-02

 Cycle   6  Pass 1  IDiag  1:
 E= -193.467826798559     Delta-E=       -0.000506412621 Rises=F Damp=F
 DIIS: error= 2.75D-03 at cycle   6 NSaved=   6.
 NSaved= 6 IEnMin= 6 EnMin= -193.467826798559     IErMin= 6 ErrMin= 2.75D-03
 ErrMax= 2.75D-03  0.00D+00 EMaxC= 1.00D+00 BMatC= 1.62D-04 BMatP= 3.63D-04
 IDIUse=1 WtCom= 1.00D+00 WtEn= 0.00D+00
 Coeff-Com:  0.760D-02-0.317D+00 0.950D+00-0.693D+00-0.163D+01 0.268D+01
 Coeff:      0.760D-02-0.317D+00 0.950D+00-0.693D+00-0.163D+01 0.268D+01
 Gap=     0.423 Goal=   None    Shift=    0.500
 T=  402. Gap= 0.923 NK=0 IS=   19 IE=   57 IFin=   18
          NO(<0.9)=   0  NV(>0.1)=   0     18.00e < EF      0.00e >EF  Err=0.0D+00
 Gap=     0.285 Goal=   None    Shift=    0.500
 T=  402. Gap= 0.785 NK=0 IS=   18 IE=   57 IFin=   17
          NO(<0.9)=   0  NV(>0.1)=   0     17.00e < EF      0.00e >EF  Err=0.0D+00
 GapD=    0.285 DampG=1.000 DampE=1.000 DampFc=1.0000 IDamp=-1.
 RMSDP=3.04D-04 MaxDP=4.91D-03 DE=-5.06D-04 OVMax= 1.17D-02

 Cycle   7  Pass 1  IDiag  1:
 E= -193.468110033992     Delta-E=       -0.000283235433 Rises=F Damp=F
 DIIS: error= 1.95D-03 at cycle   7 NSaved=   7.
 NSaved= 7 IEnMin= 7 EnMin= -193.468110033992     IErMin= 7 ErrMin= 1.95D-03
 ErrMax= 1.95D-03  0.00D+00 EMaxC= 1.00D+00 BMatC= 6.91D-05 BMatP= 1.62D-04
 IDIUse=1 WtCom= 1.00D+00 WtEn= 0.00D+00
 Coeff-Com:  0.154D-01-0.624D-01-0.132D+00 0.399D+00-0.365D+00-0.110D+01
 Coeff-Com:  0.225D+01
 Coeff:      0.154D-01-0.624D-01-0.132D+00 0.399D+00-0.365D+00-0.110D+01
 Coeff:      0.225D+01
 Gap=     0.423 Goal=   None    Shift=    0.500
 T=   64. Gap= 0.923 NK=0 IS=   19 IE=   57 IFin=   18
          NO(<0.9)=   0  NV(>0.1)=   0     18.00e < EF      0.00e >EF  Err=0.0D+00
 Gap=     0.286 Goal=   None    Shift=    0.500
 T=   64. Gap= 0.786 NK=0 IS=   18 IE=   57 IFin=   17
          NO(<0.9)=   0  NV(>0.1)=   0     17.00e < EF      0.00e >EF  Err=0.0D+00
 GapD=    0.286 DampG=1.000 DampE=1.000 DampFc=1.0000 IDamp=-1.
 RMSDP=2.00D-04 MaxDP=2.86D-03 DE=-2.83D-04 OVMax= 8.39D-03

 Cycle   8  Pass 1  IDiag  1:
 E= -193.468230676252     Delta-E=       -0.000120642260 Rises=F Damp=F
 DIIS: error= 1.35D-03 at cycle   8 NSaved=   8.
 NSaved= 8 IEnMin= 8 EnMin= -193.468230676252     IErMin= 8 ErrMin= 1.35D-03
 ErrMax= 1.35D-03  0.00D+00 EMaxC= 1.00D+00 BMatC= 3.14D-05 BMatP= 6.91D-05
 IDIUse=1 WtCom= 1.00D+00 WtEn= 0.00D+00
 Coeff-Com: -0.112D-01 0.246D+00-0.759D+00 0.613D+00 0.100D+01-0.230D+01
 Coeff-Com:  0.170D-01 0.219D+01
 Coeff:     -0.112D-01 0.246D+00-0.759D+00 0.613D+00 0.100D+01-0.230D+01
 Coeff:      0.170D-01 0.219D+01
 Gap=     0.423 Goal=   None    Shift=    0.500
 Gap=     0.286 Goal=   None    Shift=    0.500
 GapD=    0.286 DampG=1.000 DampE=1.000 DampFc=1.0000 IDamp=-1.
 RMSDP=1.52D-04 MaxDP=2.12D-03 DE=-1.21D-04 OVMax= 6.71D-03

 Cycle   9  Pass 1  IDiag  1:
 E= -193.468288206543     Delta-E=       -0.000057530291 Rises=F Damp=F
 DIIS: error= 8.80D-04 at cycle   9 NSaved=   9.
 NSaved= 9 IEnMin= 9 EnMin= -193.468288206543     IErMin= 9 ErrMin= 8.80D-04
 ErrMax= 8.80D-04  0.00D+00 EMaxC= 1.00D+00 BMatC= 1.26D-05 BMatP= 3.14D-05
 IDIUse=1 WtCom= 1.00D+00 WtEn= 0.00D+00
 Coeff-Com:  0.131D-02-0.143D+00 0.585D+00-0.608D+00-0.429D+00 0.189D+01
 Coeff-Com: -0.106D+01-0.309D+01 0.385D+01
 Coeff:      0.131D-02-0.143D+00 0.585D+00-0.608D+00-0.429D+00 0.189D+01
 Coeff:     -0.106D+01-0.309D+01 0.385D+01
 Gap=     0.423 Goal=   None    Shift=    0.500
 Gap=     0.287 Goal=   None    Shift=    0.500
 RMSDP=1.09D-04 MaxDP=1.48D-03 DE=-5.75D-05 OVMax= 5.22D-03

 Cycle  10  Pass 1  IDiag  1:
 E= -193.468313424370     Delta-E=       -0.000025217827 Rises=F Damp=F
 DIIS: error= 5.28D-04 at cycle  10 NSaved=  10.
 NSaved=10 IEnMin=10 EnMin= -193.468313424370     IErMin=10 ErrMin= 5.28D-04
 ErrMax= 5.28D-04  0.00D+00 EMaxC= 1.00D+00 BMatC= 4.31D-06 BMatP= 1.26D-05
 IDIUse=1 WtCom= 1.00D+00 WtEn= 0.00D+00
 Coeff-Com:  0.483D-03 0.360D-01-0.171D+00 0.195D+00 0.857D-01-0.536D+00
 Coeff-Com:  0.460D+00 0.786D+00-0.279D+01 0.293D+01
 Coeff:      0.483D-03 0.360D-01-0.171D+00 0.195D+00 0.857D-01-0.536D+00
 Coeff:      0.460D+00 0.786D+00-0.279D+01 0.293D+01
 Gap=     0.423 Goal=   None    Shift=    0.500
 Gap=     0.287 Goal=   None    Shift=    0.500
 RMSDP=6.25D-05 MaxDP=9.02D-04 DE=-2.52D-05 OVMax= 3.15D-03

 Cycle  11  Pass 1  IDiag  1:
 E= -193.468321862853     Delta-E=       -0.000008438483 Rises=F Damp=F
 DIIS: error= 3.12D-04 at cycle  11 NSaved=  11.
 NSaved=11 IEnMin=11 EnMin= -193.468321862853     IErMin=11 ErrMin= 3.12D-04
 ErrMax= 3.12D-04  0.00D+00 EMaxC= 1.00D+00 BMatC= 1.54D-06 BMatP= 4.31D-06
 IDIUse=1 WtCom= 1.00D+00 WtEn= 0.00D+00
 Coeff-Com: -0.310D-03-0.302D-01 0.154D+00-0.185D+00-0.429D-01 0.485D+00
 Coeff-Com: -0.440D+00-0.912D+00 0.303D+01-0.536D+01 0.430D+01
 Coeff:     -0.310D-03-0.302D-01 0.154D+00-0.185D+00-0.429D-01 0.485D+00
 Coeff:     -0.440D+00-0.912D+00 0.303D+01-0.536D+01 0.430D+01
 Gap=     0.423 Goal=   None    Shift=    0.500
 Gap=     0.287 Goal=   None    Shift=    0.500
 RMSDP=3.86D-05 MaxDP=5.43D-04 DE=-8.44D-06 OVMax= 1.99D-03

 Cycle  12  Pass 1  IDiag  1:
 E= -193.468324893790     Delta-E=       -0.000003030937 Rises=F Damp=F
 DIIS: error= 1.78D-04 at cycle  12 NSaved=  12.
 NSaved=12 IEnMin=12 EnMin= -193.468324893790     IErMin=12 ErrMin= 1.78D-04
 ErrMax= 1.78D-04  0.00D+00 EMaxC= 1.00D+00 BMatC= 5.05D-07 BMatP= 1.54D-06
 IDIUse=1 WtCom= 1.00D+00 WtEn= 0.00D+00
 Coeff-Com:  0.282D-03-0.113D-01 0.384D-01-0.333D-01-0.456D-01 0.127D+00
 Coeff-Com: -0.100D-01-0.193D+00-0.228D+00 0.154D+01-0.330D+01 0.311D+01
 Coeff:      0.282D-03-0.113D-01 0.384D-01-0.333D-01-0.456D-01 0.127D+00
 Coeff:     -0.100D-01-0.193D+00-0.228D+00 0.154D+01-0.330D+01 0.311D+01
 Gap=     0.423 Goal=   None    Shift=    0.500
 Gap=     0.287 Goal=   None    Shift=    0.500
 RMSDP=2.23D-05 MaxDP=3.06D-04 DE=-3.03D-06 OVMax= 1.16D-03

 Cycle  13  Pass 1  IDiag  1:
 E= -193.468325888063     Delta-E=       -0.000000994273 Rises=F Damp=F
 DIIS: error= 1.01D-04 at cycle  13 NSaved=  13.
 NSaved=13 IEnMin=13 EnMin= -193.468325888063     IErMin=13 ErrMin= 1.01D-04
 ErrMax= 1.01D-04  0.00D+00 EMaxC= 1.00D+00 BMatC= 1.62D-07 BMatP= 5.05D-07
 IDIUse=1 WtCom= 1.00D+00 WtEn= 0.00D+00
 Coeff-Com: -0.568D-04 0.608D-02-0.202D-01 0.166D-01 0.314D-01-0.674D-01
 Coeff-Com:  0.296D-02 0.807D-01 0.141D+00-0.943D+00 0.224D+01-0.415D+01
 Coeff-Com:  0.366D+01
 Coeff:     -0.568D-04 0.608D-02-0.202D-01 0.166D-01 0.314D-01-0.674D-01
 Coeff:      0.296D-02 0.807D-01 0.141D+00-0.943D+00 0.224D+01-0.415D+01
 Coeff:      0.366D+01
 Gap=     0.423 Goal=   None    Shift=    0.500
 Gap=     0.287 Goal=   None    Shift=    0.500
 RMSDP=1.30D-05 MaxDP=1.82D-04 DE=-9.94D-07 OVMax= 6.85D-04

 Cycle  14  Pass 1  IDiag  1:
 E= -193.468326213967     Delta-E=       -0.000000325903 Rises=F Damp=F
 DIIS: error= 5.54D-05 at cycle  14 NSaved=  14.
 NSaved=14 IEnMin=14 EnMin= -193.468326213967     IErMin=14 ErrMin= 5.54D-05
 ErrMax= 5.54D-05  0.00D+00 EMaxC= 1.00D+00 BMatC= 5.09D-08 BMatP= 1.62D-07
 IDIUse=1 WtCom= 1.00D+00 WtEn= 0.00D+00
 Coeff-Com:  0.232D-03-0.524D-02 0.212D-01-0.229D-01-0.131D-01 0.603D-01
 Coeff-Com: -0.211D-01-0.110D+00 0.193D+00-0.147D+00-0.355D+00 0.156D+01
 Coeff-Com: -0.335D+01 0.319D+01
 Coeff:      0.232D-03-0.524D-02 0.212D-01-0.229D-01-0.131D-01 0.603D-01
 Coeff:     -0.211D-01-0.110D+00 0.193D+00-0.147D+00-0.355D+00 0.156D+01
 Coeff:     -0.335D+01 0.319D+01
 Gap=     0.423 Goal=   None    Shift=    0.500
 Gap=     0.287 Goal=   None    Shift=    0.500
 RMSDP=7.36D-06 MaxDP=1.04D-04 DE=-3.26D-07 OVMax= 3.94D-04

 Cycle  15  Pass 1  IDiag  1:
 E= -193.468326316896     Delta-E=       -0.000000102930 Rises=F Damp=F
 DIIS: error= 3.02D-05 at cycle  15 NSaved=  15.
 NSaved=15 IEnMin=15 EnMin= -193.468326316896     IErMin=15 ErrMin= 3.02D-05
 ErrMax= 3.02D-05  0.00D+00 EMaxC= 1.00D+00 BMatC= 1.56D-08 BMatP= 5.09D-08
 IDIUse=1 WtCom= 1.00D+00 WtEn= 0.00D+00
 Coeff-Com: -0.132D-03 0.239D-02-0.998D-02 0.113D-01 0.433D-02-0.255D-01
 Coeff-Com:  0.130D-01 0.495D-01-0.106D+00 0.127D+00 0.120D-01-0.611D+00
 Coeff-Com:  0.177D+01-0.358D+01 0.333D+01
 Coeff:     -0.132D-03 0.239D-02-0.998D-02 0.113D-01 0.433D-02-0.255D-01
 Coeff:      0.130D-01 0.495D-01-0.106D+00 0.127D+00 0.120D-01-0.611D+00
 Coeff:      0.177D+01-0.358D+01 0.333D+01
 Gap=     0.423 Goal=   None    Shift=    0.500
 Gap=     0.287 Goal=   None    Shift=    0.500
 RMSDP=4.08D-06 MaxDP=5.74D-05 DE=-1.03D-07 OVMax= 2.20D-04

 Cycle  16  Pass 1  IDiag  1:
 E= -193.468326348101     Delta-E=       -0.000000031204 Rises=F Damp=F
 DIIS: error= 1.61D-05 at cycle  16 NSaved=  16.
 NSaved=16 IEnMin=16 EnMin= -193.468326348101     IErMin=16 ErrMin= 1.61D-05
 ErrMax= 1.61D-05  0.00D+00 EMaxC= 1.00D+00 BMatC= 4.84D-09 BMatP= 1.56D-08
 IDIUse=1 WtCom= 1.00D+00 WtEn= 0.00D+00
 Coeff-Com:  0.337D-04-0.125D-03 0.144D-02-0.256D-02 0.278D-02-0.173D-02
 Coeff-Com:  0.209D-02-0.873D-02 0.413D-01-0.114D+00 0.170D+00-0.141D+00
 Coeff-Com: -0.227D+00 0.140D+01-0.357D+01 0.344D+01
 Coeff:      0.337D-04-0.125D-03 0.144D-02-0.256D-02 0.278D-02-0.173D-02
 Coeff:      0.209D-02-0.873D-02 0.413D-01-0.114D+00 0.170D+00-0.141D+00
 Coeff:     -0.227D+00 0.140D+01-0.357D+01 0.344D+01
 Gap=     0.423 Goal=   None    Shift=    0.500
 Gap=     0.287 Goal=   None    Shift=    0.500
 RMSDP=2.23D-06 MaxDP=3.07D-05 DE=-3.12D-08 OVMax= 1.21D-04

 Cycle  17  Pass 1  IDiag  1:
 E= -193.468326357385     Delta-E=       -0.000000009284 Rises=F Damp=F
 DIIS: error= 8.42D-06 at cycle  17 NSaved=  17.
 NSaved=17 IEnMin=17 EnMin= -193.468326357385     IErMin=17 ErrMin= 8.42D-06
 ErrMax= 8.42D-06  0.00D+00 EMaxC= 1.00D+00 BMatC= 1.50D-09 BMatP= 4.84D-09
 IDIUse=1 WtCom= 1.00D+00 WtEn= 0.00D+00
 Coeff-Com: -0.140D-04 0.330D-03-0.193D-02 0.265D-02-0.680D-03-0.319D-02
 Coeff-Com:  0.326D-02 0.824D-02-0.301D-01 0.625D-01-0.764D-01 0.118D-01
 Coeff-Com:  0.254D+00-0.112D+01 0.296D+01-0.510D+01 0.402D+01
 Coeff:     -0.140D-04 0.330D-03-0.193D-02 0.265D-02-0.680D-03-0.319D-02
 Coeff:      0.326D-02 0.824D-02-0.301D-01 0.625D-01-0.764D-01 0.118D-01
 Coeff:      0.254D+00-0.112D+01 0.296D+01-0.510D+01 0.402D+01
 Gap=     0.423 Goal=   None    Shift=    0.500
 Gap=     0.287 Goal=   None    Shift=    0.500
 RMSDP=1.20D-06 MaxDP=1.62D-05 DE=-9.28D-09 OVMax= 6.50D-05

 Cycle  18  Pass 1  IDiag  1:
 E= -193.468326360074     Delta-E=       -0.000000002689 Rises=F Damp=F
 DIIS: error= 4.36D-06 at cycle  18 NSaved=  18.
 NSaved=18 IEnMin=18 EnMin= -193.468326360074     IErMin=18 ErrMin= 4.36D-06
 ErrMax= 4.36D-06  0.00D+00 EMaxC= 1.00D+00 BMatC= 4.60D-10 BMatP= 1.50D-09
 IDIUse=1 WtCom= 1.00D+00 WtEn= 0.00D+00
 Coeff-Com: -0.443D-06 0.241D-04 0.340D-03-0.761D-03 0.129D-02-0.160D-02
 Coeff-Com:  0.987D-03-0.229D-02 0.153D-01-0.455D-01 0.824D-01-0.112D+00
 Coeff-Com:  0.589D-01 0.351D+00-0.151D+01 0.325D+01-0.496D+01 0.387D+01
 Coeff:     -0.443D-06 0.241D-04 0.340D-03-0.761D-03 0.129D-02-0.160D-02
 Coeff:      0.987D-03-0.229D-02 0.153D-01-0.455D-01 0.824D-01-0.112D+00
 Coeff:      0.589D-01 0.351D+00-0.151D+01 0.325D+01-0.496D+01 0.387D+01
 Gap=     0.423 Goal=   None    Shift=    0.500
 Gap=     0.287 Goal=   None    Shift=    0.500
 RMSDP=6.17D-07 MaxDP=8.20D-06 DE=-2.69D-09 OVMax= 3.38D-05

 SCF Done:  E(ULC-wHPBE) =  -193.468326360     A.U. after   18 cycles
            NFock= 18  Conv=0.62D-06     -V/T= 2.0051
 <Sx>= 0.0000 <Sy>= 0.0000 <Sz>= 0.5000 <S**2>= 0.7975 S= 0.5235
 <L.S>= 0.000000000000E+00
 KE= 1.924829856204D+02 PE=-7.500355782321D+02 EE= 2.089374075442D+02
 Annihilation of the first spin contaminant:
 S**2 before annihilation     0.7975,   after     0.7513
 Leave Link  502 at Tue Feb 25 12:22:43 2020, MaxMem=  6710886400 cpu:              25.1 elap:               1.6
 (Enter /opt/ohpc/pub/libs/gaussian/g16-A.03/haswell/g16/l508.exe)
 QCSCF skips out because SCF is already converged.
 Leave Link  508 at Tue Feb 25 12:22:43 2020, MaxMem=  6710886400 cpu:               0.0 elap:               0.0
 (Enter /opt/ohpc/pub/libs/gaussian/g16-A.03/haswell/g16/l601.exe)
 Copying SCF densities to generalized density rwf, IOpCl= 1 IROHF=0.

 **********************************************************************

            Population analysis using the SCF density.

 **********************************************************************

 Orbital symmetries:
 Alpha Orbitals:
       Occupied  (B2) (A1) (A1) (B2) (A1) (A1) (A1) (B2) (A1) (B2)
                 (A1) (B2) (A1) (A1) (B1) (B2) (A2) (B1)
       Virtual   (B2) (A2) (B1) (A1) (A1) (B2) (A1) (B2) (A1) (B2)
                 (A1) (A1) (B2) (B1) (B2) (B1) (A2) (A1) (A1) (B2)
                 (A1) (A2) (B1) (B2) (B2) (A1) (A1) (B2) (A1) (A1)
                 (B2) (A1) (A1) (B2) (A1) (B2) (A1) (A1) (B2)
 Beta  Orbitals:
       Occupied  (B2) (A1) (A1) (B2) (A1) (A1) (A1) (B2) (A1) (B2)
                 (A1) (B2) (A1) (A1) (B2) (B1) (A2)
       Virtual   (B1) (B2) (A2) (A1) (B1) (A1) (B2) (A1) (B2) (A1)
                 (B2) (A1) (A1) (B2) (B2) (B1) (A2) (A1) (B1) (A1)
                 (B2) (A1) (A2) (B1) (B2) (B2) (A1) (A1) (B2) (A1)
                 (B2) (A1) (A1) (A1) (B2) (A1) (B2) (A1) (A1) (B2)
 The electronic state is 2-B1.
 Alpha  occ. eigenvalues --  -10.37103 -10.37098 -10.32113 -10.31225 -10.31224
 Alpha  occ. eigenvalues --   -1.23939  -1.11203  -1.06799  -0.92976  -0.90872
 Alpha  occ. eigenvalues --   -0.86201  -0.76569  -0.74045  -0.72924  -0.72293
 Alpha  occ. eigenvalues --   -0.70751  -0.57773  -0.56222
 Alpha virt. eigenvalues --   -0.13927  -0.13318  -0.06390  -0.05510  -0.00292
 Alpha virt. eigenvalues --    0.04383   0.06391   0.08682   0.08786   0.19942
 Alpha virt. eigenvalues --    0.20010   0.29888   0.31134   0.39172   0.39795
 Alpha virt. eigenvalues --    0.46883   0.47495   0.48039   0.50409   0.51165
 Alpha virt. eigenvalues --    0.51431   0.54607   0.56101   0.63981   0.70478
 Alpha virt. eigenvalues --    0.72818   0.74041   0.76552   0.76694   0.82967
 Alpha virt. eigenvalues --    0.82967   0.87429   0.91468   0.97744   1.05866
 Alpha virt. eigenvalues --    1.07002   1.12139   1.34098   1.35535
  Beta  occ. eigenvalues --  -10.36550 -10.36543 -10.31490 -10.31490 -10.31217
  Beta  occ. eigenvalues --   -1.22794  -1.09393  -1.06520  -0.91985  -0.90168
  Beta  occ. eigenvalues --   -0.85922  -0.76266  -0.73768  -0.72374  -0.70590
  Beta  occ. eigenvalues --   -0.68044  -0.56490
  Beta virt. eigenvalues --   -0.27829  -0.12578  -0.10453  -0.05279  -0.03090
  Beta virt. eigenvalues --    0.00097   0.04648   0.06620   0.08650   0.09357
  Beta virt. eigenvalues --    0.20282   0.20498   0.30291   0.31512   0.40163
  Beta virt. eigenvalues --    0.41301   0.48482   0.48570   0.49503   0.50812
  Beta virt. eigenvalues --    0.51614   0.52492   0.55185   0.57590   0.64505
  Beta virt. eigenvalues --    0.70936   0.73639   0.74609   0.76456   0.77184
  Beta virt. eigenvalues --    0.83296   0.83420   0.88473   0.92095   0.97793
  Beta virt. eigenvalues --    1.06380   1.07502   1.13183   1.34982   1.36364
          Condensed to atoms (all electrons):
               1          2          3          4          5          6
     1  C    5.346797   0.499598  -0.041560  -0.126325   0.181126   0.165663
     2  C    0.499598   4.950086   0.464577  -0.025287  -0.126325  -0.023888
     3  C   -0.041560   0.464577   4.855830   0.464577  -0.041560   0.007541
     4  C   -0.126325  -0.025287   0.464577   4.950086   0.499598  -0.023888
     5  C    0.181126  -0.126325  -0.041560   0.499598   5.346797   0.165663
     6  H    0.165663  -0.023888   0.007541  -0.023888   0.165663   0.361037
     7  H    0.337474   0.003896  -0.000154   0.003209  -0.015894  -0.008888
     8  H   -0.024041   0.361841  -0.012134   0.003986   0.000943   0.000456
     9  H    0.005276  -0.028003   0.366735  -0.028003   0.005276  -0.000043
    10  H    0.000943   0.003986  -0.012134   0.361841  -0.024041   0.000456
    11  H   -0.015894   0.003209  -0.000154   0.003896   0.337474  -0.008888
               7          8          9         10         11
     1  C    0.337474  -0.024041   0.005276   0.000943  -0.015894
     2  C    0.003896   0.361841  -0.028003   0.003986   0.003209
     3  C   -0.000154  -0.012134   0.366735  -0.012134  -0.000154
     4  C    0.003209   0.003986  -0.028003   0.361841   0.003896
     5  C   -0.015894   0.000943   0.005276  -0.024041   0.337474
     6  H   -0.008888   0.000456  -0.000043   0.000456  -0.008888
     7  H    0.345442  -0.000024  -0.000053  -0.000018   0.000371
     8  H   -0.000024   0.385991  -0.001491  -0.000089  -0.000018
     9  H   -0.000053  -0.001491   0.408003  -0.001491  -0.000053
    10  H   -0.000018  -0.000089  -0.001491   0.385991  -0.000024
    11  H    0.000371  -0.000018  -0.000053  -0.000024   0.345442
          Atomic-Atomic Spin Densities.
               1          2          3          4          5          6
     1  C    0.482447  -0.039816  -0.023484  -0.008832   0.028679  -0.003588
     2  C   -0.039816  -0.224976   0.028293  -0.000237  -0.008832   0.000287
     3  C   -0.023484   0.028293   0.692239   0.028293  -0.023484   0.000204
     4  C   -0.008832  -0.000237   0.028293  -0.224976  -0.039816   0.000287
     5  C    0.028679  -0.008832  -0.023484  -0.039816   0.482447  -0.003588
     6  H   -0.003588   0.000287   0.000204   0.000287  -0.003588  -0.014248
     7  H   -0.002596  -0.000452   0.000093  -0.000086   0.000248  -0.000247
     8  H   -0.000283   0.001784  -0.001018  -0.000116   0.000055   0.000020
     9  H   -0.000035  -0.000057  -0.000965  -0.000057  -0.000035  -0.000002
    10  H    0.000055  -0.000116  -0.001018   0.001784  -0.000283   0.000020
    11  H    0.000248  -0.000086   0.000093  -0.000452  -0.002596  -0.000247
               7          8          9         10         11
     1  C   -0.002596  -0.000283  -0.000035   0.000055   0.000248
     2  C   -0.000452   0.001784  -0.000057  -0.000116  -0.000086
     3  C    0.000093  -0.001018  -0.000965  -0.001018   0.000093
     4  C   -0.000086  -0.000116  -0.000057   0.001784  -0.000452
     5  C    0.000248   0.000055  -0.000035  -0.000283  -0.002596
     6  H   -0.000247   0.000020  -0.000002   0.000020  -0.000247
     7  H   -0.017043   0.000057   0.000004   0.000000  -0.000064
     8  H    0.000057   0.005844   0.000019   0.000000   0.000000
     9  H    0.000004   0.000019  -0.026767   0.000019   0.000004
    10  H    0.000000   0.000000   0.000019   0.005844   0.000057
    11  H   -0.000064   0.000000   0.000004   0.000057  -0.017043
 Mulliken charges and spin densities:
               1          2
     1  C   -0.329057   0.432796
     2  C   -0.083690  -0.244207
     3  C   -0.051564   0.699244
     4  C   -0.083690  -0.244207
     5  C   -0.329057   0.432796
     6  H    0.364780  -0.021101
     7  H    0.334638  -0.020087
     8  H    0.284578   0.006362
     9  H    0.273846  -0.027873
    10  H    0.284578   0.006362
    11  H    0.334638  -0.020087
 Sum of Mulliken charges =   1.00000   1.00000
 Mulliken charges and spin densities with hydrogens summed into heavy atoms:
               1          2
     1  C    0.370361   0.391608
     2  C    0.200888  -0.237844
     3  C    0.222282   0.671371
     4  C    0.200888  -0.237844
     5  C    0.005581   0.412709
 Electronic spatial extent (au):  <R**2>=            322.4068
 Charge=              1.0000 electrons
 Dipole moment (field-independent basis, Debye):
    X=             -0.0000    Y=             -0.0000    Z=             -1.9999  Tot=              1.9999
 Quadrupole moment (field-independent basis, Debye-Ang):
   XX=            -31.5082   YY=            -17.4062   ZZ=            -13.2646
   XY=              0.0000   XZ=              0.0000   YZ=             -0.0000
 Traceless Quadrupole moment (field-independent basis, Debye-Ang):
   XX=            -10.7819   YY=              3.3201   ZZ=              7.4617
   XY=              0.0000   XZ=              0.0000   YZ=             -0.0000
 Octapole moment (field-independent basis, Debye-Ang**2):
  XXX=              0.0000  YYY=             -0.0000  ZZZ=             -7.4345  XYY=             -0.0000
  XXY=              0.0000  XXZ=              0.7065  XZZ=              0.0000  YZZ=             -0.0000
  YYZ=             -2.8660  XYZ=             -0.0000
 Hexadecapole moment (field-independent basis, Debye-Ang**3):
 XXXX=            -31.6237 YYYY=           -147.7797 ZZZZ=           -127.2733 XXXY=             -0.0000
 XXXZ=             -0.0000 YYYX=             -0.0000 YYYZ=             -0.0000 ZZZX=              0.0000
 ZZZY=             -0.0000 XXYY=            -43.1710 XXZZ=            -39.3257 YYZZ=            -42.9821
 XXYZ=             -0.0000 YYXZ=             -0.0000 ZZXY=             -0.0000
 N-N= 1.551468587074D+02 E-N=-7.500355814714D+02  KE= 1.924829856204D+02
 Symmetry A1   KE= 1.112738072937D+02
 Symmetry A2   KE= 2.503992579532D+00
 Symmetry B1   KE= 3.219482499503D+00
 Symmetry B2   KE= 7.548570324773D+01
 Symmetry A1   SP=-1.141148719581D-14
 Symmetry A2   SP= 3.763656979524D-16
 Symmetry B1   SP= 1.000000000000D+00
 Symmetry B2   SP=-1.032058104178D-14
                          Isotropic Fermi Contact Couplings
        Atom                 a.u.       MegaHertz       Gauss      10(-4) cm-1
     1  C(13)              0.06313      70.96577      25.32235      23.67163
     2  C(13)             -0.04275     -48.05473     -17.14712     -16.02933
     3  C(13)              0.09587     107.77548      38.45697      35.95003
     4  C(13)             -0.04275     -48.05473     -17.14712     -16.02933
     5  C(13)              0.06313      70.96577      25.32235      23.67163
     6  H(1)              -0.00773     -34.56558     -12.33386     -11.52984
     7  H(1)              -0.00817     -36.50594     -13.02623     -12.17707
     8  H(1)               0.00237      10.60977       3.78583       3.53904
     9  H(1)              -0.01181     -52.79996     -18.84034     -17.61217
    10  H(1)               0.00237      10.60977       3.78583       3.53904
    11  H(1)              -0.00817     -36.50594     -13.02623     -12.17707
 --------------------------------------------------------
       Center         ----  Spin Dipole Couplings  ----
                      3XX-RR        3YY-RR        3ZZ-RR
 --------------------------------------------------------
     1   Atom        0.442902     -0.215540     -0.227363
     2   Atom       -0.158764      0.077651      0.081113
     3   Atom        0.669651     -0.342082     -0.327569
     4   Atom       -0.158764      0.077651      0.081113
     5   Atom        0.442902     -0.215540     -0.227363
     6   Atom       -0.006402      0.007867     -0.001465
     7   Atom       -0.005882      0.005485      0.000397
     8   Atom       -0.006426      0.001050      0.005376
     9   Atom       -0.007872     -0.043775      0.051647
    10   Atom       -0.006426      0.001050      0.005376
    11   Atom       -0.005882      0.005485      0.000397
 --------------------------------------------------------
                        XY            XZ            YZ
 --------------------------------------------------------
     1   Atom       -0.000000      0.000000     -0.007903
     2   Atom       -0.000000      0.000000     -0.006507
     3   Atom       -0.000000     -0.000000     -0.000000
     4   Atom       -0.000000     -0.000000      0.006507
     5   Atom        0.000000      0.000000      0.007903
     6   Atom       -0.000000      0.000000      0.000000
     7   Atom        0.000000      0.000000     -0.032586
     8   Atom       -0.000000      0.000000     -0.005022
     9   Atom       -0.000000     -0.000000      0.000000
    10   Atom        0.000000     -0.000000      0.005022
    11   Atom       -0.000000     -0.000000      0.032586
 --------------------------------------------------------


 ---------------------------------------------------------------------------------
              Anisotropic Spin Dipole Couplings in Principal Axis System
 ---------------------------------------------------------------------------------

       Atom             a.u.   MegaHertz   Gauss  10(-4) cm-1        Axes

              Baa    -0.2313   -31.041   -11.076   -10.354 -0.0000  0.4478  0.8941
     1 C(13)  Bbb    -0.2116   -28.392   -10.131    -9.471 -0.0000  0.8941 -0.4478
              Bcc     0.4429    59.433    21.207    19.825  1.0000  0.0000  0.0000
 
              Baa    -0.1588   -21.305    -7.602    -7.106  1.0000  0.0000  0.0000
     2 C(13)  Bbb     0.0726     9.749     3.479     3.252 -0.0000  0.7928  0.6095
              Bcc     0.0861    11.556     4.123     3.855  0.0000 -0.6095  0.7928
 
              Baa    -0.3421   -45.904   -16.380   -15.312 -0.0000  1.0000 -0.0000
     3 C(13)  Bbb    -0.3276   -43.957   -15.685   -14.662  0.0000  0.0000  1.0000
              Bcc     0.6697    89.861    32.065    29.974  1.0000  0.0000 -0.0000
 
              Baa    -0.1588   -21.305    -7.602    -7.106  1.0000  0.0000  0.0000
     4 C(13)  Bbb     0.0726     9.749     3.479     3.252 -0.0000  0.7928 -0.6095
              Bcc     0.0861    11.556     4.123     3.855 -0.0000  0.6095  0.7928
 
              Baa    -0.2313   -31.041   -11.076   -10.354 -0.0000 -0.4478  0.8941
     5 C(13)  Bbb    -0.2116   -28.392   -10.131    -9.471  0.0000  0.8941  0.4478
              Bcc     0.4429    59.433    21.207    19.825  1.0000 -0.0000  0.0000
 
              Baa    -0.0064    -3.416    -1.219    -1.139  1.0000 -0.0000 -0.0000
     6 H(1)   Bbb    -0.0015    -0.782    -0.279    -0.261  0.0000 -0.0000  1.0000
              Bcc     0.0079     4.198     1.498     1.400 -0.0000  1.0000 -0.0000
 
              Baa    -0.0297   -15.870    -5.663    -5.294 -0.0000  0.6790  0.7341
     7 H(1)   Bbb    -0.0059    -3.138    -1.120    -1.047  1.0000  0.0000  0.0000
              Bcc     0.0356    19.008     6.783     6.340 -0.0000  0.7341 -0.6790
 
              Baa    -0.0064    -3.429    -1.223    -1.144  1.0000  0.0000  0.0000
     8 H(1)   Bbb    -0.0023    -1.203    -0.429    -0.401 -0.0000  0.8353  0.5498
              Bcc     0.0087     4.632     1.653     1.545  0.0000 -0.5498  0.8353
 
              Baa    -0.0438   -23.356    -8.334    -7.791 -0.0000  1.0000 -0.0000
     9 H(1)   Bbb    -0.0079    -4.200    -1.499    -1.401  1.0000  0.0000  0.0000
              Bcc     0.0516    27.556     9.833     9.192  0.0000  0.0000  1.0000
 
              Baa    -0.0064    -3.429    -1.223    -1.144  1.0000 -0.0000  0.0000
    10 H(1)   Bbb    -0.0023    -1.203    -0.429    -0.401  0.0000  0.8353 -0.5498
              Bcc     0.0087     4.632     1.653     1.545  0.0000  0.5498  0.8353
 
              Baa    -0.0297   -15.870    -5.663    -5.294  0.0000 -0.6790  0.7341
    11 H(1)   Bbb    -0.0059    -3.138    -1.120    -1.047  1.0000  0.0000  0.0000
              Bcc     0.0356    19.008     6.783     6.340 -0.0000  0.7341  0.6790
 

 ---------------------------------------------------------------------------------

 No NMR shielding tensors so no spin-rotation constants.
 Leave Link  601 at Tue Feb 25 12:22:44 2020, MaxMem=  6710886400 cpu:               5.8 elap:               0.4
 (Enter /opt/ohpc/pub/libs/gaussian/g16-A.03/haswell/g16/l9999.exe)

 Test job not archived.
 1\1\GINC-HASWELL008\SP\ULC-wHPBE\6-31G\C5H6(1+,2)\SMGO234\25-Feb-2020\
 0\\#P uLC-wHPBE/6-31G iop(3/107=0314500000, 3/108=0314500000) scf=(con
 ver=6,fermi,ndamp=35,noincfock,novaracc,vshift=500,xqc)\\H6 C5\\1,2\C,
 0,0.,0.897082,-0.935245\C,0,0.,1.134094,0.425375\C,0,0.,0.,1.243051\C,
 0,0.,-1.134094,0.425375\C,0,0.,-0.897082,-0.935245\H,0,0.,0.,-1.723356
 \H,0,0.,1.622537,-1.745737\H,0,0.,2.164126,0.77433\H,0,0.,0.,2.326294\
 H,0,0.,-2.164126,0.77433\H,0,0.,-1.622537,-1.745737\\Version=ES64L-G16
 RevA.03\State=2-B1\HF=-193.4683264\S2=0.797518\S2-1=0.\S2A=0.751304\RM
 SD=6.170e-07\Dipole=0.,0.,-0.786802\Quadrupole=-8.0160673,2.4684451,5.
 5476222,0.,0.,0.\PG=C02V [C2(H1C1H1),SGV(C4H4)]\\@


            ARSENIC

 FOR SMELTER FUMES HAVE I BEEN NAMED,
    I AM AN EVIL POISONOUS SMOKE...
 BUT WHEN FROM POISON I AM FREED,
    THROUGH ART AND SLEIGHT OF HAND,
 THEN CAN I CURE BOTH MAN AND BEAST,
    FROM DIRE DISEASE OFTTIMES DIRECT THEM;
 BUT PREPARE ME CORRECTLY, AND TAKE GREAT CARE
    THAT YOU FAITHFULLY KEEP WATCHFUL GUARD OVER ME;
 FOR ELSE I AM POISON, AND POISON REMAIN,
    THAT PIERCES THE HEART OF MANY A ONE.

 ATTRIBUTED TO THE PROBABLY MYTHICAL 15TH
 CENTURY MONK, BASILIUS VALENTINUS
 Job cpu time:       0 days  0 hours  0 minutes 52.5 seconds.
 Elapsed time:       0 days  0 hours  0 minutes  3.8 seconds.
 File lengths (MBytes):  RWF=    272 Int=      0 D2E=      0 Chk=     32 Scr=     32
 Normal termination of Gaussian 16 at Tue Feb 25 12:22:44 2020.
