 Entering Gaussian System, Link 0=g16
 Input=1b_tune_c6.gjf
 Output=1b_tune_c6.log
 Initial command:
 /opt/ohpc/pub/libs/gaussian/g16-A.03/sandybridge/g16/l1.exe "/pscratch/cmri235_uksr/ocelot/fw/dev/ocelot_api/tests/wtuning_test/1b/tuning_1b_ocycle1/Gau-65515.inp" -scrdir="/pscratch/cmri235_uksr/ocelot/fw/dev/ocelot_api/tests/wtuning_test/1b/tuning_1b_ocycle1/"
 Entering Link 1 = /opt/ohpc/pub/libs/gaussian/g16-A.03/sandybridge/g16/l1.exe PID=     65516.
  
 Copyright (c) 1988,1990,1992,1993,1995,1998,2003,2009,2016,
            Gaussian, Inc.  All Rights Reserved.
  
 This is part of the Gaussian(R) 16 program.  It is based on
 the Gaussian(R) 09 system (copyright 2009, Gaussian, Inc.),
 the Gaussian(R) 03 system (copyright 2003, Gaussian, Inc.),
 the Gaussian(R) 98 system (copyright 1998, Gaussian, Inc.),
 the Gaussian(R) 94 system (copyright 1995, Gaussian, Inc.),
 the Gaussian 92(TM) system (copyright 1992, Gaussian, Inc.),
 the Gaussian 90(TM) system (copyright 1990, Gaussian, Inc.),
 the Gaussian 88(TM) system (copyright 1988, Gaussian, Inc.),
 the Gaussian 86(TM) system (copyright 1986, Carnegie Mellon
 University), and the Gaussian 82(TM) system (copyright 1983,
 Carnegie Mellon University). Gaussian is a federally registered
 trademark of Gaussian, Inc.
  
 This software contains proprietary and confidential information,
 including trade secrets, belonging to Gaussian, Inc.
  
 This software is provided under written license and may be
 used, copied, transmitted, or stored only in accord with that
 written license.
  
 The following legend is applicable only to US Government
 contracts under FAR:
  
                    RESTRICTED RIGHTS LEGEND
  
 Use, reproduction and disclosure by the US Government is
 subject to restrictions as set forth in subparagraphs (a)
 and (c) of the Commercial Computer Software - Restricted
 Rights clause in FAR 52.227-19.
  
 Gaussian, Inc.
 340 Quinnipiac St., Bldg. 40, Wallingford CT 06492
  
  
 ---------------------------------------------------------------
 Warning -- This program may not be used in any manner that
 competes with the business of Gaussian, Inc. or will provide
 assistance to any competitor of Gaussian, Inc.  The licensee
 of this program is prohibited from giving any competitor of
 Gaussian, Inc. access to this program.  By using this program,
 the user acknowledges that Gaussian, Inc. is engaged in the
 business of creating and licensing software in the field of
 computational chemistry and represents and warrants to the
 licensee that it is not a competitor of Gaussian, Inc. and that
 it will not use this program in any manner prohibited above.
 ---------------------------------------------------------------
  

 Cite this work as:
 Gaussian 16, Revision A.03,
 M. J. Frisch, G. W. Trucks, H. B. Schlegel, G. E. Scuseria, 
 M. A. Robb, J. R. Cheeseman, G. Scalmani, V. Barone, 
 G. A. Petersson, H. Nakatsuji, X. Li, M. Caricato, A. V. Marenich, 
 J. Bloino, B. G. Janesko, R. Gomperts, B. Mennucci, H. P. Hratchian, 
 J. V. Ortiz, A. F. Izmaylov, J. L. Sonnenberg, D. Williams-Young, 
 F. Ding, F. Lipparini, F. Egidi, J. Goings, B. Peng, A. Petrone, 
 T. Henderson, D. Ranasinghe, V. G. Zakrzewski, J. Gao, N. Rega, 
 G. Zheng, W. Liang, M. Hada, M. Ehara, K. Toyota, R. Fukuda, 
 J. Hasegawa, M. Ishida, T. Nakajima, Y. Honda, O. Kitao, H. Nakai, 
 T. Vreven, K. Throssell, J. A. Montgomery, Jr., J. E. Peralta, 
 F. Ogliaro, M. J. Bearpark, J. J. Heyd, E. N. Brothers, K. N. Kudin, 
 V. N. Staroverov, T. A. Keith, R. Kobayashi, J. Normand, 
 K. Raghavachari, A. P. Rendell, J. C. Burant, S. S. Iyengar, 
 J. Tomasi, M. Cossi, J. M. Millam, M. Klene, C. Adamo, R. Cammi, 
 J. W. Ochterski, R. L. Martin, K. Morokuma, O. Farkas, 
 J. B. Foresman, and D. J. Fox, Gaussian, Inc., Wallingford CT, 2016.
 
 ******************************************
 Gaussian 16:  EM64L-G16RevA.03 25-Dec-2016
                16-Mar-2020 
 ******************************************
 %mem=50GB
 %nproc=16
 Will use up to   16 processors via shared memory.
 ----------------------------------------------------------------------
 #P uLC-wHPBE/6-31G iop(3/107=0313000000, 3/108=0313000000) scf=(conver
 =6,fermi,ndamp=35,noincfock,novaracc,vshift=500,xqc)
 ----------------------------------------------------------------------
 1/38=1,172=1/1;
 2/12=2,17=6,18=5,40=1/2;
 3/5=1,6=6,11=2,25=1,30=1,74=-71,107=313000000,108=313000000,116=2/1,2,3;
 4//1;
 5/5=100002,6=6,8=3,10=500,13=1,18=-1,22=13,38=1,93=35/2,8;
 6/7=2,8=2,9=2,10=2,28=1/1;
 99/5=1,9=1/99;
 Leave Link    1 at Mon Mar 16 03:51:07 2020, MaxMem=  6710886400 cpu:              15.8 elap:               1.1
 (Enter /opt/ohpc/pub/libs/gaussian/g16-A.03/sandybridge/g16/l101.exe)
 -----
 H6 C6
 -----
 Symbolic Z-matrix:
 Charge =  1 Multiplicity = 2
 C                     0.        1.39638   0. 
 C                    -1.2093    0.69819   0. 
 C                    -1.2093   -0.69819   0. 
 C                     0.       -1.39638   0. 
 C                     1.2093   -0.69819   0. 
 C                     1.2093    0.69819   0. 
 H                     0.        2.48461   0. 
 H                    -2.15174   1.24231   0. 
 H                    -2.15174  -1.24231   0. 
 H                     0.       -2.48461   0. 
 H                     2.15174  -1.24231   0. 
 H                     2.15174   1.24231   0. 
 
 ITRead=  0  0  0  0  0  0  0  0  0  0  0  0
 MicOpt= -1 -1 -1 -1 -1 -1 -1 -1 -1 -1 -1 -1
 NAtoms=     12 NQM=       12 NQMF=       0 NMMI=      0 NMMIF=      0
                NMic=       0 NMicF=      0.
                    Isotopes and Nuclear Properties:
 (Nuclear quadrupole moments (NQMom) in fm**2, nuclear magnetic moments (NMagM)
  in nuclear magnetons)

  Atom         1           2           3           4           5           6           7           8           9          10
 IAtWgt=          12          12          12          12          12          12           1           1           1           1
 AtmWgt=  12.0000000  12.0000000  12.0000000  12.0000000  12.0000000  12.0000000   1.0078250   1.0078250   1.0078250   1.0078250
 NucSpn=           0           0           0           0           0           0           1           1           1           1
 AtZEff=  -0.0000000  -0.0000000  -0.0000000  -0.0000000  -0.0000000  -0.0000000  -0.0000000  -0.0000000  -0.0000000  -0.0000000
 NQMom=    0.0000000   0.0000000   0.0000000   0.0000000   0.0000000   0.0000000   0.0000000   0.0000000   0.0000000   0.0000000
 NMagM=    0.0000000   0.0000000   0.0000000   0.0000000   0.0000000   0.0000000   2.7928460   2.7928460   2.7928460   2.7928460
 AtZNuc=   6.0000000   6.0000000   6.0000000   6.0000000   6.0000000   6.0000000   1.0000000   1.0000000   1.0000000   1.0000000

  Atom        11          12
 IAtWgt=           1           1
 AtmWgt=   1.0078250   1.0078250
 NucSpn=           1           1
 AtZEff=  -0.0000000  -0.0000000
 NQMom=    0.0000000   0.0000000
 NMagM=    2.7928460   2.7928460
 AtZNuc=   1.0000000   1.0000000
 Leave Link  101 at Mon Mar 16 03:51:08 2020, MaxMem=  6710886400 cpu:               3.4 elap:               0.2
 (Enter /opt/ohpc/pub/libs/gaussian/g16-A.03/sandybridge/g16/l202.exe)
                          Input orientation:                          
 ---------------------------------------------------------------------
 Center     Atomic      Atomic             Coordinates (Angstroms)
 Number     Number       Type             X           Y           Z
 ---------------------------------------------------------------------
      1          6           0        0.000000    1.396379    0.000000
      2          6           0       -1.209300    0.698190    0.000000
      3          6           0       -1.209300   -0.698190    0.000000
      4          6           0        0.000000   -1.396379    0.000000
      5          6           0        1.209300   -0.698190    0.000000
      6          6           0        1.209300    0.698190    0.000000
      7          1           0        0.000000    2.484613    0.000000
      8          1           0       -2.151738    1.242306    0.000000
      9          1           0       -2.151738   -1.242306    0.000000
     10          1           0        0.000000   -2.484613    0.000000
     11          1           0        2.151738   -1.242306    0.000000
     12          1           0        2.151738    1.242306    0.000000
 ---------------------------------------------------------------------
                    Distance matrix (angstroms):
                    1          2          3          4          5
     1  C    0.000000
     2  C    1.396379   0.000000
     3  C    2.418600   1.396380   0.000000
     4  C    2.792758   2.418600   1.396379   0.000000
     5  C    2.418600   2.792759   2.418600   1.396379   0.000000
     6  C    1.396379   2.418600   2.792759   2.418600   1.396380
     7  H    1.088234   2.157247   3.404797   3.880992   3.404797
     8  H    2.157247   1.088233   2.157247   3.404796   3.880992
     9  H    3.404796   2.157247   1.088233   2.157247   3.404796
    10  H    3.880992   3.404797   2.157247   1.088234   2.157247
    11  H    3.404796   3.880992   3.404796   2.157247   1.088233
    12  H    2.157247   3.404796   3.880992   3.404796   2.157247
                    6          7          8          9         10
     6  C    0.000000
     7  H    2.157247   0.000000
     8  H    3.404796   2.484613   0.000000
     9  H    3.880992   4.303476   2.484612   0.000000
    10  H    3.404797   4.969226   4.303476   2.484613   0.000000
    11  H    2.157247   4.303476   4.969226   4.303476   2.484613
    12  H    1.088233   2.484613   4.303476   4.969226   4.303476
                   11         12
    11  H    0.000000
    12  H    2.484612   0.000000
 Stoichiometry    C6H6(1+,2)
 Framework group  D6H[3C2'(HC.CH)]
 Deg. of freedom     2
 Full point group                 D6H     NOp  24
 Largest Abelian subgroup         D2H     NOp   8
 Largest concise Abelian subgroup D2      NOp   4
                         Standard orientation:                         
 ---------------------------------------------------------------------
 Center     Atomic      Atomic             Coordinates (Angstroms)
 Number     Number       Type             X           Y           Z
 ---------------------------------------------------------------------
      1          6           0       -0.000000    1.396379   -0.000000
      2          6           0       -1.209300    0.698190   -0.000000
      3          6           0       -1.209300   -0.698189   -0.000000
      4          6           0       -0.000000   -1.396379   -0.000000
      5          6           0        1.209300   -0.698190   -0.000000
      6          6           0        1.209300    0.698189   -0.000000
      7          1           0       -0.000000    2.484613   -0.000000
      8          1           0       -2.151738    1.242307   -0.000000
      9          1           0       -2.151738   -1.242307   -0.000000
     10          1           0       -0.000000   -2.484613   -0.000000
     11          1           0        2.151738   -1.242307   -0.000000
     12          1           0        2.151738    1.242306   -0.000000
 ---------------------------------------------------------------------
 Rotational constants (GHZ):           5.6873431           5.6873431           2.8436715
 Leave Link  202 at Mon Mar 16 03:51:08 2020, MaxMem=  6710886400 cpu:               0.4 elap:               0.0
 (Enter /opt/ohpc/pub/libs/gaussian/g16-A.03/sandybridge/g16/l301.exe)
 Standard basis: 6-31G (6D, 7F)
 Ernie: Thresh=  0.10000D-02 Tol=  0.10000D-05 Strict=F.
 There are    16 symmetry adapted cartesian basis functions of AG  symmetry.
 There are    11 symmetry adapted cartesian basis functions of B1G symmetry.
 There are     2 symmetry adapted cartesian basis functions of B2G symmetry.
 There are     4 symmetry adapted cartesian basis functions of B3G symmetry.
 There are     2 symmetry adapted cartesian basis functions of AU  symmetry.
 There are     4 symmetry adapted cartesian basis functions of B1U symmetry.
 There are    16 symmetry adapted cartesian basis functions of B2U symmetry.
 There are    11 symmetry adapted cartesian basis functions of B3U symmetry.
 There are    16 symmetry adapted basis functions of AG  symmetry.
 There are    11 symmetry adapted basis functions of B1G symmetry.
 There are     2 symmetry adapted basis functions of B2G symmetry.
 There are     4 symmetry adapted basis functions of B3G symmetry.
 There are     2 symmetry adapted basis functions of AU  symmetry.
 There are     4 symmetry adapted basis functions of B1U symmetry.
 There are    16 symmetry adapted basis functions of B2U symmetry.
 There are    11 symmetry adapted basis functions of B3U symmetry.
    66 basis functions,   156 primitive gaussians,    66 cartesian basis functions
    21 alpha electrons       20 beta electrons
       nuclear repulsion energy       203.1815835396 Hartrees.
 IExCor=33909 DFT=T Ex+Corr=LC-wHPBE ExCW=0 ScaHFX=  1.000000
 ScaDFX=  1.000000  1.000000  1.000000  1.000000 ScalE2=  1.000000  1.000000
 IRadAn=      5 IRanWt=     -1 IRanGd=            0 ICorTp=0 IEmpDi=  4
 HFx  wShort=  0.000000 wLong=  0.313000 cFull=  0.000000 cShort=  0.000000 cLong=  1.000000
 DFx  wShort=  0.000000 wLong=  0.313000 cFull=  0.000000 cShort=  1.000000 cLong=  0.000000
 NAtoms=   12 NActive=   12 NUniq=    2 SFac= 4.00D+00 NAtFMM=   60 NAOKFM=F Big=F
 Integral buffers will be    131072 words long.
 Raffenetti 2 integral format.
 Two-electron integral symmetry is turned on.
 Leave Link  301 at Mon Mar 16 03:51:08 2020, MaxMem=  6710886400 cpu:               1.1 elap:               0.1
 (Enter /opt/ohpc/pub/libs/gaussian/g16-A.03/sandybridge/g16/l302.exe)
 NPDir=0 NMtPBC=     1 NCelOv=     1 NCel=       1 NClECP=     1 NCelD=      1
         NCelK=      1 NCelE2=     1 NClLst=     1 CellRange=     0.0.
 One-electron integrals computed using PRISM.
 One-electron integral symmetry used in STVInt
 NBasis=    66 RedAO= T EigKep=  7.02D-04  NBF=    16    11     2     4     2     4    16    11
 NBsUse=    66 1.00D-06 EigRej= -1.00D+00 NBFU=    16    11     2     4     2     4    16    11
 Precomputing XC quadrature grid using
 IXCGrd= 4 IRadAn=           5 IRanWt=          -1 IRanGd=           0 AccXCQ= 0.00D+00.
 Generated NRdTot=       0 NPtTot=           0 NUsed=           0 NTot=          32
 NSgBfM=    66    66    66    66    66 MxSgAt=    12 MxSgA2=    12.
 Leave Link  302 at Mon Mar 16 03:51:08 2020, MaxMem=  6710886400 cpu:               2.4 elap:               0.2
 (Enter /opt/ohpc/pub/libs/gaussian/g16-A.03/sandybridge/g16/l303.exe)
 DipDrv:  MaxL=1.
 Leave Link  303 at Mon Mar 16 03:51:08 2020, MaxMem=  6710886400 cpu:               1.0 elap:               0.1
 (Enter /opt/ohpc/pub/libs/gaussian/g16-A.03/sandybridge/g16/l401.exe)
 ExpMin= 1.61D-01 ExpMax= 3.05D+03 ExpMxC= 4.57D+02 IAcc=3 IRadAn=         5 AccDes= 0.00D+00
 Harris functional with IExCor=33909 and IRadAn=       5 diagonalized for initial guess.
 HarFok:  IExCor=33909 AccDes= 0.00D+00 IRadAn=         5 IDoV= 1 UseB2=F ITyADJ=14
 ICtDFT=  3500011 ScaDFX=  1.000000  1.000000  1.000000  1.000000
 FoFCou: FMM=F IPFlag=           0 FMFlag=      100000 FMFlg1=           0
         NFxFlg=           0 DoJE=T BraDBF=F KetDBF=T FulRan=T
         wScrn=  0.000000 ICntrl=       500 IOpCl=  0 I1Cent=   200000004 NGrid=           0
         NMat0=    1 NMatS0=      1 NMatT0=    0 NMatD0=    1 NMtDS0=    0 NMtDT0=    0
 Petite list used in FoFCou.
 Harris En= -225.124915202685    
 JPrj=0 DoOrth=F DoCkMO=F.
 Initial guess orbital symmetries:
 Alpha Orbitals:
       Occupied  (A1G) (E1U) (E1U) (E2G) (E2G) (B1U) (A1G) (E1U)
                 (E1U) (E2G) (E2G) (A1G) (B2U) (B1U) (E1U) (E1U)
                 (A2U) (E2G) (E2G) (E1G) (E1G)
       Virtual   (E2U) (E2U) (A1G) (B2G) (E1U) (E1U) (E2G) (E2G)
                 (B1U) (E2G) (E2G) (E1U) (E1U) (B2U) (A2U) (B1U)
                 (A2G) (A1G) (E2G) (E2G) (E1G) (E1G) (A1G) (E1U)
                 (E1U) (E2U) (E2U) (B2G) (B1U) (E2G) (E2G) (E1U)
                 (E1U) (A2G) (A1G) (E1U) (E1U) (E2G) (E2G) (E1U)
                 (E1U) (B1U) (E2G) (E2G) (B1U)
 Beta  Orbitals:
       Occupied  (A1G) (E1U) (E1U) (E2G) (E2G) (B1U) (A1G) (E1U)
                 (E1U) (E2G) (E2G) (A1G) (B2U) (B1U) (E1U) (E1U)
                 (A2U) (E2G) (E2G) (E1G)
       Virtual   (E1G) (E2U) (E2U) (A1G) (B2G) (E1U) (E1U) (E2G)
                 (E2G) (B1U) (E2G) (E2G) (E1U) (E1U) (B2U) (A2U)
                 (B1U) (A2G) (A1G) (E2G) (E2G) (E1G) (E1G) (A1G)
                 (E1U) (E1U) (E2U) (E2U) (B2G) (B1U) (E2G) (E2G)
                 (E1U) (E1U) (A2G) (A1G) (E1U) (E1U) (E2G) (E2G)
                 (E1U) (E1U) (B1U) (E2G) (E2G) (B1U)
 Initial guess <Sx>= 0.0000 <Sy>= 0.0000 <Sz>= 0.5000 <S**2>= 0.7500 S= 0.5000
 Leave Link  401 at Mon Mar 16 03:51:08 2020, MaxMem=  6710886400 cpu:               2.9 elap:               0.2
 (Enter /opt/ohpc/pub/libs/gaussian/g16-A.03/sandybridge/g16/l502.exe)
 Keep R1 and R2 ints in memory in symmetry-blocked form, NReq=19109854.
 FoFCou: FMM=F IPFlag=           0 FMFlag=           0 FMFlg1=           0
         NFxFlg=           0 DoJE=F BraDBF=F KetDBF=F FulRan=T
         wScrn=  0.000000 ICntrl=       600 IOpCl=  0 I1Cent=           0 NGrid=           0
         NMat0=    1 NMatS0=   2211 NMatT0=    0 NMatD0=    1 NMtDS0=    0 NMtDT0=    0
 Petite list used in FoFCou.
 UHF open shell SCF:
 Using DIIS extrapolation, IDIIS=    10.
 NGot=  6710886400 LenX=  6710146038 LenY=  6710141241
 Requested convergence on RMS density matrix=1.00D-06 within  32 cycles.
 Requested convergence on MAX density matrix=1.00D-04.
 Requested convergence on             energy=1.00D-04.
 Virtual orbitals will be shifted by   0.500 hartree.
 No special actions if energy rises.
 Dynamic level shift is on during FON iterations.

 Cycle   1  Pass 1  IDiag  1:
 Density matrix breaks symmetry, PCut= 1.00D-04
 Density has only Abelian symmetry.
 E= -231.645597897363    
 DIIS: error= 1.70D-02 at cycle   1 NSaved=   1.
 NSaved= 1 IEnMin= 1 EnMin= -231.645597897363     IErMin= 1 ErrMin= 1.70D-02
 ErrMax= 1.70D-02  0.00D+00 EMaxC= 1.00D+00 BMatC= 7.06D-02 BMatP= 7.06D-02
 IDIUse=1 WtCom= 1.00D+00 WtEn= 0.00D+00
 Coeff-Com:  0.100D+01
 Coeff:      0.100D+01
 Gap=     0.384 Goal=   None    Shift=    0.500
 T= 1154. Gap= 0.885 NK=0 IS=   22 IE=   66 IFin=   21
          NO(<0.9)=   0  NV(>0.1)=   0     21.00e < EF      0.00e >EF  Err=0.0D+00
 Gap=     0.198 Goal=   None    Shift=    0.500
 T= 1154. Gap= 0.697 NK=0 IS=   21 IE=   66 IFin=   20
          NO(<0.9)=   0  NV(>0.1)=   0     20.00e < EF      0.00e >EF  Err=0.0D+00
 GapD=    0.198 DampG=1.000 DampE=0.500 DampFc=0.5000 IDamp=-1.
 Damping current iteration by 5.00D-01
 RMSDP=3.25D-03 MaxDP=2.90D-02              OVMax= 3.49D-02

 Cycle   2  Pass 1  IDiag  1:
 Density matrix breaks symmetry, PCut= 1.00D-04
 Density has only Abelian symmetry.
 E= -231.656920694041     Delta-E=       -0.011322796678 Rises=F Damp=T
 DIIS: error= 9.94D-03 at cycle   2 NSaved=   2.
 NSaved= 2 IEnMin= 2 EnMin= -231.656920694041     IErMin= 2 ErrMin= 9.94D-03
 ErrMax= 9.94D-03  0.00D+00 EMaxC= 1.00D+00 BMatC= 1.72D-02 BMatP= 7.06D-02
 IDIUse=1 WtCom= 1.00D+00 WtEn= 0.00D+00
 Coeff-Com: -0.826D+00 0.183D+01
 Coeff:     -0.826D+00 0.183D+01
 Gap=     0.403 Goal=   None    Shift=    0.500
 T= 1065. Gap= 0.903 NK=0 IS=   22 IE=   66 IFin=   21
          NO(<0.9)=   0  NV(>0.1)=   0     21.00e < EF      0.00e >EF  Err=0.0D+00
 Gap=     0.221 Goal=   None    Shift=    0.500
 T= 1065. Gap= 0.721 NK=0 IS=   21 IE=   66 IFin=   20
          NO(<0.9)=   0  NV(>0.1)=   0     20.00e < EF      0.00e >EF  Err=0.0D+00
 GapD=    0.221 DampG=1.000 DampE=1.000 DampFc=1.0000 IDamp=-1.
 RMSDP=2.34D-03 MaxDP=1.66D-02 DE=-1.13D-02 OVMax= 1.68D-02

 Cycle   3  Pass 1  IDiag  1:
 Density matrix breaks symmetry, PCut= 1.00D-04
 Density has only Abelian symmetry.
 E= -231.666323795044     Delta-E=       -0.009403101003 Rises=F Damp=F
 DIIS: error= 5.45D-03 at cycle   3 NSaved=   3.
 NSaved= 3 IEnMin= 3 EnMin= -231.666323795044     IErMin= 3 ErrMin= 5.45D-03
 ErrMax= 5.45D-03  0.00D+00 EMaxC= 1.00D+00 BMatC= 7.76D-04 BMatP= 1.72D-02
 IDIUse=1 WtCom= 1.00D+00 WtEn= 0.00D+00
 Coeff-Com:  0.151D+00-0.338D+00 0.119D+01
 Coeff:      0.151D+00-0.338D+00 0.119D+01
 Gap=     0.398 Goal=   None    Shift=    0.500
 T=  882. Gap= 0.898 NK=0 IS=   22 IE=   66 IFin=   21
          NO(<0.9)=   0  NV(>0.1)=   0     21.00e < EF      0.00e >EF  Err=0.0D+00
 Gap=     0.221 Goal=   None    Shift=    0.500
 T=  882. Gap= 0.721 NK=0 IS=   21 IE=   66 IFin=   20
          NO(<0.9)=   0  NV(>0.1)=   0     20.00e < EF      0.00e >EF  Err=0.0D+00
 GapD=    0.221 DampG=1.000 DampE=1.000 DampFc=1.0000 IDamp=-1.
 RMSDP=4.04D-04 MaxDP=3.49D-03 DE=-9.40D-03 OVMax= 1.12D-02

 Cycle   4  Pass 1  IDiag  1:
 Density matrix breaks symmetry, PCut= 1.00D-04
 Density has only Abelian symmetry.
 E= -231.666913729250     Delta-E=       -0.000589934206 Rises=F Damp=F
 DIIS: error= 4.30D-03 at cycle   4 NSaved=   4.
 NSaved= 4 IEnMin= 4 EnMin= -231.666913729250     IErMin= 4 ErrMin= 4.30D-03
 ErrMax= 4.30D-03  0.00D+00 EMaxC= 1.00D+00 BMatC= 3.77D-04 BMatP= 7.76D-04
 IDIUse=1 WtCom= 1.00D+00 WtEn= 0.00D+00
 Coeff-Com:  0.124D+00-0.278D+00-0.638D+00 0.179D+01
 Coeff:      0.124D+00-0.278D+00-0.638D+00 0.179D+01
 Gap=     0.396 Goal=   None    Shift=    0.500
 T=  584. Gap= 0.896 NK=0 IS=   22 IE=   66 IFin=   21
          NO(<0.9)=   0  NV(>0.1)=   0     21.00e < EF      0.00e >EF  Err=0.0D+00
 Gap=     0.226 Goal=   None    Shift=    0.500
 T=  584. Gap= 0.726 NK=0 IS=   21 IE=   66 IFin=   20
          NO(<0.9)=   0  NV(>0.1)=   0     20.00e < EF      0.00e >EF  Err=0.0D+00
 GapD=    0.226 DampG=1.000 DampE=1.000 DampFc=1.0000 IDamp=-1.
 RMSDP=2.87D-04 MaxDP=3.61D-03 DE=-5.90D-04 OVMax= 1.17D-02

 Cycle   5  Pass 1  IDiag  1:
 Density matrix breaks symmetry, PCut= 1.00D-04
 Density has only Abelian symmetry.
 E= -231.667304757486     Delta-E=       -0.000391028236 Rises=F Damp=F
 DIIS: error= 2.66D-03 at cycle   5 NSaved=   5.
 NSaved= 5 IEnMin= 5 EnMin= -231.667304757486     IErMin= 5 ErrMin= 2.66D-03
 ErrMax= 2.66D-03  0.00D+00 EMaxC= 1.00D+00 BMatC= 1.58D-04 BMatP= 3.77D-04
 IDIUse=1 WtCom= 1.00D+00 WtEn= 0.00D+00
 Coeff-Com: -0.127D+00 0.278D+00-0.526D+00-0.101D+01 0.239D+01
 Coeff:     -0.127D+00 0.278D+00-0.526D+00-0.101D+01 0.239D+01
 Gap=     0.393 Goal=   None    Shift=    0.500
 T=  307. Gap= 0.893 NK=0 IS=   22 IE=   66 IFin=   21
          NO(<0.9)=   0  NV(>0.1)=   0     21.00e < EF      0.00e >EF  Err=0.0D+00
 Gap=     0.229 Goal=   None    Shift=    0.500
 T=  307. Gap= 0.729 NK=0 IS=   21 IE=   66 IFin=   20
          NO(<0.9)=   0  NV(>0.1)=   0     20.00e < EF      0.00e >EF  Err=0.0D+00
 GapD=    0.229 DampG=1.000 DampE=1.000 DampFc=1.0000 IDamp=-1.
 RMSDP=2.35D-04 MaxDP=3.59D-03 DE=-3.91D-04 OVMax= 1.04D-02

 Cycle   6  Pass 1  IDiag  1:
 Density matrix breaks symmetry, PCut= 1.00D-04
 Density has only Abelian symmetry.
 E= -231.667529220087     Delta-E=       -0.000224462601 Rises=F Damp=F
 DIIS: error= 1.46D-03 at cycle   6 NSaved=   6.
 NSaved= 6 IEnMin= 6 EnMin= -231.667529220087     IErMin= 6 ErrMin= 1.46D-03
 ErrMax= 1.46D-03  0.00D+00 EMaxC= 1.00D+00 BMatC= 4.49D-05 BMatP= 1.58D-04
 IDIUse=1 WtCom= 1.00D+00 WtEn= 0.00D+00
 Coeff-Com:  0.191D-01-0.384D-01 0.182D+00-0.406D-01-0.139D+01 0.227D+01
 Coeff:      0.191D-01-0.384D-01 0.182D+00-0.406D-01-0.139D+01 0.227D+01
 Gap=     0.392 Goal=   None    Shift=    0.500
 T=   74. Gap= 0.892 NK=0 IS=   22 IE=   66 IFin=   21
          NO(<0.9)=   0  NV(>0.1)=   0     21.00e < EF      0.00e >EF  Err=0.0D+00
 Gap=     0.229 Goal=   None    Shift=    0.500
 T=   74. Gap= 0.729 NK=0 IS=   21 IE=   66 IFin=   20
          NO(<0.9)=   0  NV(>0.1)=   0     20.00e < EF      0.00e >EF  Err=0.0D+00
 GapD=    0.229 DampG=1.000 DampE=1.000 DampFc=1.0000 IDamp=-1.
 RMSDP=1.28D-04 MaxDP=2.19D-03 DE=-2.24D-04 OVMax= 5.96D-03

 Cycle   7  Pass 1  IDiag  1:
 Density matrix breaks symmetry, PCut= 1.00D-04
 Density has only Abelian symmetry.
 E= -231.667596380885     Delta-E=       -0.000067160798 Rises=F Damp=F
 DIIS: error= 7.58D-04 at cycle   7 NSaved=   7.
 NSaved= 7 IEnMin= 7 EnMin= -231.667596380885     IErMin= 7 ErrMin= 7.58D-04
 ErrMax= 7.58D-04  0.00D+00 EMaxC= 1.00D+00 BMatC= 1.25D-05 BMatP= 4.49D-05
 IDIUse=1 WtCom= 1.00D+00 WtEn= 0.00D+00
 Coeff-Com: -0.235D-01 0.485D-01-0.191D+00-0.406D-01 0.155D+01-0.399D+01
 Coeff-Com:  0.365D+01
 Coeff:     -0.235D-01 0.485D-01-0.191D+00-0.406D-01 0.155D+01-0.399D+01
 Coeff:      0.365D+01
 Gap=     0.392 Goal=   None    Shift=    0.500
 Gap=     0.230 Goal=   None    Shift=    0.500
 RMSDP=6.64D-05 MaxDP=1.14D-03 DE=-6.72D-05 OVMax= 3.20D-03

 Cycle   8  Pass 1  IDiag  1:
 Density matrix breaks symmetry, PCut= 1.00D-04
 Density has only Abelian symmetry.
 E= -231.667614434818     Delta-E=       -0.000018053933 Rises=F Damp=F
 DIIS: error= 3.86D-04 at cycle   8 NSaved=   8.
 NSaved= 8 IEnMin= 8 EnMin= -231.667614434818     IErMin= 8 ErrMin= 3.86D-04
 ErrMax= 3.86D-04  0.00D+00 EMaxC= 1.00D+00 BMatC= 3.19D-06 BMatP= 1.25D-05
 IDIUse=1 WtCom= 1.00D+00 WtEn= 0.00D+00
 Coeff-Com:  0.585D-02-0.106D-01 0.441D-01-0.254D-01-0.440D+00 0.164D+01
 Coeff-Com: -0.317D+01 0.296D+01
 Coeff:      0.585D-02-0.106D-01 0.441D-01-0.254D-01-0.440D+00 0.164D+01
 Coeff:     -0.317D+01 0.296D+01
 Gap=     0.392 Goal=   None    Shift=    0.500
 Gap=     0.230 Goal=   None    Shift=    0.500
 RMSDP=3.20D-05 MaxDP=5.14D-04 DE=-1.81D-05 OVMax= 1.63D-03

 Cycle   9  Pass 1  IDiag  1:
 Density matrix breaks symmetry, PCut= 1.00D-04
 Density has only Abelian symmetry.
 E= -231.667618787360     Delta-E=       -0.000004352542 Rises=F Damp=F
 DIIS: error= 1.91D-04 at cycle   9 NSaved=   9.
 NSaved= 9 IEnMin= 9 EnMin= -231.667618787360     IErMin= 9 ErrMin= 1.91D-04
 ErrMax= 1.91D-04  0.00D+00 EMaxC= 1.00D+00 BMatC= 7.27D-07 BMatP= 3.19D-06
 IDIUse=1 WtCom= 1.00D+00 WtEn= 0.00D+00
 Coeff-Com: -0.463D-02 0.886D-02-0.287D-01-0.138D-02 0.287D+00-0.101D+01
 Coeff-Com:  0.199D+01-0.323D+01 0.298D+01
 Coeff:     -0.463D-02 0.886D-02-0.287D-01-0.138D-02 0.287D+00-0.101D+01
 Coeff:      0.199D+01-0.323D+01 0.298D+01
 Gap=     0.392 Goal=   None    Shift=    0.500
 Gap=     0.230 Goal=   None    Shift=    0.500
 RMSDP=1.49D-05 MaxDP=2.40D-04 DE=-4.35D-06 OVMax= 7.96D-04

 Cycle  10  Pass 1  IDiag  1:
 Density matrix breaks symmetry, PCut= 1.00D-04
 Density has only Abelian symmetry.
 E= -231.667619770306     Delta-E=       -0.000000982945 Rises=F Damp=F
 DIIS: error= 9.40D-05 at cycle  10 NSaved=  10.
 NSaved=10 IEnMin=10 EnMin= -231.667619770306     IErMin=10 ErrMin= 9.40D-05
 ErrMax= 9.40D-05  0.00D+00 EMaxC= 1.00D+00 BMatC= 1.61D-07 BMatP= 7.27D-07
 IDIUse=1 WtCom= 1.00D+00 WtEn= 0.00D+00
 Coeff-Com:  0.186D-02-0.338D-02 0.104D-01-0.643D-02-0.968D-01 0.388D+00
 Coeff-Com: -0.864D+00 0.159D+01-0.277D+01 0.276D+01
 Coeff:      0.186D-02-0.338D-02 0.104D-01-0.643D-02-0.968D-01 0.388D+00
 Coeff:     -0.864D+00 0.159D+01-0.277D+01 0.276D+01
 Gap=     0.392 Goal=   None    Shift=    0.500
 Gap=     0.230 Goal=   None    Shift=    0.500
 RMSDP=6.94D-06 MaxDP=1.13D-04 DE=-9.83D-07 OVMax= 3.85D-04

 Cycle  11  Pass 1  IDiag  1:
 Density matrix breaks symmetry, PCut= 1.00D-04
 Density has only Abelian symmetry.
 E= -231.667619986527     Delta-E=       -0.000000216221 Rises=F Damp=F
 DIIS: error= 4.60D-05 at cycle  11 NSaved=  11.
 NSaved=11 IEnMin=11 EnMin= -231.667619986527     IErMin=11 ErrMin= 4.60D-05
 ErrMax= 4.60D-05  0.00D+00 EMaxC= 1.00D+00 BMatC= 3.49D-08 BMatP= 1.61D-07
 IDIUse=1 WtCom= 1.00D+00 WtEn= 0.00D+00
 Coeff-Com: -0.502D-03 0.939D-03-0.225D-02 0.631D-03 0.167D-01-0.660D-01
 Coeff-Com:  0.157D+00-0.379D+00 0.925D+00-0.218D+01 0.253D+01
 Coeff:     -0.502D-03 0.939D-03-0.225D-02 0.631D-03 0.167D-01-0.660D-01
 Coeff:      0.157D+00-0.379D+00 0.925D+00-0.218D+01 0.253D+01
 Gap=     0.392 Goal=   None    Shift=    0.500
 Gap=     0.230 Goal=   None    Shift=    0.500
 RMSDP=3.21D-06 MaxDP=5.22D-05 DE=-2.16D-07 OVMax= 1.85D-04

 Cycle  12  Pass 1  IDiag  1:
 Density matrix breaks symmetry, PCut= 1.00D-04
 Density has only Abelian symmetry.
 E= -231.667620033538     Delta-E=       -0.000000047011 Rises=F Damp=F
 DIIS: error= 2.28D-05 at cycle  12 NSaved=  12.
 NSaved=12 IEnMin=12 EnMin= -231.667620033538     IErMin=12 ErrMin= 2.28D-05
 ErrMax= 2.28D-05  0.00D+00 EMaxC= 1.00D+00 BMatC= 7.75D-09 BMatP= 3.49D-08
 IDIUse=1 WtCom= 1.00D+00 WtEn= 0.00D+00
 Coeff-Com: -0.195D-03 0.401D-03-0.133D-02-0.926D-03 0.172D-01-0.570D-01
 Coeff-Com:  0.115D+00-0.176D+00 0.135D+00 0.490D+00-0.233D+01 0.281D+01
 Coeff:     -0.195D-03 0.401D-03-0.133D-02-0.926D-03 0.172D-01-0.570D-01
 Coeff:      0.115D+00-0.176D+00 0.135D+00 0.490D+00-0.233D+01 0.281D+01
 Gap=     0.392 Goal=   None    Shift=    0.500
 Gap=     0.230 Goal=   None    Shift=    0.500
 RMSDP=1.47D-06 MaxDP=2.40D-05 DE=-4.70D-08 OVMax= 9.01D-05

 Cycle  13  Pass 1  IDiag  1:
 Density matrix breaks symmetry, PCut= 1.00D-04
 Density has only Abelian symmetry.
 E= -231.667620043896     Delta-E=       -0.000000010358 Rises=F Damp=F
 DIIS: error= 1.12D-05 at cycle  13 NSaved=  13.
 NSaved=13 IEnMin=13 EnMin= -231.667620043896     IErMin=13 ErrMin= 1.12D-05
 ErrMax= 1.12D-05  0.00D+00 EMaxC= 1.00D+00 BMatC= 1.72D-09 BMatP= 7.75D-09
 IDIUse=1 WtCom= 1.00D+00 WtEn= 0.00D+00
 Coeff-Com:  0.121D-03-0.239D-03 0.778D-03 0.214D-04-0.829D-02 0.286D-01
 Coeff-Com: -0.573D-01 0.876D-01-0.756D-01-0.218D+00 0.131D+01-0.319D+01
 Coeff-Com:  0.313D+01
 Coeff:      0.121D-03-0.239D-03 0.778D-03 0.214D-04-0.829D-02 0.286D-01
 Coeff:     -0.573D-01 0.876D-01-0.756D-01-0.218D+00 0.131D+01-0.319D+01
 Coeff:      0.313D+01
 Gap=     0.392 Goal=   None    Shift=    0.500
 Gap=     0.230 Goal=   None    Shift=    0.500
 RMSDP=6.76D-07 MaxDP=1.11D-05 DE=-1.04D-08 OVMax= 4.36D-05

 Density matrix breaks symmetry, PCut= 1.00D-04
 Density has only Abelian symmetry.
 SCF Done:  E(ULC-wHPBE) =  -231.667620044     A.U. after   13 cycles
            NFock= 13  Conv=0.68D-06     -V/T= 2.0048
 <Sx>= 0.0000 <Sy>= 0.0000 <Sz>= 0.5000 <S**2>= 0.7764 S= 0.5131
 <L.S>= 0.000000000000E+00
 KE= 2.305582685025D+02 PE=-9.341542575680D+02 EE= 2.687467854820D+02
 Annihilation of the first spin contaminant:
 S**2 before annihilation     0.7764,   after     0.7503
 Leave Link  502 at Mon Mar 16 03:51:09 2020, MaxMem=  6710886400 cpu:              17.4 elap:               1.1
 (Enter /opt/ohpc/pub/libs/gaussian/g16-A.03/sandybridge/g16/l508.exe)
 QCSCF skips out because SCF is already converged.
 Leave Link  508 at Mon Mar 16 03:51:09 2020, MaxMem=  6710886400 cpu:               0.1 elap:               0.0
 (Enter /opt/ohpc/pub/libs/gaussian/g16-A.03/sandybridge/g16/l601.exe)
 Copying SCF densities to generalized density rwf, IOpCl= 1 IROHF=0.
 SCF density gives NOpUse=  8 NOpAll= 24.
 Marking SCF density as not fully symmetric.

 **********************************************************************

            Population analysis using the SCF density.

 **********************************************************************

 Orbital symmetries:
 Alpha Orbitals:
       Occupied  (?A) (?A) (?A) (?A) (?A) (?A) (?B) (?B) (?B) (?B)
                 (?B) (?B) (?B) (?B) (?B) (?B) (?C) (?B) (?B) (?C)
                 (?C)
       Virtual   (?C) (?C) (?B) (?C) (?B) (?B) (?B) (?B) (?B) (?B)
                 (?B) (?B) (?B) (?B) (?C) (?B) (?B) (?B) (?C) (?C)
                 (?B) (?B) (?B) (?C) (?B) (?B) (?C) (?C) (?B) (?B)
                 (?B) (?B) (?B) (?B) (?B) (?B) (?B) (?B) (?B) (?B)
                 (?B) (?B) (?B) (?B) (?B)
 Beta  Orbitals:
       Occupied  (?A) (?A) (?A) (?A) (?A) (?A) (?B) (B2G) (B2G)
                 (?B) (?B) (?B) (B2G) (B2G) (B2G) (B2G) (?C) (?B)
                 (?B) (?D)
       Virtual   (?D) (?C) (?C) (?D) (?D) (B2G) (B2G) (?D) (?D)
                 (B2G) (?D) (?D) (B2G) (B2G) (B2G) (?C) (B2G) (?D)
                 (?D) (?D) (?D) (?D) (?D) (?D) (B2G) (B2G) (?C)
                 (?C) (?D) (B2G) (?A) (?A) (B2G) (B2G) (?A) (?D)
                 (B2G) (B2G) (?D) (?D) (B2G) (B2G) (B2G) (E2G)
                 (E2G) (B1U)
 Unable to determine electronic state:  an orbital has unidentified symmetry.
 Alpha  occ. eigenvalues --  -10.33186 -10.33183 -10.33160 -10.33156 -10.29391
 Alpha  occ. eigenvalues --  -10.29387  -1.21404  -1.10957  -1.08314  -0.94183
 Alpha  occ. eigenvalues --   -0.94168  -0.85815  -0.78918  -0.77942  -0.75946
 Alpha  occ. eigenvalues --   -0.73867  -0.72767  -0.66446  -0.66145  -0.61169
 Alpha  occ. eigenvalues --   -0.57164
 Alpha virt. eigenvalues --   -0.17944  -0.14447  -0.00769   0.01582   0.04386
 Alpha virt. eigenvalues --    0.05511   0.07805   0.08889   0.10372   0.17828
 Alpha virt. eigenvalues --    0.18336   0.19008   0.19584   0.38016   0.38751
 Alpha virt. eigenvalues --    0.40825   0.43589   0.43644   0.46852   0.49117
 Alpha virt. eigenvalues --    0.49217   0.49753   0.52628   0.53234   0.53808
 Alpha virt. eigenvalues --    0.54258   0.55252   0.62487   0.72468   0.74002
 Alpha virt. eigenvalues --    0.75397   0.78372   0.80052   0.85752   0.85778
 Alpha virt. eigenvalues --    0.88113   0.88121   1.00101   1.01701   1.06069
 Alpha virt. eigenvalues --    1.07029   1.11287   1.33578   1.33834   1.78881
  Beta  occ. eigenvalues --  -10.32715 -10.32715 -10.32695 -10.32690 -10.29593
  Beta  occ. eigenvalues --  -10.29589  -1.20254  -1.08659  -1.08114  -0.93638
  Beta  occ. eigenvalues --   -0.93222  -0.85510  -0.78443  -0.77495  -0.75403
  Beta  occ. eigenvalues --   -0.73883  -0.67793  -0.66228  -0.65854  -0.57019
  Beta virt. eigenvalues --   -0.34059  -0.12648  -0.12582  -0.00577   0.03879
  Beta virt. eigenvalues --    0.04656   0.05564   0.08613   0.09038   0.10687
  Beta virt. eigenvalues --    0.18434   0.18532   0.19497   0.19951   0.38361
  Beta virt. eigenvalues --    0.40304   0.41895   0.44011   0.44039   0.49486
  Beta virt. eigenvalues --    0.49510   0.49893   0.50312   0.52964   0.54540
  Beta virt. eigenvalues --    0.54991   0.55364   0.55594   0.63444   0.72772
  Beta virt. eigenvalues --    0.74360   0.75480   0.79031   0.80074   0.85984
  Beta virt. eigenvalues --    0.86004   0.88403   0.89083   1.01425   1.01993
  Beta virt. eigenvalues --    1.06948   1.07136   1.11786   1.34109   1.34647
  Beta virt. eigenvalues --    1.79654
          Condensed to atoms (all electrons):
               1          2          3          4          5          6
     1  C    4.913050   0.519925  -0.063082  -0.022573  -0.063082   0.519925
     2  C    0.519925   4.965843   0.411614  -0.063082  -0.023300  -0.049133
     3  C   -0.063082   0.411614   4.965843   0.519925  -0.049133  -0.023300
     4  C   -0.022573  -0.063082   0.519925   4.913050   0.519925  -0.063082
     5  C   -0.063082  -0.023300  -0.049133   0.519925   4.965843   0.411614
     6  C    0.519925  -0.049133  -0.023300  -0.063082   0.411614   4.965843
     7  H    0.371908  -0.024164   0.003223   0.000063   0.003223  -0.024164
     8  H   -0.020453   0.366150  -0.028270   0.002968   0.000062   0.003136
     9  H    0.002968  -0.028270   0.366150  -0.020453   0.003136   0.000062
    10  H    0.000063   0.003223  -0.024164   0.371908  -0.024164   0.003223
    11  H    0.002968   0.000062   0.003136  -0.020453   0.366150  -0.028270
    12  H   -0.020453   0.003136   0.000062   0.002968  -0.028270   0.366150
               7          8          9         10         11         12
     1  C    0.371908  -0.020453   0.002968   0.000063   0.002968  -0.020453
     2  C   -0.024164   0.366150  -0.028270   0.003223   0.000062   0.003136
     3  C    0.003223  -0.028270   0.366150  -0.024164   0.003136   0.000062
     4  C    0.000063   0.002968  -0.020453   0.371908  -0.020453   0.002968
     5  C    0.003223   0.000062   0.003136  -0.024164   0.366150  -0.028270
     6  C   -0.024164   0.003136   0.000062   0.003223  -0.028270   0.366150
     7  H    0.417440  -0.002575  -0.000070   0.000002  -0.000070  -0.002575
     8  H   -0.002575   0.407686  -0.002278  -0.000070   0.000004  -0.000066
     9  H   -0.000070  -0.002278   0.407686  -0.002575  -0.000066   0.000004
    10  H    0.000002  -0.000070  -0.002575   0.417440  -0.002575  -0.000070
    11  H   -0.000070   0.000004  -0.000066  -0.002575   0.407686  -0.002278
    12  H   -0.002575  -0.000066   0.000004  -0.000070  -0.002278   0.407686
          Atomic-Atomic Spin Densities.
               1          2          3          4          5          6
     1  C   -0.183618  -0.007030  -0.007402   0.005825  -0.007402  -0.007030
     2  C   -0.007030   0.355909   0.040185  -0.007402  -0.007207  -0.005906
     3  C   -0.007402   0.040185   0.355909  -0.007030  -0.005906  -0.007207
     4  C    0.005825  -0.007402  -0.007030  -0.183618  -0.007030  -0.007402
     5  C   -0.007402  -0.007207  -0.005906  -0.007030   0.355909   0.040185
     6  C   -0.007030  -0.005906  -0.007207  -0.007402   0.040185   0.355909
     7  H    0.001546  -0.000937   0.000149  -0.000051   0.000149  -0.000937
     8  H    0.000076   0.000343  -0.001785  -0.000010  -0.000054   0.000081
     9  H   -0.000010  -0.001785   0.000343   0.000076   0.000081  -0.000054
    10  H   -0.000051   0.000149  -0.000937   0.001546  -0.000937   0.000149
    11  H   -0.000010  -0.000054   0.000081   0.000076   0.000343  -0.001785
    12  H    0.000076   0.000081  -0.000054  -0.000010  -0.001785   0.000343
               7          8          9         10         11         12
     1  C    0.001546   0.000076  -0.000010  -0.000051  -0.000010   0.000076
     2  C   -0.000937   0.000343  -0.001785   0.000149  -0.000054   0.000081
     3  C    0.000149  -0.001785   0.000343  -0.000937   0.000081  -0.000054
     4  C   -0.000051  -0.000010   0.000076   0.001546   0.000076  -0.000010
     5  C    0.000149  -0.000054   0.000081  -0.000937   0.000343  -0.001785
     6  C   -0.000937   0.000081  -0.000054   0.000149  -0.001785   0.000343
     7  H    0.005125  -0.000003   0.000004  -0.000001   0.000004  -0.000003
     8  H   -0.000003  -0.014963  -0.000046   0.000004  -0.000000   0.000005
     9  H    0.000004  -0.000046  -0.014963  -0.000003   0.000005  -0.000000
    10  H   -0.000001   0.000004  -0.000003   0.005125  -0.000003   0.000004
    11  H    0.000004  -0.000000   0.000005  -0.000003  -0.014963  -0.000046
    12  H   -0.000003   0.000005  -0.000000   0.000004  -0.000046  -0.014963
 Mulliken charges and spin densities:
               1          2
     1  C   -0.141162  -0.205032
     2  C   -0.082004   0.366346
     3  C   -0.082004   0.366346
     4  C   -0.141162  -0.205032
     5  C   -0.082004   0.366346
     6  C   -0.082004   0.366346
     7  H    0.257758   0.005045
     8  H    0.273706  -0.016352
     9  H    0.273706  -0.016352
    10  H    0.257758   0.005045
    11  H    0.273706  -0.016352
    12  H    0.273706  -0.016352
 Sum of Mulliken charges =   1.00000   1.00000
 Mulliken charges and spin densities with hydrogens summed into heavy atoms:
               1          2
     1  C    0.116596  -0.199987
     2  C    0.191702   0.349994
     3  C    0.191702   0.349994
     4  C    0.116596  -0.199987
     5  C    0.191702   0.349994
     6  C    0.191702   0.349994
 Electronic spatial extent (au):  <R**2>=            438.4698
 Charge=              1.0000 electrons
 Dipole moment (field-independent basis, Debye):
    X=             -0.0000    Y=              0.0000    Z=             -0.0000  Tot=              0.0000
 Quadrupole moment (field-independent basis, Debye-Ang):
   XX=            -17.9830   YY=            -21.6558   ZZ=            -35.0451
   XY=             -0.0000   XZ=              0.0000   YZ=              0.0000
 Traceless Quadrupole moment (field-independent basis, Debye-Ang):
   XX=              6.9116   YY=              3.2388   ZZ=            -10.1504
   XY=             -0.0000   XZ=              0.0000   YZ=              0.0000
 Octapole moment (field-independent basis, Debye-Ang**2):
  XXX=              0.0000  YYY=              0.0000  ZZZ=              0.0000  XYY=              0.0000
  XXY=              0.0000  XXZ=              0.0000  XZZ=              0.0000  YZZ=              0.0000
  YYZ=              0.0000  XYZ=              0.0000
 Hexadecapole moment (field-independent basis, Debye-Ang**3):
 XXXX=           -196.2616 YYYY=           -210.6678 ZZZZ=            -34.1887 XXXY=              0.0000
 XXXZ=              0.0000 YYYX=             -0.0000 YYYZ=              0.0000 ZZZX=             -0.0000
 ZZZY=             -0.0000 XXYY=            -66.3028 XXZZ=            -52.1448 YYZZ=            -55.4587
 XXYZ=              0.0000 YYXZ=              0.0000 ZZXY=              0.0000
 N-N= 2.031815835396D+02 E-N=-9.341542593006D+02  KE= 2.305582685025D+02
 Symmetry AG   KE= 7.451072922788D+01
 Symmetry B1G  KE= 3.776035539137D+01
 Symmetry B2G  KE= 1.196403227898D+00
 Symmetry B3G  KE= 2.340447507654D+00
 Symmetry AU   KE= 2.054214279074D-16
 Symmetry B1U  KE= 1.957234583692D+00
 Symmetry B2U  KE= 7.219698016180D+01
 Symmetry B3U  KE= 4.059611840222D+01
 Symmetry AG   SP= 1.472355359378D-14
 Symmetry B1G  SP=-1.792394645927D-14
 Symmetry B2G  SP= 1.000000000000D+00
 Symmetry B3G  SP=-2.570236775148D-15
 Symmetry AU   SP= 8.470872315253D-17
 Symmetry B1U  SP=-2.636495080414D-15
 Symmetry B2U  SP= 1.282077200480D-14
 Symmetry B3U  SP= 4.728910405621D-15
                          Isotropic Fermi Contact Couplings
        Atom                 a.u.       MegaHertz       Gauss      10(-4) cm-1
     1  C(13)             -0.03169     -35.62396     -12.71152     -11.88288
     2  C(13)              0.04329      48.66788      17.36591      16.23386
     3  C(13)              0.04329      48.66788      17.36591      16.23386
     4  C(13)             -0.03169     -35.62396     -12.71152     -11.88288
     5  C(13)              0.04329      48.66788      17.36591      16.23386
     6  C(13)              0.04329      48.66788      17.36591      16.23386
     7  H(1)               0.00196       8.75868       3.12532       2.92158
     8  H(1)              -0.00637     -28.46203     -10.15596      -9.49391
     9  H(1)              -0.00637     -28.46203     -10.15596      -9.49391
    10  H(1)               0.00196       8.75868       3.12532       2.92158
    11  H(1)              -0.00637     -28.46203     -10.15596      -9.49391
    12  H(1)              -0.00637     -28.46203     -10.15596      -9.49391
 --------------------------------------------------------
       Center         ----  Spin Dipole Couplings  ----
                      3XX-RR        3YY-RR        3ZZ-RR
 --------------------------------------------------------
     1   Atom        0.070263      0.062603     -0.132866
     2   Atom       -0.187597     -0.180294      0.367891
     3   Atom       -0.187597     -0.180294      0.367891
     4   Atom        0.070263      0.062603     -0.132866
     5   Atom       -0.187597     -0.180294      0.367891
     6   Atom       -0.187597     -0.180294      0.367891
     7   Atom        0.006494     -0.000885     -0.005609
     8   Atom        0.011225     -0.003701     -0.007524
     9   Atom        0.011225     -0.003701     -0.007524
    10   Atom        0.006494     -0.000885     -0.005609
    11   Atom        0.011225     -0.003701     -0.007524
    12   Atom        0.011225     -0.003701     -0.007524
 --------------------------------------------------------
                        XY            XZ            YZ
 --------------------------------------------------------
     1   Atom        0.000000     -0.000000      0.000000
     2   Atom       -0.004757     -0.000000     -0.000000
     3   Atom        0.004757     -0.000000      0.000000
     4   Atom       -0.000000     -0.000000     -0.000000
     5   Atom       -0.004757      0.000000      0.000000
     6   Atom        0.004757      0.000000     -0.000000
     7   Atom        0.000000     -0.000000     -0.000000
     8   Atom       -0.028419     -0.000000      0.000000
     9   Atom        0.028419     -0.000000     -0.000000
    10   Atom        0.000000      0.000000      0.000000
    11   Atom       -0.028419      0.000000     -0.000000
    12   Atom        0.028419      0.000000      0.000000
 --------------------------------------------------------


 ---------------------------------------------------------------------------------
              Anisotropic Spin Dipole Couplings in Principal Axis System
 ---------------------------------------------------------------------------------

       Atom             a.u.   MegaHertz   Gauss  10(-4) cm-1        Axes

              Baa    -0.1329   -17.829    -6.362    -5.947  0.0000  0.0000  1.0000
     1 C(13)  Bbb     0.0626     8.401     2.998     2.802 -0.0000  1.0000  0.0000
              Bcc     0.0703     9.429     3.364     3.145  1.0000  0.0000  0.0000
 
              Baa    -0.1899   -25.488    -9.095    -8.502  0.8969  0.4422 -0.0000
     2 C(13)  Bbb    -0.1779   -23.879    -8.521    -7.965 -0.4422  0.8969 -0.0000
              Bcc     0.3679    49.367    17.616    16.467  0.0000  0.0000  1.0000
 
              Baa    -0.1899   -25.488    -9.095    -8.502  0.8969 -0.4422  0.0000
     3 C(13)  Bbb    -0.1779   -23.879    -8.521    -7.965  0.4422  0.8969 -0.0000
              Bcc     0.3679    49.367    17.616    16.467  0.0000  0.0000  1.0000
 
              Baa    -0.1329   -17.829    -6.362    -5.947  0.0000  0.0000  1.0000
     4 C(13)  Bbb     0.0626     8.401     2.998     2.802  0.0000  1.0000 -0.0000
              Bcc     0.0703     9.429     3.364     3.145  1.0000 -0.0000 -0.0000
 
              Baa    -0.1899   -25.488    -9.095    -8.502  0.8969  0.4422 -0.0000
     5 C(13)  Bbb    -0.1779   -23.879    -8.521    -7.965 -0.4422  0.8969 -0.0000
              Bcc     0.3679    49.367    17.616    16.467  0.0000  0.0000  1.0000
 
              Baa    -0.1899   -25.488    -9.095    -8.502  0.8969 -0.4422  0.0000
     6 C(13)  Bbb    -0.1779   -23.879    -8.521    -7.965  0.4422  0.8969 -0.0000
              Bcc     0.3679    49.367    17.616    16.467  0.0000  0.0000  1.0000
 
              Baa    -0.0056    -2.992    -1.068    -0.998  0.0000  0.0000  1.0000
     7 H(1)   Bbb    -0.0009    -0.472    -0.169    -0.158 -0.0000  1.0000 -0.0000
              Bcc     0.0065     3.465     1.236     1.156  1.0000  0.0000 -0.0000
 
              Baa    -0.0256   -13.670    -4.878    -4.560  0.6107  0.7918  0.0000
     8 H(1)   Bbb    -0.0075    -4.014    -1.432    -1.339  0.0000  0.0000  1.0000
              Bcc     0.0331    17.684     6.310     5.899  0.7918 -0.6107  0.0000
 
              Baa    -0.0256   -13.670    -4.878    -4.560 -0.6107  0.7918  0.0000
     9 H(1)   Bbb    -0.0075    -4.014    -1.432    -1.339  0.0000  0.0000  1.0000
              Bcc     0.0331    17.684     6.310     5.899  0.7918  0.6107 -0.0000
 
              Baa    -0.0056    -2.992    -1.068    -0.998  0.0000  0.0000  1.0000
    10 H(1)   Bbb    -0.0009    -0.472    -0.169    -0.158 -0.0000  1.0000 -0.0000
              Bcc     0.0065     3.465     1.236     1.156  1.0000  0.0000 -0.0000
 
              Baa    -0.0256   -13.670    -4.878    -4.560  0.6107  0.7918  0.0000
    11 H(1)   Bbb    -0.0075    -4.014    -1.432    -1.339  0.0000  0.0000  1.0000
              Bcc     0.0331    17.684     6.310     5.899  0.7918 -0.6107  0.0000
 
              Baa    -0.0256   -13.670    -4.878    -4.560 -0.6107  0.7918  0.0000
    12 H(1)   Bbb    -0.0075    -4.014    -1.432    -1.339  0.0000  0.0000  1.0000
              Bcc     0.0331    17.684     6.310     5.899  0.7918  0.6107 -0.0000
 

 ---------------------------------------------------------------------------------

 No NMR shielding tensors so no spin-rotation constants.
 Leave Link  601 at Mon Mar 16 03:51:10 2020, MaxMem=  6710886400 cpu:               3.3 elap:               0.2
 (Enter /opt/ohpc/pub/libs/gaussian/g16-A.03/sandybridge/g16/l9999.exe)

 Test job not archived.
 1\1\GINC-CNODE145\SP\ULC-wHPBE\6-31G\C6H6(1+,2)\QAI222\16-Mar-2020\0\\
 #P uLC-wHPBE/6-31G iop(3/107=0313000000, 3/108=0313000000) scf=(conver
 =6,fermi,ndamp=35,noincfock,novaracc,vshift=500,xqc)\\H6 C6\\1,2\C,0,0
 .,1.396379,0.\C,0,-1.2093,0.69819,0.\C,0,-1.2093,-0.69819,0.\C,0,0.,-1
 .396379,0.\C,0,1.2093,-0.69819,0.\C,0,1.2093,0.69819,0.\H,0,0.,2.48461
 3,0.\H,0,-2.151738,1.242306,0.\H,0,-2.151738,-1.242306,0.\H,0,0.,-2.48
 4613,0.\H,0,2.151738,-1.242306,0.\H,0,2.151738,1.242306,0.\\Version=EM
 64L-G16RevA.03\HF=-231.66762\S2=0.77635\S2-1=0.\S2A=0.750335\RMSD=6.76
 5e-07\Dipole=0.,0.,0.\Quadrupole=5.1386099,2.407996,-7.5466059,0.,0.,0
 .\PG=D06H [3C2'(H1C1.C1H1)]\\@


 THE MORE POWERFUL THE METHOD, THE MORE CATASTROPHIC THE ERRORS.
     -- M.D. KAMEN
 Job cpu time:       0 days  0 hours  0 minutes 48.2 seconds.
 Elapsed time:       0 days  0 hours  0 minutes  3.3 seconds.
 File lengths (MBytes):  RWF=    272 Int=      0 D2E=      0 Chk=     32 Scr=     32
 Normal termination of Gaussian 16 at Mon Mar 16 03:51:10 2020.
