 Entering Gaussian System, Link 0=g16
 Input=1b_tune_c7.gjf
 Output=1b_tune_c7.log
 Initial command:
 /opt/ohpc/pub/libs/gaussian/g16-A.03/sandybridge/g16/l1.exe "/pscratch/cmri235_uksr/ocelot/fw/dev/ocelot_api/tests/wtuning_test/1b/tuning_1b_ocycle0/Gau-61480.inp" -scrdir="/pscratch/cmri235_uksr/ocelot/fw/dev/ocelot_api/tests/wtuning_test/1b/tuning_1b_ocycle0/"
 Entering Link 1 = /opt/ohpc/pub/libs/gaussian/g16-A.03/sandybridge/g16/l1.exe PID=     61481.
  
 Copyright (c) 1988,1990,1992,1993,1995,1998,2003,2009,2016,
            Gaussian, Inc.  All Rights Reserved.
  
 This is part of the Gaussian(R) 16 program.  It is based on
 the Gaussian(R) 09 system (copyright 2009, Gaussian, Inc.),
 the Gaussian(R) 03 system (copyright 2003, Gaussian, Inc.),
 the Gaussian(R) 98 system (copyright 1998, Gaussian, Inc.),
 the Gaussian(R) 94 system (copyright 1995, Gaussian, Inc.),
 the Gaussian 92(TM) system (copyright 1992, Gaussian, Inc.),
 the Gaussian 90(TM) system (copyright 1990, Gaussian, Inc.),
 the Gaussian 88(TM) system (copyright 1988, Gaussian, Inc.),
 the Gaussian 86(TM) system (copyright 1986, Carnegie Mellon
 University), and the Gaussian 82(TM) system (copyright 1983,
 Carnegie Mellon University). Gaussian is a federally registered
 trademark of Gaussian, Inc.
  
 This software contains proprietary and confidential information,
 including trade secrets, belonging to Gaussian, Inc.
  
 This software is provided under written license and may be
 used, copied, transmitted, or stored only in accord with that
 written license.
  
 The following legend is applicable only to US Government
 contracts under FAR:
  
                    RESTRICTED RIGHTS LEGEND
  
 Use, reproduction and disclosure by the US Government is
 subject to restrictions as set forth in subparagraphs (a)
 and (c) of the Commercial Computer Software - Restricted
 Rights clause in FAR 52.227-19.
  
 Gaussian, Inc.
 340 Quinnipiac St., Bldg. 40, Wallingford CT 06492
  
  
 ---------------------------------------------------------------
 Warning -- This program may not be used in any manner that
 competes with the business of Gaussian, Inc. or will provide
 assistance to any competitor of Gaussian, Inc.  The licensee
 of this program is prohibited from giving any competitor of
 Gaussian, Inc. access to this program.  By using this program,
 the user acknowledges that Gaussian, Inc. is engaged in the
 business of creating and licensing software in the field of
 computational chemistry and represents and warrants to the
 licensee that it is not a competitor of Gaussian, Inc. and that
 it will not use this program in any manner prohibited above.
 ---------------------------------------------------------------
  

 Cite this work as:
 Gaussian 16, Revision A.03,
 M. J. Frisch, G. W. Trucks, H. B. Schlegel, G. E. Scuseria, 
 M. A. Robb, J. R. Cheeseman, G. Scalmani, V. Barone, 
 G. A. Petersson, H. Nakatsuji, X. Li, M. Caricato, A. V. Marenich, 
 J. Bloino, B. G. Janesko, R. Gomperts, B. Mennucci, H. P. Hratchian, 
 J. V. Ortiz, A. F. Izmaylov, J. L. Sonnenberg, D. Williams-Young, 
 F. Ding, F. Lipparini, F. Egidi, J. Goings, B. Peng, A. Petrone, 
 T. Henderson, D. Ranasinghe, V. G. Zakrzewski, J. Gao, N. Rega, 
 G. Zheng, W. Liang, M. Hada, M. Ehara, K. Toyota, R. Fukuda, 
 J. Hasegawa, M. Ishida, T. Nakajima, Y. Honda, O. Kitao, H. Nakai, 
 T. Vreven, K. Throssell, J. A. Montgomery, Jr., J. E. Peralta, 
 F. Ogliaro, M. J. Bearpark, J. J. Heyd, E. N. Brothers, K. N. Kudin, 
 V. N. Staroverov, T. A. Keith, R. Kobayashi, J. Normand, 
 K. Raghavachari, A. P. Rendell, J. C. Burant, S. S. Iyengar, 
 J. Tomasi, M. Cossi, J. M. Millam, M. Klene, C. Adamo, R. Cammi, 
 J. W. Ochterski, R. L. Martin, K. Morokuma, O. Farkas, 
 J. B. Foresman, and D. J. Fox, Gaussian, Inc., Wallingford CT, 2016.
 
 ******************************************
 Gaussian 16:  EM64L-G16RevA.03 25-Dec-2016
                16-Mar-2020 
 ******************************************
 %mem=50GB
 %nproc=16
 Will use up to   16 processors via shared memory.
 ----------------------------------------------------------------------
 #P uLC-wHPBE/6-31G iop(3/107=0314100000, 3/108=0314100000) scf=(conver
 =6,fermi,ndamp=35,noincfock,novaracc,vshift=500,xqc)
 ----------------------------------------------------------------------
 1/38=1,172=1/1;
 2/12=2,17=6,18=5,40=1/2;
 3/5=1,6=6,11=2,25=1,30=1,74=-71,107=314100000,108=314100000,116=2/1,2,3;
 4//1;
 5/5=100002,6=6,8=3,10=500,13=1,18=-1,22=13,38=1,93=35/2,8;
 6/7=2,8=2,9=2,10=2,28=1/1;
 99/5=1,9=1/99;
 Leave Link    1 at Mon Mar 16 03:49:55 2020, MaxMem=  6710886400 cpu:              14.7 elap:               1.0
 (Enter /opt/ohpc/pub/libs/gaussian/g16-A.03/sandybridge/g16/l101.exe)
 -----
 H6 C6
 -----
 Symbolic Z-matrix:
 Charge =  1 Multiplicity = 2
 C                     0.        1.39316   0. 
 C                    -1.20651   0.69658   0. 
 C                    -1.20651  -0.69658   0. 
 C                     0.       -1.39316   0. 
 C                     1.20651  -0.69658   0. 
 C                     1.20651   0.69658   0. 
 H                     0.        2.48268   0. 
 H                    -2.15007   1.24134   0. 
 H                    -2.15007  -1.24134   0. 
 H                     0.       -2.48268   0. 
 H                     2.15007  -1.24134   0. 
 H                     2.15007   1.24134   0. 
 
 ITRead=  0  0  0  0  0  0  0  0  0  0  0  0
 MicOpt= -1 -1 -1 -1 -1 -1 -1 -1 -1 -1 -1 -1
 NAtoms=     12 NQM=       12 NQMF=       0 NMMI=      0 NMMIF=      0
                NMic=       0 NMicF=      0.
                    Isotopes and Nuclear Properties:
 (Nuclear quadrupole moments (NQMom) in fm**2, nuclear magnetic moments (NMagM)
  in nuclear magnetons)

  Atom         1           2           3           4           5           6           7           8           9          10
 IAtWgt=          12          12          12          12          12          12           1           1           1           1
 AtmWgt=  12.0000000  12.0000000  12.0000000  12.0000000  12.0000000  12.0000000   1.0078250   1.0078250   1.0078250   1.0078250
 NucSpn=           0           0           0           0           0           0           1           1           1           1
 AtZEff=  -0.0000000  -0.0000000  -0.0000000  -0.0000000  -0.0000000  -0.0000000  -0.0000000  -0.0000000  -0.0000000  -0.0000000
 NQMom=    0.0000000   0.0000000   0.0000000   0.0000000   0.0000000   0.0000000   0.0000000   0.0000000   0.0000000   0.0000000
 NMagM=    0.0000000   0.0000000   0.0000000   0.0000000   0.0000000   0.0000000   2.7928460   2.7928460   2.7928460   2.7928460
 AtZNuc=   6.0000000   6.0000000   6.0000000   6.0000000   6.0000000   6.0000000   1.0000000   1.0000000   1.0000000   1.0000000

  Atom        11          12
 IAtWgt=           1           1
 AtmWgt=   1.0078250   1.0078250
 NucSpn=           1           1
 AtZEff=  -0.0000000  -0.0000000
 NQMom=    0.0000000   0.0000000
 NMagM=    2.7928460   2.7928460
 AtZNuc=   1.0000000   1.0000000
 Leave Link  101 at Mon Mar 16 03:49:55 2020, MaxMem=  6710886400 cpu:               2.4 elap:               0.2
 (Enter /opt/ohpc/pub/libs/gaussian/g16-A.03/sandybridge/g16/l202.exe)
                          Input orientation:                          
 ---------------------------------------------------------------------
 Center     Atomic      Atomic             Coordinates (Angstroms)
 Number     Number       Type             X           Y           Z
 ---------------------------------------------------------------------
      1          6           0        0.000000    1.393160    0.000000
      2          6           0       -1.206512    0.696580    0.000000
      3          6           0       -1.206512   -0.696580    0.000000
      4          6           0        0.000000   -1.393160    0.000000
      5          6           0        1.206512   -0.696580    0.000000
      6          6           0        1.206512    0.696580    0.000000
      7          1           0        0.000000    2.482681    0.000000
      8          1           0       -2.150065    1.241340    0.000000
      9          1           0       -2.150065   -1.241340    0.000000
     10          1           0        0.000000   -2.482681    0.000000
     11          1           0        2.150065   -1.241340    0.000000
     12          1           0        2.150065    1.241340    0.000000
 ---------------------------------------------------------------------
                    Distance matrix (angstroms):
                    1          2          3          4          5
     1  C    0.000000
     2  C    1.393160   0.000000
     3  C    2.413024   1.393160   0.000000
     4  C    2.786320   2.413024   1.393160   0.000000
     5  C    2.413024   2.786320   2.413024   1.393160   0.000000
     6  C    1.393160   2.413024   2.786320   2.413024   1.393160
     7  H    1.089521   2.155418   3.400496   3.875841   3.400496
     8  H    2.155418   1.089521   2.155418   3.400496   3.875841
     9  H    3.400496   2.155418   1.089521   2.155418   3.400496
    10  H    3.875841   3.400496   2.155418   1.089521   2.155418
    11  H    3.400496   3.875841   3.400496   2.155418   1.089521
    12  H    2.155418   3.400496   3.875841   3.400496   2.155418
                    6          7          8          9         10
     6  C    0.000000
     7  H    2.155418   0.000000
     8  H    3.400496   2.482681   0.000000
     9  H    3.875841   4.300129   2.482680   0.000000
    10  H    3.400496   4.965362   4.300129   2.482681   0.000000
    11  H    2.155418   4.300129   4.965362   4.300130   2.482681
    12  H    1.089521   2.482681   4.300130   4.965362   4.300129
                   11         12
    11  H    0.000000
    12  H    2.482680   0.000000
 Stoichiometry    C6H6(1+,2)
 Framework group  D6H[3C2'(HC.CH)]
 Deg. of freedom     2
 Full point group                 D6H     NOp  24
 Largest Abelian subgroup         D2H     NOp   8
 Largest concise Abelian subgroup D2      NOp   4
                         Standard orientation:                         
 ---------------------------------------------------------------------
 Center     Atomic      Atomic             Coordinates (Angstroms)
 Number     Number       Type             X           Y           Z
 ---------------------------------------------------------------------
      1          6           0       -0.000000    1.393160   -0.000000
      2          6           0       -1.206512    0.696580   -0.000000
      3          6           0       -1.206512   -0.696580   -0.000000
      4          6           0       -0.000000   -1.393160   -0.000000
      5          6           0        1.206512   -0.696580   -0.000000
      6          6           0        1.206512    0.696580   -0.000000
      7          1           0        0.000000    2.482681   -0.000000
      8          1           0       -2.150065    1.241341   -0.000000
      9          1           0       -2.150065   -1.241340   -0.000000
     10          1           0       -0.000000   -2.482681   -0.000000
     11          1           0        2.150065   -1.241341   -0.000000
     12          1           0        2.150065    1.241340   -0.000000
 ---------------------------------------------------------------------
 Rotational constants (GHZ):           5.7099798           5.7099798           2.8549899
 Leave Link  202 at Mon Mar 16 03:49:55 2020, MaxMem=  6710886400 cpu:               0.3 elap:               0.0
 (Enter /opt/ohpc/pub/libs/gaussian/g16-A.03/sandybridge/g16/l301.exe)
 Standard basis: 6-31G (6D, 7F)
 Ernie: Thresh=  0.10000D-02 Tol=  0.10000D-05 Strict=F.
 There are    16 symmetry adapted cartesian basis functions of AG  symmetry.
 There are    11 symmetry adapted cartesian basis functions of B1G symmetry.
 There are     2 symmetry adapted cartesian basis functions of B2G symmetry.
 There are     4 symmetry adapted cartesian basis functions of B3G symmetry.
 There are     2 symmetry adapted cartesian basis functions of AU  symmetry.
 There are     4 symmetry adapted cartesian basis functions of B1U symmetry.
 There are    16 symmetry adapted cartesian basis functions of B2U symmetry.
 There are    11 symmetry adapted cartesian basis functions of B3U symmetry.
 There are    16 symmetry adapted basis functions of AG  symmetry.
 There are    11 symmetry adapted basis functions of B1G symmetry.
 There are     2 symmetry adapted basis functions of B2G symmetry.
 There are     4 symmetry adapted basis functions of B3G symmetry.
 There are     2 symmetry adapted basis functions of AU  symmetry.
 There are     4 symmetry adapted basis functions of B1U symmetry.
 There are    16 symmetry adapted basis functions of B2U symmetry.
 There are    11 symmetry adapted basis functions of B3U symmetry.
    66 basis functions,   156 primitive gaussians,    66 cartesian basis functions
    21 alpha electrons       20 beta electrons
       nuclear repulsion energy       203.5439980921 Hartrees.
 IExCor=33909 DFT=T Ex+Corr=LC-wHPBE ExCW=0 ScaHFX=  1.000000
 ScaDFX=  1.000000  1.000000  1.000000  1.000000 ScalE2=  1.000000  1.000000
 IRadAn=      5 IRanWt=     -1 IRanGd=            0 ICorTp=0 IEmpDi=  4
 HFx  wShort=  0.000000 wLong=  0.314100 cFull=  0.000000 cShort=  0.000000 cLong=  1.000000
 DFx  wShort=  0.000000 wLong=  0.314100 cFull=  0.000000 cShort=  1.000000 cLong=  0.000000
 NAtoms=   12 NActive=   12 NUniq=    2 SFac= 4.00D+00 NAtFMM=   60 NAOKFM=F Big=F
 Integral buffers will be    131072 words long.
 Raffenetti 2 integral format.
 Two-electron integral symmetry is turned on.
 Leave Link  301 at Mon Mar 16 03:49:55 2020, MaxMem=  6710886400 cpu:               1.1 elap:               0.1
 (Enter /opt/ohpc/pub/libs/gaussian/g16-A.03/sandybridge/g16/l302.exe)
 NPDir=0 NMtPBC=     1 NCelOv=     1 NCel=       1 NClECP=     1 NCelD=      1
         NCelK=      1 NCelE2=     1 NClLst=     1 CellRange=     0.0.
 One-electron integrals computed using PRISM.
 One-electron integral symmetry used in STVInt
 NBasis=    66 RedAO= T EigKep=  6.87D-04  NBF=    16    11     2     4     2     4    16    11
 NBsUse=    66 1.00D-06 EigRej= -1.00D+00 NBFU=    16    11     2     4     2     4    16    11
 Precomputing XC quadrature grid using
 IXCGrd= 4 IRadAn=           5 IRanWt=          -1 IRanGd=           0 AccXCQ= 0.00D+00.
 Generated NRdTot=       0 NPtTot=           0 NUsed=           0 NTot=          32
 NSgBfM=    66    66    66    66    66 MxSgAt=    12 MxSgA2=    12.
 Leave Link  302 at Mon Mar 16 03:49:55 2020, MaxMem=  6710886400 cpu:               2.2 elap:               0.2
 (Enter /opt/ohpc/pub/libs/gaussian/g16-A.03/sandybridge/g16/l303.exe)
 DipDrv:  MaxL=1.
 Leave Link  303 at Mon Mar 16 03:49:55 2020, MaxMem=  6710886400 cpu:               0.8 elap:               0.1
 (Enter /opt/ohpc/pub/libs/gaussian/g16-A.03/sandybridge/g16/l401.exe)
 ExpMin= 1.61D-01 ExpMax= 3.05D+03 ExpMxC= 4.57D+02 IAcc=3 IRadAn=         5 AccDes= 0.00D+00
 Harris functional with IExCor=33909 and IRadAn=       5 diagonalized for initial guess.
 HarFok:  IExCor=33909 AccDes= 0.00D+00 IRadAn=         5 IDoV= 1 UseB2=F ITyADJ=14
 ICtDFT=  3500011 ScaDFX=  1.000000  1.000000  1.000000  1.000000
 FoFCou: FMM=F IPFlag=           0 FMFlag=      100000 FMFlg1=           0
         NFxFlg=           0 DoJE=T BraDBF=F KetDBF=T FulRan=T
         wScrn=  0.000000 ICntrl=       500 IOpCl=  0 I1Cent=   200000004 NGrid=           0
         NMat0=    1 NMatS0=      1 NMatT0=    0 NMatD0=    1 NMtDS0=    0 NMtDT0=    0
 Petite list used in FoFCou.
 Harris En= -225.104828541107    
 JPrj=0 DoOrth=F DoCkMO=F.
 Initial guess orbital symmetries:
 Alpha Orbitals:
       Occupied  (A1G) (E1U) (E1U) (E2G) (E2G) (B1U) (A1G) (E1U)
                 (E1U) (E2G) (E2G) (A1G) (B2U) (B1U) (E1U) (E1U)
                 (A2U) (E2G) (E2G) (E1G) (E1G)
       Virtual   (E2U) (E2U) (A1G) (B2G) (E1U) (E1U) (E2G) (E2G)
                 (B1U) (E2G) (E2G) (E1U) (E1U) (B2U) (A2U) (B1U)
                 (A2G) (A1G) (E2G) (E2G) (E1G) (E1G) (A1G) (E1U)
                 (E1U) (E2U) (E2U) (B2G) (B1U) (E2G) (E2G) (E1U)
                 (E1U) (A2G) (A1G) (E1U) (E1U) (E2G) (E2G) (E1U)
                 (E1U) (B1U) (E2G) (E2G) (B1U)
 Beta  Orbitals:
       Occupied  (A1G) (E1U) (E1U) (E2G) (E2G) (B1U) (A1G) (E1U)
                 (E1U) (E2G) (E2G) (A1G) (B2U) (B1U) (E1U) (E1U)
                 (A2U) (E2G) (E2G) (E1G)
       Virtual   (E1G) (E2U) (E2U) (A1G) (B2G) (E1U) (E1U) (E2G)
                 (E2G) (B1U) (E2G) (E2G) (E1U) (E1U) (B2U) (A2U)
                 (B1U) (A2G) (A1G) (E2G) (E2G) (E1G) (E1G) (A1G)
                 (E1U) (E1U) (E2U) (E2U) (B2G) (B1U) (E2G) (E2G)
                 (E1U) (E1U) (A2G) (A1G) (E1U) (E1U) (E2G) (E2G)
                 (E1U) (E1U) (B1U) (E2G) (E2G) (B1U)
 Initial guess <Sx>= 0.0000 <Sy>= 0.0000 <Sz>= 0.5000 <S**2>= 0.7500 S= 0.5000
 Leave Link  401 at Mon Mar 16 03:49:56 2020, MaxMem=  6710886400 cpu:               2.7 elap:               0.2
 (Enter /opt/ohpc/pub/libs/gaussian/g16-A.03/sandybridge/g16/l502.exe)
 Keep R1 and R2 ints in memory in symmetry-blocked form, NReq=19109854.
 FoFCou: FMM=F IPFlag=           0 FMFlag=           0 FMFlg1=           0
         NFxFlg=           0 DoJE=F BraDBF=F KetDBF=F FulRan=T
         wScrn=  0.000000 ICntrl=       600 IOpCl=  0 I1Cent=           0 NGrid=           0
         NMat0=    1 NMatS0=   2211 NMatT0=    0 NMatD0=    1 NMtDS0=    0 NMtDT0=    0
 Petite list used in FoFCou.
 UHF open shell SCF:
 Using DIIS extrapolation, IDIIS=    10.
 NGot=  6710886400 LenX=  6710146038 LenY=  6710141241
 Requested convergence on RMS density matrix=1.00D-06 within  32 cycles.
 Requested convergence on MAX density matrix=1.00D-04.
 Requested convergence on             energy=1.00D-04.
 Virtual orbitals will be shifted by   0.500 hartree.
 No special actions if energy rises.
 Dynamic level shift is on during FON iterations.

 Cycle   1  Pass 1  IDiag  1:
 Density matrix breaks symmetry, PCut= 1.00D-04
 Density has only Abelian symmetry.
 E= -231.644773328519    
 DIIS: error= 1.70D-02 at cycle   1 NSaved=   1.
 NSaved= 1 IEnMin= 1 EnMin= -231.644773328519     IErMin= 1 ErrMin= 1.70D-02
 ErrMax= 1.70D-02  0.00D+00 EMaxC= 1.00D+00 BMatC= 7.22D-02 BMatP= 7.22D-02
 IDIUse=1 WtCom= 1.00D+00 WtEn= 0.00D+00
 Coeff-Com:  0.100D+01
 Coeff:      0.100D+01
 Gap=     0.386 Goal=   None    Shift=    0.500
 T= 1154. Gap= 0.886 NK=0 IS=   22 IE=   66 IFin=   21
          NO(<0.9)=   0  NV(>0.1)=   0     21.00e < EF      0.00e >EF  Err=0.0D+00
 Gap=     0.198 Goal=   None    Shift=    0.500
 T= 1154. Gap= 0.698 NK=0 IS=   21 IE=   66 IFin=   20
          NO(<0.9)=   0  NV(>0.1)=   0     20.00e < EF      0.00e >EF  Err=0.0D+00
 GapD=    0.198 DampG=1.000 DampE=0.500 DampFc=0.5000 IDamp=-1.
 Damping current iteration by 5.00D-01
 RMSDP=3.29D-03 MaxDP=2.93D-02              OVMax= 3.49D-02

 Cycle   2  Pass 1  IDiag  1:
 Density matrix breaks symmetry, PCut= 1.00D-04
 Density has only Abelian symmetry.
 E= -231.656339694203     Delta-E=       -0.011566365684 Rises=F Damp=T
 DIIS: error= 9.95D-03 at cycle   2 NSaved=   2.
 NSaved= 2 IEnMin= 2 EnMin= -231.656339694203     IErMin= 2 ErrMin= 9.95D-03
 ErrMax= 9.95D-03  0.00D+00 EMaxC= 1.00D+00 BMatC= 1.76D-02 BMatP= 7.22D-02
 IDIUse=1 WtCom= 1.00D+00 WtEn= 0.00D+00
 Coeff-Com: -0.828D+00 0.183D+01
 Coeff:     -0.828D+00 0.183D+01
 Gap=     0.405 Goal=   None    Shift=    0.500
 T= 1065. Gap= 0.905 NK=0 IS=   22 IE=   66 IFin=   21
          NO(<0.9)=   0  NV(>0.1)=   0     21.00e < EF      0.00e >EF  Err=0.0D+00
 Gap=     0.222 Goal=   None    Shift=    0.500
 T= 1065. Gap= 0.722 NK=0 IS=   21 IE=   66 IFin=   20
          NO(<0.9)=   0  NV(>0.1)=   0     20.00e < EF      0.00e >EF  Err=0.0D+00
 GapD=    0.222 DampG=1.000 DampE=1.000 DampFc=1.0000 IDamp=-1.
 RMSDP=2.36D-03 MaxDP=1.66D-02 DE=-1.16D-02 OVMax= 1.68D-02

 Cycle   3  Pass 1  IDiag  1:
 Density matrix breaks symmetry, PCut= 1.00D-04
 Density has only Abelian symmetry.
 E= -231.665922699405     Delta-E=       -0.009583005201 Rises=F Damp=F
 DIIS: error= 5.44D-03 at cycle   3 NSaved=   3.
 NSaved= 3 IEnMin= 3 EnMin= -231.665922699405     IErMin= 3 ErrMin= 5.44D-03
 ErrMax= 5.44D-03  0.00D+00 EMaxC= 1.00D+00 BMatC= 7.76D-04 BMatP= 1.76D-02
 IDIUse=1 WtCom= 1.00D+00 WtEn= 0.00D+00
 Coeff-Com:  0.152D+00-0.337D+00 0.119D+01
 Coeff:      0.152D+00-0.337D+00 0.119D+01
 Gap=     0.399 Goal=   None    Shift=    0.500
 T=  882. Gap= 0.899 NK=0 IS=   22 IE=   66 IFin=   21
          NO(<0.9)=   0  NV(>0.1)=   0     21.00e < EF      0.00e >EF  Err=0.0D+00
 Gap=     0.222 Goal=   None    Shift=    0.500
 T=  882. Gap= 0.722 NK=0 IS=   21 IE=   66 IFin=   20
          NO(<0.9)=   0  NV(>0.1)=   0     20.00e < EF      0.00e >EF  Err=0.0D+00
 GapD=    0.222 DampG=1.000 DampE=1.000 DampFc=1.0000 IDamp=-1.
 RMSDP=4.07D-04 MaxDP=3.49D-03 DE=-9.58D-03 OVMax= 1.12D-02

 Cycle   4  Pass 1  IDiag  1:
 Density matrix breaks symmetry, PCut= 1.00D-04
 Density has only Abelian symmetry.
 E= -231.666510548399     Delta-E=       -0.000587848995 Rises=F Damp=F
 DIIS: error= 4.29D-03 at cycle   4 NSaved=   4.
 NSaved= 4 IEnMin= 4 EnMin= -231.666510548399     IErMin= 4 ErrMin= 4.29D-03
 ErrMax= 4.29D-03  0.00D+00 EMaxC= 1.00D+00 BMatC= 3.75D-04 BMatP= 7.76D-04
 IDIUse=1 WtCom= 1.00D+00 WtEn= 0.00D+00
 Coeff-Com:  0.125D+00-0.280D+00-0.628D+00 0.178D+01
 Coeff:      0.125D+00-0.280D+00-0.628D+00 0.178D+01
 Gap=     0.397 Goal=   None    Shift=    0.500
 T=  584. Gap= 0.898 NK=0 IS=   22 IE=   66 IFin=   21
          NO(<0.9)=   0  NV(>0.1)=   0     21.00e < EF      0.00e >EF  Err=0.0D+00
 Gap=     0.226 Goal=   None    Shift=    0.500
 T=  584. Gap= 0.726 NK=0 IS=   21 IE=   66 IFin=   20
          NO(<0.9)=   0  NV(>0.1)=   0     20.00e < EF      0.00e >EF  Err=0.0D+00
 GapD=    0.226 DampG=1.000 DampE=1.000 DampFc=1.0000 IDamp=-1.
 RMSDP=2.87D-04 MaxDP=3.59D-03 DE=-5.88D-04 OVMax= 1.17D-02

 Cycle   5  Pass 1  IDiag  1:
 Density matrix breaks symmetry, PCut= 1.00D-04
 Density has only Abelian symmetry.
 E= -231.666897866558     Delta-E=       -0.000387318158 Rises=F Damp=F
 DIIS: error= 2.65D-03 at cycle   5 NSaved=   5.
 NSaved= 5 IEnMin= 5 EnMin= -231.666897866558     IErMin= 5 ErrMin= 2.65D-03
 ErrMax= 2.65D-03  0.00D+00 EMaxC= 1.00D+00 BMatC= 1.57D-04 BMatP= 3.75D-04
 IDIUse=1 WtCom= 1.00D+00 WtEn= 0.00D+00
 Coeff-Com: -0.127D+00 0.278D+00-0.521D+00-0.101D+01 0.239D+01
 Coeff:     -0.127D+00 0.278D+00-0.521D+00-0.101D+01 0.239D+01
 Gap=     0.395 Goal=   None    Shift=    0.500
 T=  306. Gap= 0.895 NK=0 IS=   22 IE=   66 IFin=   21
          NO(<0.9)=   0  NV(>0.1)=   0     21.00e < EF      0.00e >EF  Err=0.0D+00
 Gap=     0.229 Goal=   None    Shift=    0.500
 T=  306. Gap= 0.729 NK=0 IS=   21 IE=   66 IFin=   20
          NO(<0.9)=   0  NV(>0.1)=   0     20.00e < EF      0.00e >EF  Err=0.0D+00
 GapD=    0.229 DampG=1.000 DampE=1.000 DampFc=1.0000 IDamp=-1.
 RMSDP=2.34D-04 MaxDP=3.56D-03 DE=-3.87D-04 OVMax= 1.04D-02

 Cycle   6  Pass 1  IDiag  1:
 Density matrix breaks symmetry, PCut= 1.00D-04
 Density has only Abelian symmetry.
 E= -231.667119191360     Delta-E=       -0.000221324802 Rises=F Damp=F
 DIIS: error= 1.45D-03 at cycle   6 NSaved=   6.
 NSaved= 6 IEnMin= 6 EnMin= -231.667119191360     IErMin= 6 ErrMin= 1.45D-03
 ErrMax= 1.45D-03  0.00D+00 EMaxC= 1.00D+00 BMatC= 4.43D-05 BMatP= 1.57D-04
 IDIUse=1 WtCom= 1.00D+00 WtEn= 0.00D+00
 Coeff-Com:  0.193D-01-0.387D-01 0.180D+00-0.372D-01-0.139D+01 0.227D+01
 Coeff:      0.193D-01-0.387D-01 0.180D+00-0.372D-01-0.139D+01 0.227D+01
 Gap=     0.394 Goal=   None    Shift=    0.500
 T=   72. Gap= 0.894 NK=0 IS=   22 IE=   66 IFin=   21
          NO(<0.9)=   0  NV(>0.1)=   0     21.00e < EF      0.00e >EF  Err=0.0D+00
 Gap=     0.230 Goal=   None    Shift=    0.500
 T=   72. Gap= 0.730 NK=0 IS=   21 IE=   66 IFin=   20
          NO(<0.9)=   0  NV(>0.1)=   0     20.00e < EF      0.00e >EF  Err=0.0D+00
 GapD=    0.230 DampG=1.000 DampE=1.000 DampFc=1.0000 IDamp=-1.
 RMSDP=1.27D-04 MaxDP=2.17D-03 DE=-2.21D-04 OVMax= 5.90D-03

 Cycle   7  Pass 1  IDiag  1:
 Density matrix breaks symmetry, PCut= 1.00D-04
 Density has only Abelian symmetry.
 E= -231.667185083112     Delta-E=       -0.000065891753 Rises=F Damp=F
 DIIS: error= 7.51D-04 at cycle   7 NSaved=   7.
 NSaved= 7 IEnMin= 7 EnMin= -231.667185083112     IErMin= 7 ErrMin= 7.51D-04
 ErrMax= 7.51D-04  0.00D+00 EMaxC= 1.00D+00 BMatC= 1.23D-05 BMatP= 4.43D-05
 IDIUse=1 WtCom= 1.00D+00 WtEn= 0.00D+00
 Coeff-Com: -0.237D-01 0.487D-01-0.189D+00-0.434D-01 0.154D+01-0.397D+01
 Coeff-Com:  0.364D+01
 Coeff:     -0.237D-01 0.487D-01-0.189D+00-0.434D-01 0.154D+01-0.397D+01
 Coeff:      0.364D+01
 Gap=     0.394 Goal=   None    Shift=    0.500
 Gap=     0.230 Goal=   None    Shift=    0.500
 RMSDP=6.56D-05 MaxDP=1.12D-03 DE=-6.59D-05 OVMax= 3.16D-03

 Cycle   8  Pass 1  IDiag  1:
 Density matrix breaks symmetry, PCut= 1.00D-04
 Density has only Abelian symmetry.
 E= -231.667202680167     Delta-E=       -0.000017597054 Rises=F Damp=F
 DIIS: error= 3.82D-04 at cycle   8 NSaved=   8.
 NSaved= 8 IEnMin= 8 EnMin= -231.667202680167     IErMin= 8 ErrMin= 3.82D-04
 ErrMax= 3.82D-04  0.00D+00 EMaxC= 1.00D+00 BMatC= 3.11D-06 BMatP= 1.23D-05
 IDIUse=1 WtCom= 1.00D+00 WtEn= 0.00D+00
 Coeff-Com:  0.588D-02-0.106D-01 0.436D-01-0.238D-01-0.437D+00 0.162D+01
 Coeff-Com: -0.315D+01 0.295D+01
 Coeff:      0.588D-02-0.106D-01 0.436D-01-0.238D-01-0.437D+00 0.162D+01
 Coeff:     -0.315D+01 0.295D+01
 Gap=     0.394 Goal=   None    Shift=    0.500
 Gap=     0.230 Goal=   None    Shift=    0.500
 RMSDP=3.15D-05 MaxDP=5.05D-04 DE=-1.76D-05 OVMax= 1.60D-03

 Cycle   9  Pass 1  IDiag  1:
 Density matrix breaks symmetry, PCut= 1.00D-04
 Density has only Abelian symmetry.
 E= -231.667206900259     Delta-E=       -0.000004220092 Rises=F Damp=F
 DIIS: error= 1.88D-04 at cycle   9 NSaved=   9.
 NSaved= 9 IEnMin= 9 EnMin= -231.667206900259     IErMin= 9 ErrMin= 1.88D-04
 ErrMax= 1.88D-04  0.00D+00 EMaxC= 1.00D+00 BMatC= 7.06D-07 BMatP= 3.11D-06
 IDIUse=1 WtCom= 1.00D+00 WtEn= 0.00D+00
 Coeff-Com: -0.461D-02 0.883D-02-0.281D-01-0.223D-02 0.284D+00-0.995D+00
 Coeff-Com:  0.198D+01-0.322D+01 0.298D+01
 Coeff:     -0.461D-02 0.883D-02-0.281D-01-0.223D-02 0.284D+00-0.995D+00
 Coeff:      0.198D+01-0.322D+01 0.298D+01
 Gap=     0.394 Goal=   None    Shift=    0.500
 Gap=     0.230 Goal=   None    Shift=    0.500
 RMSDP=1.46D-05 MaxDP=2.36D-04 DE=-4.22D-06 OVMax= 7.81D-04

 Cycle  10  Pass 1  IDiag  1:
 Density matrix breaks symmetry, PCut= 1.00D-04
 Density has only Abelian symmetry.
 E= -231.667207849001     Delta-E=       -0.000000948742 Rises=F Damp=F
 DIIS: error= 9.24D-05 at cycle  10 NSaved=  10.
 NSaved=10 IEnMin=10 EnMin= -231.667207849001     IErMin=10 ErrMin= 9.24D-05
 ErrMax= 9.24D-05  0.00D+00 EMaxC= 1.00D+00 BMatC= 1.55D-07 BMatP= 7.06D-07
 IDIUse=1 WtCom= 1.00D+00 WtEn= 0.00D+00
 Coeff-Com:  0.187D-02-0.341D-02 0.104D-01-0.590D-02-0.980D-01 0.390D+00
 Coeff-Com: -0.869D+00 0.160D+01-0.279D+01 0.276D+01
 Coeff:      0.187D-02-0.341D-02 0.104D-01-0.590D-02-0.980D-01 0.390D+00
 Coeff:     -0.869D+00 0.160D+01-0.279D+01 0.276D+01
 Gap=     0.394 Goal=   None    Shift=    0.500
 Gap=     0.230 Goal=   None    Shift=    0.500
 RMSDP=6.80D-06 MaxDP=1.11D-04 DE=-9.49D-07 OVMax= 3.77D-04

 Cycle  11  Pass 1  IDiag  1:
 Density matrix breaks symmetry, PCut= 1.00D-04
 Density has only Abelian symmetry.
 E= -231.667208056794     Delta-E=       -0.000000207793 Rises=F Damp=F
 DIIS: error= 4.51D-05 at cycle  11 NSaved=  11.
 NSaved=11 IEnMin=11 EnMin= -231.667208056794     IErMin=11 ErrMin= 4.51D-05
 ErrMax= 4.51D-05  0.00D+00 EMaxC= 1.00D+00 BMatC= 3.36D-08 BMatP= 1.55D-07
 IDIUse=1 WtCom= 1.00D+00 WtEn= 0.00D+00
 Coeff-Com: -0.519D-03 0.974D-03-0.236D-02 0.537D-03 0.182D-01-0.710D-01
 Coeff-Com:  0.168D+00-0.397D+00 0.950D+00-0.220D+01 0.254D+01
 Coeff:     -0.519D-03 0.974D-03-0.236D-02 0.537D-03 0.182D-01-0.710D-01
 Coeff:      0.168D+00-0.397D+00 0.950D+00-0.220D+01 0.254D+01
 Gap=     0.394 Goal=   None    Shift=    0.500
 Gap=     0.230 Goal=   None    Shift=    0.500
 RMSDP=3.14D-06 MaxDP=5.10D-05 DE=-2.08D-07 OVMax= 1.80D-04

 Cycle  12  Pass 1  IDiag  1:
 Density matrix breaks symmetry, PCut= 1.00D-04
 Density has only Abelian symmetry.
 E= -231.667208101778     Delta-E=       -0.000000044984 Rises=F Damp=F
 DIIS: error= 2.23D-05 at cycle  12 NSaved=  12.
 NSaved=12 IEnMin=12 EnMin= -231.667208101778     IErMin=12 ErrMin= 2.23D-05
 ErrMax= 2.23D-05  0.00D+00 EMaxC= 1.00D+00 BMatC= 7.42D-09 BMatP= 3.36D-08
 IDIUse=1 WtCom= 1.00D+00 WtEn= 0.00D+00
 Coeff-Com: -0.190D-03 0.391D-03-0.126D-02-0.954D-03 0.165D-01-0.548D-01
 Coeff-Com:  0.111D+00-0.170D+00 0.129D+00 0.489D+00-0.232D+01 0.280D+01
 Coeff:     -0.190D-03 0.391D-03-0.126D-02-0.954D-03 0.165D-01-0.548D-01
 Coeff:      0.111D+00-0.170D+00 0.129D+00 0.489D+00-0.232D+01 0.280D+01
 Gap=     0.394 Goal=   None    Shift=    0.500
 Gap=     0.230 Goal=   None    Shift=    0.500
 RMSDP=1.44D-06 MaxDP=2.35D-05 DE=-4.50D-08 OVMax= 8.78D-05

 Cycle  13  Pass 1  IDiag  1:
 Density matrix breaks symmetry, PCut= 1.00D-04
 Density has only Abelian symmetry.
 E= -231.667208111642     Delta-E=       -0.000000009863 Rises=F Damp=F
 DIIS: error= 1.09D-05 at cycle  13 NSaved=  13.
 NSaved=13 IEnMin=13 EnMin= -231.667208111642     IErMin=13 ErrMin= 1.09D-05
 ErrMax= 1.09D-05  0.00D+00 EMaxC= 1.00D+00 BMatC= 1.64D-09 BMatP= 7.42D-09
 IDIUse=1 WtCom= 1.00D+00 WtEn= 0.00D+00
 Coeff-Com:  0.118D-03-0.233D-03 0.744D-03 0.434D-04-0.800D-02 0.275D-01
 Coeff-Com: -0.552D-01 0.847D-01-0.740D-01-0.209D+00 0.127D+01-0.314D+01
 Coeff-Com:  0.311D+01
 Coeff:      0.118D-03-0.233D-03 0.744D-03 0.434D-04-0.800D-02 0.275D-01
 Coeff:     -0.552D-01 0.847D-01-0.740D-01-0.209D+00 0.127D+01-0.314D+01
 Coeff:      0.311D+01
 Gap=     0.394 Goal=   None    Shift=    0.500
 Gap=     0.230 Goal=   None    Shift=    0.500
 RMSDP=6.59D-07 MaxDP=1.08D-05 DE=-9.86D-09 OVMax= 4.23D-05

 Density matrix breaks symmetry, PCut= 1.00D-04
 Density has only Abelian symmetry.
 SCF Done:  E(ULC-wHPBE) =  -231.667208112     A.U. after   13 cycles
            NFock= 13  Conv=0.66D-06     -V/T= 2.0046
 <Sx>= 0.0000 <Sy>= 0.0000 <Sz>= 0.5000 <S**2>= 0.7761 S= 0.5130
 <L.S>= 0.000000000000E+00
 KE= 2.305968122748D+02 PE=-9.349016875585D+02 EE= 2.690936690800D+02
 Annihilation of the first spin contaminant:
 S**2 before annihilation     0.7761,   after     0.7503
 Leave Link  502 at Mon Mar 16 03:49:57 2020, MaxMem=  6710886400 cpu:              20.8 elap:               1.3
 (Enter /opt/ohpc/pub/libs/gaussian/g16-A.03/sandybridge/g16/l508.exe)
 QCSCF skips out because SCF is already converged.
 Leave Link  508 at Mon Mar 16 03:49:57 2020, MaxMem=  6710886400 cpu:               0.2 elap:               0.0
 (Enter /opt/ohpc/pub/libs/gaussian/g16-A.03/sandybridge/g16/l601.exe)
 Copying SCF densities to generalized density rwf, IOpCl= 1 IROHF=0.
 SCF density gives NOpUse=  8 NOpAll= 24.
 Marking SCF density as not fully symmetric.

 **********************************************************************

            Population analysis using the SCF density.

 **********************************************************************

 Orbital symmetries:
 Alpha Orbitals:
       Occupied  (?A) (?A) (?A) (?A) (?A) (?A) (?B) (?B) (?B) (?B)
                 (?B) (?B) (?B) (?B) (?B) (?B) (?C) (?B) (?B) (?C)
                 (?C)
       Virtual   (?C) (?C) (?B) (?C) (?B) (?B) (?B) (?B) (?B) (?B)
                 (?B) (?B) (?B) (?B) (?C) (?B) (?B) (?B) (?C) (?C)
                 (?B) (?B) (?B) (?C) (?B) (?B) (?C) (?C) (?B) (?B)
                 (?B) (?B) (?B) (?B) (?B) (?B) (?B) (?B) (?B) (?B)
                 (?B) (?B) (?B) (?B) (?B)
 Beta  Orbitals:
       Occupied  (?A) (?A) (?A) (?A) (?A) (?A) (?B) (B2G) (B2G)
                 (?B) (?B) (?B) (B2G) (B2G) (B2G) (B2G) (?C) (?B)
                 (?B) (?D)
       Virtual   (?D) (?C) (?C) (?D) (?D) (B2G) (B2G) (?D) (?D)
                 (B2G) (?D) (?D) (B2G) (B2G) (B2G) (?C) (B2G) (?D)
                 (?D) (?D) (?D) (?D) (?D) (?D) (B2G) (B2G) (?C)
                 (?C) (?D) (B2G) (?A) (?A) (B2G) (B2G) (?A) (?D)
                 (B2G) (B2G) (?D) (?D) (B2G) (B2G) (B2G) (E2G)
                 (E2G) (B1U)
 Unable to determine electronic state:  an orbital has unidentified symmetry.
 Alpha  occ. eigenvalues --  -10.33206 -10.33203 -10.33179 -10.33175 -10.29398
 Alpha  occ. eigenvalues --  -10.29394  -1.21655  -1.11108  -1.08460  -0.94262
 Alpha  occ. eigenvalues --   -0.94259  -0.85922  -0.79067  -0.77883  -0.76007
 Alpha  occ. eigenvalues --   -0.73914  -0.72939  -0.66457  -0.66148  -0.61265
 Alpha  occ. eigenvalues --   -0.57257
 Alpha virt. eigenvalues --   -0.17869  -0.14379  -0.00824   0.01761   0.04346
 Alpha virt. eigenvalues --    0.05475   0.07889   0.08976   0.10420   0.17948
 Alpha virt. eigenvalues --    0.18440   0.19224   0.19793   0.37903   0.38732
 Alpha virt. eigenvalues --    0.41205   0.43625   0.43994   0.46847   0.49112
 Alpha virt. eigenvalues --    0.49384   0.49908   0.52752   0.53279   0.53867
 Alpha virt. eigenvalues --    0.54330   0.55298   0.62548   0.72561   0.73908
 Alpha virt. eigenvalues --    0.75304   0.78281   0.79976   0.85654   0.86055
 Alpha virt. eigenvalues --    0.88238   0.88259   1.00272   1.01870   1.06252
 Alpha virt. eigenvalues --    1.07212   1.11525   1.33707   1.33965   1.79149
  Beta  occ. eigenvalues --  -10.32735 -10.32735 -10.32714 -10.32709 -10.29599
  Beta  occ. eigenvalues --  -10.29595  -1.20503  -1.08804  -1.08258  -0.93726
  Beta  occ. eigenvalues --   -0.93300  -0.85615  -0.78592  -0.77435  -0.75463
  Beta  occ. eigenvalues --   -0.73930  -0.67953  -0.66239  -0.65858  -0.57107
  Beta virt. eigenvalues --   -0.34100  -0.12568  -0.12508  -0.00633   0.04060
  Beta virt. eigenvalues --    0.04616   0.05527   0.08687   0.09123   0.10733
  Beta virt. eigenvalues --    0.18557   0.18640   0.19711   0.20160   0.38247
  Beta virt. eigenvalues --    0.40284   0.42280   0.44083   0.44360   0.49482
  Beta virt. eigenvalues --    0.49503   0.50064   0.50479   0.53078   0.54610
  Beta virt. eigenvalues --    0.55068   0.55408   0.55643   0.63507   0.72869
  Beta virt. eigenvalues --    0.74266   0.75387   0.78929   0.79994   0.85886
  Beta virt. eigenvalues --    0.86283   0.88528   0.89230   1.01593   1.02164
  Beta virt. eigenvalues --    1.07129   1.07320   1.12022   1.34235   1.34776
  Beta virt. eigenvalues --    1.79921
          Condensed to atoms (all electrons):
               1          2          3          4          5          6
     1  C    4.912365   0.521428  -0.063622  -0.022969  -0.063622   0.521428
     2  C    0.521428   4.965514   0.412511  -0.063622  -0.023757  -0.049511
     3  C   -0.063622   0.412511   4.965514   0.521428  -0.049511  -0.023757
     4  C   -0.022969  -0.063622   0.521428   4.912365   0.521428  -0.063622
     5  C   -0.063622  -0.023757  -0.049511   0.521428   4.965514   0.412511
     6  C    0.521428  -0.049511  -0.023757  -0.063622   0.412511   4.965514
     7  H    0.371543  -0.024084   0.003256   0.000064   0.003256  -0.024084
     8  H   -0.020362   0.365820  -0.028256   0.002995   0.000062   0.003166
     9  H    0.002995  -0.028256   0.365820  -0.020362   0.003166   0.000062
    10  H    0.000064   0.003256  -0.024084   0.371543  -0.024084   0.003256
    11  H    0.002995   0.000062   0.003166  -0.020362   0.365820  -0.028256
    12  H   -0.020362   0.003166   0.000062   0.002995  -0.028256   0.365820
               7          8          9         10         11         12
     1  C    0.371543  -0.020362   0.002995   0.000064   0.002995  -0.020362
     2  C   -0.024084   0.365820  -0.028256   0.003256   0.000062   0.003166
     3  C    0.003256  -0.028256   0.365820  -0.024084   0.003166   0.000062
     4  C    0.000064   0.002995  -0.020362   0.371543  -0.020362   0.002995
     5  C    0.003256   0.000062   0.003166  -0.024084   0.365820  -0.028256
     6  C   -0.024084   0.003166   0.000062   0.003256  -0.028256   0.365820
     7  H    0.417095  -0.002603  -0.000071   0.000002  -0.000071  -0.002603
     8  H   -0.002603   0.407298  -0.002303  -0.000071   0.000004  -0.000067
     9  H   -0.000071  -0.002303   0.407298  -0.002603  -0.000067   0.000004
    10  H    0.000002  -0.000071  -0.002603   0.417095  -0.002603  -0.000071
    11  H   -0.000071   0.000004  -0.000067  -0.002603   0.407298  -0.002303
    12  H   -0.002603  -0.000067   0.000004  -0.000071  -0.002303   0.407298
          Atomic-Atomic Spin Densities.
               1          2          3          4          5          6
     1  C   -0.183048  -0.007031  -0.007518   0.005924  -0.007518  -0.007031
     2  C   -0.007031   0.355767   0.040362  -0.007518  -0.007268  -0.006001
     3  C   -0.007518   0.040362   0.355767  -0.007031  -0.006001  -0.007268
     4  C    0.005924  -0.007518  -0.007031  -0.183048  -0.007031  -0.007518
     5  C   -0.007518  -0.007268  -0.006001  -0.007031   0.355767   0.040362
     6  C   -0.007031  -0.006001  -0.007268  -0.007518   0.040362   0.355767
     7  H    0.001537  -0.000934   0.000151  -0.000052   0.000151  -0.000934
     8  H    0.000060   0.000386  -0.001802  -0.000009  -0.000055   0.000083
     9  H   -0.000009  -0.001802   0.000386   0.000060   0.000083  -0.000055
    10  H   -0.000052   0.000151  -0.000934   0.001537  -0.000934   0.000151
    11  H   -0.000009  -0.000055   0.000083   0.000060   0.000386  -0.001802
    12  H    0.000060   0.000083  -0.000055  -0.000009  -0.001802   0.000386
               7          8          9         10         11         12
     1  C    0.001537   0.000060  -0.000009  -0.000052  -0.000009   0.000060
     2  C   -0.000934   0.000386  -0.001802   0.000151  -0.000055   0.000083
     3  C    0.000151  -0.001802   0.000386  -0.000934   0.000083  -0.000055
     4  C   -0.000052  -0.000009   0.000060   0.001537   0.000060  -0.000009
     5  C    0.000151  -0.000055   0.000083  -0.000934   0.000386  -0.001802
     6  C   -0.000934   0.000083  -0.000055   0.000151  -0.001802   0.000386
     7  H    0.005084  -0.000003   0.000004  -0.000001   0.000004  -0.000003
     8  H   -0.000003  -0.014944  -0.000047   0.000004  -0.000000   0.000005
     9  H    0.000004  -0.000047  -0.014944  -0.000003   0.000005  -0.000000
    10  H   -0.000001   0.000004  -0.000003   0.005084  -0.000003   0.000004
    11  H    0.000004  -0.000000   0.000005  -0.000003  -0.014944  -0.000047
    12  H   -0.000003   0.000005  -0.000000   0.000004  -0.000047  -0.014944
 Mulliken charges and spin densities:
               1          2
     1  C   -0.141879  -0.204636
     2  C   -0.082527   0.366139
     3  C   -0.082527   0.366139
     4  C   -0.141879  -0.204636
     5  C   -0.082527   0.366139
     6  C   -0.082527   0.366139
     7  H    0.258299   0.005004
     8  H    0.274317  -0.016323
     9  H    0.274317  -0.016323
    10  H    0.258299   0.005004
    11  H    0.274317  -0.016323
    12  H    0.274317  -0.016323
 Sum of Mulliken charges =   1.00000   1.00000
 Mulliken charges and spin densities with hydrogens summed into heavy atoms:
               1          2
     1  C    0.116420  -0.199632
     2  C    0.191790   0.349816
     3  C    0.191790   0.349816
     4  C    0.116420  -0.199632
     5  C    0.191790   0.349816
     6  C    0.191790   0.349816
 Electronic spatial extent (au):  <R**2>=            437.1398
 Charge=              1.0000 electrons
 Dipole moment (field-independent basis, Debye):
    X=             -0.0000    Y=             -0.0000    Z=             -0.0000  Tot=              0.0000
 Quadrupole moment (field-independent basis, Debye-Ang):
   XX=            -18.0203   YY=            -21.6889   ZZ=            -35.0151
   XY=             -0.0000   XZ=              0.0000   YZ=              0.0000
 Traceless Quadrupole moment (field-independent basis, Debye-Ang):
   XX=              6.8878   YY=              3.2192   ZZ=            -10.1070
   XY=             -0.0000   XZ=              0.0000   YZ=              0.0000
 Octapole moment (field-independent basis, Debye-Ang**2):
  XXX=              0.0000  YYY=              0.0000  ZZZ=              0.0000  XYY=             -0.0000
  XXY=             -0.0000  XXZ=              0.0000  XZZ=             -0.0000  YZZ=              0.0000
  YYZ=              0.0000  XYZ=              0.0000
 Hexadecapole moment (field-independent basis, Debye-Ang**3):
 XXXX=           -195.6418 YYYY=           -210.0098 ZZZZ=            -34.1286 XXXY=              0.0000
 XXXZ=              0.0000 YYYX=              0.0000 YYYZ=              0.0000 ZZZX=             -0.0000
 ZZZY=             -0.0000 XXYY=            -66.0904 XXZZ=            -51.9782 YYZZ=            -55.2823
 XXYZ=              0.0000 YYXZ=              0.0000 ZZXY=              0.0000
 N-N= 2.035439980921D+02 E-N=-9.349016892572D+02  KE= 2.305968122748D+02
 Symmetry AG   KE= 7.452000646667D+01
 Symmetry B1G  KE= 3.776555104143D+01
 Symmetry B2G  KE= 1.197626481194D+00
 Symmetry B3G  KE= 2.342817074802D+00
 Symmetry AU   KE= 1.184243508113D-16
 Symmetry B1U  KE= 1.958278966221D+00
 Symmetry B2U  KE= 7.220180769246D+01
 Symmetry B3U  KE= 4.061072455203D+01
 Symmetry AG   SP=-9.498580036665D-15
 Symmetry B1G  SP=-2.728396461126D-15
 Symmetry B2G  SP= 1.000000000000D+00
 Symmetry B3G  SP= 3.450663149315D-15
 Symmetry AU   SP=-1.275610627451D-17
 Symmetry B1U  SP= 3.357787680715D-15
 Symmetry B2U  SP= 1.216332874807D-14
 Symmetry B3U  SP=-8.873300315002D-15
                          Isotropic Fermi Contact Couplings
        Atom                 a.u.       MegaHertz       Gauss      10(-4) cm-1
     1  C(13)             -0.03154     -35.45428     -12.65097     -11.82628
     2  C(13)              0.04320      48.56903      17.33064      16.20088
     3  C(13)              0.04320      48.56903      17.33064      16.20088
     4  C(13)             -0.03154     -35.45428     -12.65097     -11.82628
     5  C(13)              0.04320      48.56903      17.33064      16.20088
     6  C(13)              0.04320      48.56903      17.33064      16.20088
     7  H(1)               0.00195       8.72817       3.11443       2.91140
     8  H(1)              -0.00637     -28.46728     -10.15783      -9.49566
     9  H(1)              -0.00637     -28.46728     -10.15783      -9.49566
    10  H(1)               0.00195       8.72817       3.11443       2.91140
    11  H(1)              -0.00637     -28.46728     -10.15783      -9.49566
    12  H(1)              -0.00637     -28.46728     -10.15783      -9.49566
 --------------------------------------------------------
       Center         ----  Spin Dipole Couplings  ----
                      3XX-RR        3YY-RR        3ZZ-RR
 --------------------------------------------------------
     1   Atom        0.070069      0.062278     -0.132347
     2   Atom       -0.187667     -0.180252      0.367920
     3   Atom       -0.187667     -0.180252      0.367920
     4   Atom        0.070069      0.062278     -0.132347
     5   Atom       -0.187667     -0.180252      0.367920
     6   Atom       -0.187667     -0.180252      0.367920
     7   Atom        0.006408     -0.000783     -0.005626
     8   Atom        0.011239     -0.003672     -0.007567
     9   Atom        0.011239     -0.003672     -0.007567
    10   Atom        0.006408     -0.000783     -0.005626
    11   Atom        0.011239     -0.003672     -0.007567
    12   Atom        0.011239     -0.003672     -0.007567
 --------------------------------------------------------
                        XY            XZ            YZ
 --------------------------------------------------------
     1   Atom        0.000000      0.000000      0.000000
     2   Atom       -0.004838     -0.000000     -0.000000
     3   Atom        0.004838     -0.000000      0.000000
     4   Atom       -0.000000      0.000000     -0.000000
     5   Atom       -0.004838      0.000000      0.000000
     6   Atom        0.004838      0.000000     -0.000000
     7   Atom        0.000000     -0.000000     -0.000000
     8   Atom       -0.028400     -0.000000      0.000000
     9   Atom        0.028400     -0.000000     -0.000000
    10   Atom       -0.000000     -0.000000      0.000000
    11   Atom       -0.028400      0.000000     -0.000000
    12   Atom        0.028400      0.000000      0.000000
 --------------------------------------------------------


 ---------------------------------------------------------------------------------
              Anisotropic Spin Dipole Couplings in Principal Axis System
 ---------------------------------------------------------------------------------

       Atom             a.u.   MegaHertz   Gauss  10(-4) cm-1        Axes

              Baa    -0.1323   -17.760    -6.337    -5.924  0.0000  0.0000  1.0000
     1 C(13)  Bbb     0.0623     8.357     2.982     2.788 -0.0000  1.0000 -0.0000
              Bcc     0.0701     9.403     3.355     3.136  1.0000  0.0000 -0.0000
 
              Baa    -0.1901   -25.504    -9.100    -8.507  0.8967  0.4426 -0.0000
     2 C(13)  Bbb    -0.1779   -23.868    -8.517    -7.961 -0.4426  0.8967 -0.0000
              Bcc     0.3679    49.371    17.617    16.468  0.0000  0.0000  1.0000
 
              Baa    -0.1901   -25.504    -9.100    -8.507  0.8967 -0.4426  0.0000
     3 C(13)  Bbb    -0.1779   -23.868    -8.517    -7.961  0.4426  0.8967 -0.0000
              Bcc     0.3679    49.371    17.617    16.468  0.0000  0.0000  1.0000
 
              Baa    -0.1323   -17.760    -6.337    -5.924  0.0000  0.0000  1.0000
     4 C(13)  Bbb     0.0623     8.357     2.982     2.788  0.0000  1.0000  0.0000
              Bcc     0.0701     9.403     3.355     3.136  1.0000 -0.0000  0.0000
 
              Baa    -0.1901   -25.504    -9.100    -8.507  0.8967  0.4426 -0.0000
     5 C(13)  Bbb    -0.1779   -23.868    -8.517    -7.961 -0.4426  0.8967 -0.0000
              Bcc     0.3679    49.371    17.617    16.468  0.0000  0.0000  1.0000
 
              Baa    -0.1901   -25.504    -9.100    -8.507  0.8967 -0.4426  0.0000
     6 C(13)  Bbb    -0.1779   -23.868    -8.517    -7.961  0.4426  0.8967 -0.0000
              Bcc     0.3679    49.371    17.617    16.468  0.0000  0.0000  1.0000
 
              Baa    -0.0056    -3.002    -1.071    -1.001  0.0000  0.0000  1.0000
     7 H(1)   Bbb    -0.0008    -0.418    -0.149    -0.139 -0.0000  1.0000 -0.0000
              Bcc     0.0064     3.419     1.220     1.141  1.0000  0.0000 -0.0000
 
              Baa    -0.0256   -13.647    -4.870    -4.552  0.6108  0.7918  0.0000
     8 H(1)   Bbb    -0.0076    -4.038    -1.441    -1.347  0.0000  0.0000  1.0000
              Bcc     0.0331    17.685     6.310     5.899  0.7918 -0.6108  0.0000
 
              Baa    -0.0256   -13.647    -4.870    -4.552 -0.6108  0.7918  0.0000
     9 H(1)   Bbb    -0.0076    -4.038    -1.441    -1.347  0.0000  0.0000  1.0000
              Bcc     0.0331    17.685     6.310     5.899  0.7918  0.6108 -0.0000
 
              Baa    -0.0056    -3.002    -1.071    -1.001  0.0000  0.0000  1.0000
    10 H(1)   Bbb    -0.0008    -0.418    -0.149    -0.139  0.0000  1.0000  0.0000
              Bcc     0.0064     3.419     1.220     1.141  1.0000 -0.0000  0.0000
 
              Baa    -0.0256   -13.647    -4.870    -4.552  0.6108  0.7918  0.0000
    11 H(1)   Bbb    -0.0076    -4.038    -1.441    -1.347  0.0000  0.0000  1.0000
              Bcc     0.0331    17.685     6.310     5.899  0.7918 -0.6108  0.0000
 
              Baa    -0.0256   -13.647    -4.870    -4.552 -0.6108  0.7918  0.0000
    12 H(1)   Bbb    -0.0076    -4.038    -1.441    -1.347  0.0000  0.0000  1.0000
              Bcc     0.0331    17.685     6.310     5.899  0.7918  0.6108 -0.0000
 

 ---------------------------------------------------------------------------------

 No NMR shielding tensors so no spin-rotation constants.
 Leave Link  601 at Mon Mar 16 03:49:57 2020, MaxMem=  6710886400 cpu:               5.3 elap:               0.4
 (Enter /opt/ohpc/pub/libs/gaussian/g16-A.03/sandybridge/g16/l9999.exe)

 Test job not archived.
 1\1\GINC-CNODE145\SP\ULC-wHPBE\6-31G\C6H6(1+,2)\QAI222\16-Mar-2020\0\\
 #P uLC-wHPBE/6-31G iop(3/107=0314100000, 3/108=0314100000) scf=(conver
 =6,fermi,ndamp=35,noincfock,novaracc,vshift=500,xqc)\\H6 C6\\1,2\C,0,0
 .,1.39316,0.\C,0,-1.206512,0.69658,0.\C,0,-1.206512,-0.69658,0.\C,0,0.
 ,-1.39316,0.\C,0,1.206512,-0.69658,0.\C,0,1.206512,0.69658,0.\H,0,0.,2
 .482681,0.\H,0,-2.150065,1.24134,0.\H,0,-2.150065,-1.24134,0.\H,0,0.,-
 2.482681,0.\H,0,2.150065,-1.24134,0.\H,0,2.150065,1.24134,0.\\Version=
 EM64L-G16RevA.03\HF=-231.6672081\S2=0.776075\S2-1=0.\S2A=0.750327\RMSD
 =6.588e-07\Dipole=0.,0.,0.\Quadrupole=5.1209308,2.3933869,-7.5143177,0
 .,0.,0.\PG=D06H [3C2'(H1C1.C1H1)]\\@


 FORGIVE MY NONSENSE AS I ALSO FORGIVE THOSE WHO THINK THEY TALK SENSE

                                                       -- ROBERT FROST
 Job cpu time:       0 days  0 hours  0 minutes 50.9 seconds.
 Elapsed time:       0 days  0 hours  0 minutes  3.5 seconds.
 File lengths (MBytes):  RWF=    272 Int=      0 D2E=      0 Chk=     32 Scr=     32
 Normal termination of Gaussian 16 at Mon Mar 16 03:49:57 2020.
