 Entering Gaussian System, Link 0=g16
 Input=1b_tune_n2.gjf
 Output=1b_tune_n2.log
 Initial command:
 /opt/ohpc/pub/libs/gaussian/g16-A.03/haswell/g16/l1.exe "/scratch/smgo234/Ocelot/test/1b/tuning_1b_ocycle0/Gau-33205.inp" -scrdir="/scratch/smgo234/Ocelot/test/1b/tuning_1b_ocycle0/"
 Entering Link 1 = /opt/ohpc/pub/libs/gaussian/g16-A.03/haswell/g16/l1.exe PID=     33206.
  
 Copyright (c) 1988,1990,1992,1993,1995,1998,2003,2009,2016,
            Gaussian, Inc.  All Rights Reserved.
  
 This is part of the Gaussian(R) 16 program.  It is based on
 the Gaussian(R) 09 system (copyright 2009, Gaussian, Inc.),
 the Gaussian(R) 03 system (copyright 2003, Gaussian, Inc.),
 the Gaussian(R) 98 system (copyright 1998, Gaussian, Inc.),
 the Gaussian(R) 94 system (copyright 1995, Gaussian, Inc.),
 the Gaussian 92(TM) system (copyright 1992, Gaussian, Inc.),
 the Gaussian 90(TM) system (copyright 1990, Gaussian, Inc.),
 the Gaussian 88(TM) system (copyright 1988, Gaussian, Inc.),
 the Gaussian 86(TM) system (copyright 1986, Carnegie Mellon
 University), and the Gaussian 82(TM) system (copyright 1983,
 Carnegie Mellon University). Gaussian is a federally registered
 trademark of Gaussian, Inc.
  
 This software contains proprietary and confidential information,
 including trade secrets, belonging to Gaussian, Inc.
  
 This software is provided under written license and may be
 used, copied, transmitted, or stored only in accord with that
 written license.
  
 The following legend is applicable only to US Government
 contracts under FAR:
  
                    RESTRICTED RIGHTS LEGEND
  
 Use, reproduction and disclosure by the US Government is
 subject to restrictions as set forth in subparagraphs (a)
 and (c) of the Commercial Computer Software - Restricted
 Rights clause in FAR 52.227-19.
  
 Gaussian, Inc.
 340 Quinnipiac St., Bldg. 40, Wallingford CT 06492
  
  
 ---------------------------------------------------------------
 Warning -- This program may not be used in any manner that
 competes with the business of Gaussian, Inc. or will provide
 assistance to any competitor of Gaussian, Inc.  The licensee
 of this program is prohibited from giving any competitor of
 Gaussian, Inc. access to this program.  By using this program,
 the user acknowledges that Gaussian, Inc. is engaged in the
 business of creating and licensing software in the field of
 computational chemistry and represents and warrants to the
 licensee that it is not a competitor of Gaussian, Inc. and that
 it will not use this program in any manner prohibited above.
 ---------------------------------------------------------------
  

 Cite this work as:
 Gaussian 16, Revision A.03,
 M. J. Frisch, G. W. Trucks, H. B. Schlegel, G. E. Scuseria, 
 M. A. Robb, J. R. Cheeseman, G. Scalmani, V. Barone, 
 G. A. Petersson, H. Nakatsuji, X. Li, M. Caricato, A. V. Marenich, 
 J. Bloino, B. G. Janesko, R. Gomperts, B. Mennucci, H. P. Hratchian, 
 J. V. Ortiz, A. F. Izmaylov, J. L. Sonnenberg, D. Williams-Young, 
 F. Ding, F. Lipparini, F. Egidi, J. Goings, B. Peng, A. Petrone, 
 T. Henderson, D. Ranasinghe, V. G. Zakrzewski, J. Gao, N. Rega, 
 G. Zheng, W. Liang, M. Hada, M. Ehara, K. Toyota, R. Fukuda, 
 J. Hasegawa, M. Ishida, T. Nakajima, Y. Honda, O. Kitao, H. Nakai, 
 T. Vreven, K. Throssell, J. A. Montgomery, Jr., J. E. Peralta, 
 F. Ogliaro, M. J. Bearpark, J. J. Heyd, E. N. Brothers, K. N. Kudin, 
 V. N. Staroverov, T. A. Keith, R. Kobayashi, J. Normand, 
 K. Raghavachari, A. P. Rendell, J. C. Burant, S. S. Iyengar, 
 J. Tomasi, M. Cossi, J. M. Millam, M. Klene, C. Adamo, R. Cammi, 
 J. W. Ochterski, R. L. Martin, K. Morokuma, O. Farkas, 
 J. B. Foresman, and D. J. Fox, Gaussian, Inc., Wallingford CT, 2016.
 
 ******************************************
 Gaussian 16:  ES64L-G16RevA.03 25-Dec-2016
                25-Feb-2020 
 ******************************************
 %mem=50GB
 %nproc=16
 Will use up to   16 processors via shared memory.
 ----------------------------------------------------------------------
 #P uLC-wHPBE/6-31G iop(3/107=0393800000, 3/108=0393800000) scf=(conver
 =6,fermi,ndamp=35,noincfock,novaracc,vshift=500,xqc)
 ----------------------------------------------------------------------
 1/38=1,172=1/1;
 2/12=2,17=6,18=5,40=1/2;
 3/5=1,6=6,11=2,25=1,30=1,74=-71,107=393800000,108=393800000,116=2/1,2,3;
 4//1;
 5/5=100002,6=6,8=3,10=500,13=1,18=-1,22=13,38=1,93=35/2,8;
 6/7=2,8=2,9=2,10=2,28=1/1;
 99/5=1,9=1/99;
 Leave Link    1 at Tue Feb 25 12:19:36 2020, MaxMem=  6710886400 cpu:               9.3 elap:               0.6
 (Enter /opt/ohpc/pub/libs/gaussian/g16-A.03/haswell/g16/l101.exe)
 -----
 H6 C5
 -----
 Symbolic Z-matrix:
 Charge =  0 Multiplicity = 1
 C                    -1.20651   0.69658   0. 
 C                    -1.20651  -0.69658   0. 
 C                     0.       -1.39316   0. 
 C                     1.20651  -0.69658   0. 
 C                     1.20651   0.69658   0. 
 H                     0.        2.48268   0. 
 H                    -2.15007   1.24134   0. 
 H                    -2.15007  -1.24134   0. 
 H                     0.       -2.48268   0. 
 H                     2.15007  -1.24134   0. 
 H                     2.15007   1.24134   0. 
 
 ITRead=  0  0  0  0  0  0  0  0  0  0  0
 MicOpt= -1 -1 -1 -1 -1 -1 -1 -1 -1 -1 -1
 NAtoms=     11 NQM=       11 NQMF=       0 NMMI=      0 NMMIF=      0
                NMic=       0 NMicF=      0.
                    Isotopes and Nuclear Properties:
 (Nuclear quadrupole moments (NQMom) in fm**2, nuclear magnetic moments (NMagM)
  in nuclear magnetons)

  Atom         1           2           3           4           5           6           7           8           9          10
 IAtWgt=          12          12          12          12          12           1           1           1           1           1
 AtmWgt=  12.0000000  12.0000000  12.0000000  12.0000000  12.0000000   1.0078250   1.0078250   1.0078250   1.0078250   1.0078250
 NucSpn=           0           0           0           0           0           1           1           1           1           1
 AtZEff=  -0.0000000  -0.0000000  -0.0000000  -0.0000000  -0.0000000  -0.0000000  -0.0000000  -0.0000000  -0.0000000  -0.0000000
 NQMom=    0.0000000   0.0000000   0.0000000   0.0000000   0.0000000   0.0000000   0.0000000   0.0000000   0.0000000   0.0000000
 NMagM=    0.0000000   0.0000000   0.0000000   0.0000000   0.0000000   2.7928460   2.7928460   2.7928460   2.7928460   2.7928460
 AtZNuc=   6.0000000   6.0000000   6.0000000   6.0000000   6.0000000   1.0000000   1.0000000   1.0000000   1.0000000   1.0000000

  Atom        11
 IAtWgt=           1
 AtmWgt=   1.0078250
 NucSpn=           1
 AtZEff=  -0.0000000
 NQMom=    0.0000000
 NMagM=    2.7928460
 AtZNuc=   1.0000000
 Leave Link  101 at Tue Feb 25 12:19:36 2020, MaxMem=  6710886400 cpu:               1.4 elap:               0.1
 (Enter /opt/ohpc/pub/libs/gaussian/g16-A.03/haswell/g16/l202.exe)
                          Input orientation:                          
 ---------------------------------------------------------------------
 Center     Atomic      Atomic             Coordinates (Angstroms)
 Number     Number       Type             X           Y           Z
 ---------------------------------------------------------------------
      1          6           0       -1.206512    0.696580    0.000000
      2          6           0       -1.206512   -0.696580    0.000000
      3          6           0        0.000000   -1.393160    0.000000
      4          6           0        1.206512   -0.696580    0.000000
      5          6           0        1.206512    0.696580    0.000000
      6          1           0        0.000000    2.482681    0.000000
      7          1           0       -2.150065    1.241340    0.000000
      8          1           0       -2.150065   -1.241340    0.000000
      9          1           0        0.000000   -2.482681    0.000000
     10          1           0        2.150065   -1.241340    0.000000
     11          1           0        2.150065    1.241340    0.000000
 ---------------------------------------------------------------------
                    Distance matrix (angstroms):
                    1          2          3          4          5
     1  C    0.000000
     2  C    1.393160   0.000000
     3  C    2.413024   1.393160   0.000000
     4  C    2.786320   2.413024   1.393160   0.000000
     5  C    2.413024   2.786320   2.413024   1.393160   0.000000
     6  H    2.155418   3.400496   3.875841   3.400496   2.155418
     7  H    1.089521   2.155418   3.400496   3.875841   3.400496
     8  H    2.155418   1.089521   2.155418   3.400496   3.875841
     9  H    3.400496   2.155418   1.089521   2.155418   3.400496
    10  H    3.875841   3.400496   2.155418   1.089521   2.155418
    11  H    3.400496   3.875841   3.400496   2.155418   1.089521
                    6          7          8          9         10
     6  H    0.000000
     7  H    2.482681   0.000000
     8  H    4.300129   2.482680   0.000000
     9  H    4.965362   4.300129   2.482681   0.000000
    10  H    4.300129   4.965362   4.300130   2.482681   0.000000
    11  H    2.482681   4.300130   4.965362   4.300129   2.482680
                   11
    11  H    0.000000
 Stoichiometry    C5H6
 Framework group  C2V[C2(HCH),SGV(C4H4)]
 Deg. of freedom    10
 Full point group                 C2V     NOp   4
 Largest Abelian subgroup         C2V     NOp   4
 Largest concise Abelian subgroup C2      NOp   2
                         Standard orientation:                         
 ---------------------------------------------------------------------
 Center     Atomic      Atomic             Coordinates (Angstroms)
 Number     Number       Type             X           Y           Z
 ---------------------------------------------------------------------
      1          6           0       -0.000000    1.206512   -0.928773
      2          6           0       -0.000000    1.206512    0.464387
      3          6           0        0.000000    0.000000    1.160967
      4          6           0       -0.000000   -1.206512    0.464387
      5          6           0       -0.000000   -1.206512   -0.928773
      6          1           0       -0.000000   -0.000000   -2.714874
      7          1           0       -0.000000    2.150065   -1.473533
      8          1           0       -0.000000    2.150065    1.009147
      9          1           0        0.000000    0.000000    2.250488
     10          1           0       -0.000000   -2.150065    1.009147
     11          1           0       -0.000000   -2.150065   -1.473533
 ---------------------------------------------------------------------
 Rotational constants (GHZ):           8.2868568           5.7099792           3.3806054
 Leave Link  202 at Tue Feb 25 12:19:36 2020, MaxMem=  6710886400 cpu:               0.2 elap:               0.0
 (Enter /opt/ohpc/pub/libs/gaussian/g16-A.03/haswell/g16/l301.exe)
 Standard basis: 6-31G (6D, 7F)
 Ernie: Thresh=  0.10000D-02 Tol=  0.10000D-05 Strict=F.
 There are    27 symmetry adapted cartesian basis functions of A1  symmetry.
 There are     4 symmetry adapted cartesian basis functions of A2  symmetry.
 There are     6 symmetry adapted cartesian basis functions of B1  symmetry.
 There are    20 symmetry adapted cartesian basis functions of B2  symmetry.
 There are    27 symmetry adapted basis functions of A1  symmetry.
 There are     4 symmetry adapted basis functions of A2  symmetry.
 There are     6 symmetry adapted basis functions of B1  symmetry.
 There are    20 symmetry adapted basis functions of B2  symmetry.
    57 basis functions,   134 primitive gaussians,    57 cartesian basis functions
    18 alpha electrons       18 beta electrons
       nuclear repulsion energy       145.0218997931 Hartrees.
 IExCor=33909 DFT=T Ex+Corr=LC-wHPBE ExCW=0 ScaHFX=  1.000000
 ScaDFX=  1.000000  1.000000  1.000000  1.000000 ScalE2=  1.000000  1.000000
 IRadAn=      5 IRanWt=     -1 IRanGd=            0 ICorTp=0 IEmpDi=  4
 HFx  wShort=  0.000000 wLong=  0.393800 cFull=  0.000000 cShort=  0.000000 cLong=  1.000000
 DFx  wShort=  0.000000 wLong=  0.393800 cFull=  0.000000 cShort=  1.000000 cLong=  0.000000
 NAtoms=   11 NActive=   11 NUniq=    7 SFac= 2.47D+00 NAtFMM=   60 NAOKFM=F Big=F
 Integral buffers will be    131072 words long.
 Raffenetti 2 integral format.
 Two-electron integral symmetry is turned on.
 Leave Link  301 at Tue Feb 25 12:19:36 2020, MaxMem=  6710886400 cpu:               0.9 elap:               0.1
 (Enter /opt/ohpc/pub/libs/gaussian/g16-A.03/haswell/g16/l302.exe)
 NPDir=0 NMtPBC=     1 NCelOv=     1 NCel=       1 NClECP=     1 NCelD=      1
         NCelK=      1 NCelE2=     1 NClLst=     1 CellRange=     0.0.
 One-electron integrals computed using PRISM.
 One-electron integral symmetry used in STVInt
 NBasis=    57 RedAO= T EigKep=  2.88D-03  NBF=    27     4     6    20
 NBsUse=    57 1.00D-06 EigRej= -1.00D+00 NBFU=    27     4     6    20
 Precomputing XC quadrature grid using
 IXCGrd= 4 IRadAn=           5 IRanWt=          -1 IRanGd=           0 AccXCQ= 0.00D+00.
 Generated NRdTot=       0 NPtTot=           0 NUsed=           0 NTot=          32
 NSgBfM=    57    57    57    57    57 MxSgAt=    11 MxSgA2=    11.
 Leave Link  302 at Tue Feb 25 12:19:36 2020, MaxMem=  6710886400 cpu:               3.2 elap:               0.2
 (Enter /opt/ohpc/pub/libs/gaussian/g16-A.03/haswell/g16/l303.exe)
 DipDrv:  MaxL=1.
 Leave Link  303 at Tue Feb 25 12:19:37 2020, MaxMem=  6710886400 cpu:               0.4 elap:               0.0
 (Enter /opt/ohpc/pub/libs/gaussian/g16-A.03/haswell/g16/l401.exe)
 ExpMin= 1.61D-01 ExpMax= 3.05D+03 ExpMxC= 4.57D+02 IAcc=3 IRadAn=         5 AccDes= 0.00D+00
 Harris functional with IExCor=33909 and IRadAn=       5 diagonalized for initial guess.
 HarFok:  IExCor=33909 AccDes= 0.00D+00 IRadAn=         5 IDoV= 1 UseB2=F ITyADJ=14
 ICtDFT=  3500011 ScaDFX=  1.000000  1.000000  1.000000  1.000000
 FoFCou: FMM=F IPFlag=           0 FMFlag=      100000 FMFlg1=           0
         NFxFlg=           0 DoJE=T BraDBF=F KetDBF=T FulRan=T
         wScrn=  0.000000 ICntrl=       500 IOpCl=  0 I1Cent=   200000004 NGrid=           0
         NMat0=    1 NMatS0=      1 NMatT0=    0 NMatD0=    1 NMtDS0=    0 NMtDT0=    0
 Petite list used in FoFCou.
 Harris En= -186.727415716599    
 JPrj=0 DoOrth=F DoCkMO=F.
 Initial guess orbital symmetries:
 Alpha Orbitals:
       Occupied  (A1) (B2) (A1) (B2) (A1) (A1) (B2) (A1) (B2) (A1)
                 (A1) (B2) (B2) (A1) (B1) (A1) (A2) (B1)
       Virtual   (B2) (A1) (A2) (B1) (A1) (B2) (A1) (B2) (A1) (A1)
                 (B2) (A1) (B2) (B1) (B2) (B1) (A1) (A2) (A1) (B2)
                 (A1) (A2) (B1) (B2) (A1) (A1) (B2) (A1) (B2) (A1)
                 (A1) (B2) (A1) (A1) (B2) (B2) (A1) (A1) (B2)
 Beta  Orbitals:
       Occupied  (A1) (B2) (A1) (B2) (A1) (A1) (B2) (A1) (B2) (A1)
                 (A1) (B2) (B2) (A1) (B1) (A1) (A2) (B1)
       Virtual   (B2) (A1) (A2) (B1) (A1) (B2) (A1) (B2) (A1) (A1)
                 (B2) (A1) (B2) (B1) (B2) (B1) (A1) (A2) (A1) (B2)
                 (A1) (A2) (B1) (B2) (A1) (A1) (B2) (A1) (B2) (A1)
                 (A1) (B2) (A1) (A1) (B2) (B2) (A1) (A1) (B2)
 The electronic state of the initial guess is 1-A1.
 Initial guess <Sx>= 0.0000 <Sy>= 0.0000 <Sz>= 0.0000 <S**2>=-0.0000 S=-0.0000
 Leave Link  401 at Tue Feb 25 12:19:37 2020, MaxMem=  6710886400 cpu:               4.5 elap:               0.3
 (Enter /opt/ohpc/pub/libs/gaussian/g16-A.03/haswell/g16/l502.exe)
 Keep R1 and R2 ints in memory in symmetry-blocked form, NReq=16815659.
 FoFCou: FMM=F IPFlag=           0 FMFlag=           0 FMFlg1=           0
         NFxFlg=           0 DoJE=F BraDBF=F KetDBF=F FulRan=T
         wScrn=  0.000000 ICntrl=       600 IOpCl=  0 I1Cent=           0 NGrid=           0
         NMat0=    1 NMatS0=   1653 NMatT0=    0 NMatD0=    1 NMtDS0=    0 NMtDT0=    0
 Petite list used in FoFCou.
 UHF open shell SCF:
 Using DIIS extrapolation, IDIIS=    10.
 NGot=  6710886400 LenX=  6710059583 LenY=  6710055893
 Requested convergence on RMS density matrix=1.00D-06 within  32 cycles.
 Requested convergence on MAX density matrix=1.00D-04.
 Requested convergence on             energy=1.00D-04.
 Virtual orbitals will be shifted by   0.500 hartree.
 No special actions if energy rises.
 Dynamic level shift is on during FON iterations.

 Cycle   1  Pass 1  IDiag  1:
 E= -193.399295683729    
 DIIS: error= 4.42D-02 at cycle   1 NSaved=   1.
 NSaved= 1 IEnMin= 1 EnMin= -193.399295683729     IErMin= 1 ErrMin= 4.42D-02
 ErrMax= 4.42D-02  0.00D+00 EMaxC= 1.00D+00 BMatC= 3.76D-01 BMatP= 3.76D-01
 IDIUse=1 WtCom= 1.00D+00 WtEn= 0.00D+00
 Coeff-Com:  0.100D+01
 Coeff:      0.100D+01
 Gap=     0.025 Goal=   None    Shift=    0.500
 T= 1728. Gap= 0.497 NK=0 IS=   19 IE=   57 IFin=   18
          NO(<0.9)=   0  NV(>0.1)=   0     18.00e < EF      0.00e >EF  Err=0.0D+00
 Gap=     0.025 Goal=   None    Shift=    0.500
 T= 1728. Gap= 0.497 NK=0 IS=   19 IE=   57 IFin=   18
          NO(<0.9)=   0  NV(>0.1)=   0     18.00e < EF      0.00e >EF  Err=0.0D+00
 GapD=    0.025 DampG=0.250 DampE=0.500 DampFc=0.1250 IDamp=-1.
 Damping current iteration by 1.25D-01
 RMSDP=7.84D-03 MaxDP=6.81D-02              OVMax= 1.18D-01

 Cycle   2  Pass 1  IDiag  1:
 E= -193.422384966346     Delta-E=       -0.023089282617 Rises=F Damp=T
 DIIS: error= 3.96D-02 at cycle   2 NSaved=   2.
 NSaved= 2 IEnMin= 2 EnMin= -193.422384966346     IErMin= 2 ErrMin= 3.96D-02
 ErrMax= 3.96D-02  0.00D+00 EMaxC= 1.00D+00 BMatC= 2.79D-01 BMatP= 3.76D-01
 IDIUse=1 WtCom= 1.00D+00 WtEn= 0.00D+00
 Coeff-Com: -0.572D+01 0.672D+01
 Coeff:     -0.572D+01 0.672D+01
 Gap=     0.156 Goal=   None    Shift=    0.500
 T= 1707. Gap= 0.643 NK=0 IS=   19 IE=   57 IFin=   18
          NO(<0.9)=   0  NV(>0.1)=   0     18.00e < EF      0.00e >EF  Err=0.0D+00
 Gap=     0.156 Goal=   None    Shift=    0.500
 T= 1707. Gap= 0.643 NK=0 IS=   19 IE=   57 IFin=   18
          NO(<0.9)=   0  NV(>0.1)=   0     18.00e < EF      0.00e >EF  Err=0.0D+00
 GapD=    0.156 DampG=1.000 DampE=0.500 DampFc=0.5000 IDamp=-1.
 Damping current iteration by 5.00D-01
 RMSDP=7.57D-03 MaxDP=5.99D-02 DE=-2.31D-02 OVMax= 4.90D-02

 Cycle   3  Pass 1  IDiag  1:
 E= -193.493675535364     Delta-E=       -0.071290569018 Rises=F Damp=T
 DIIS: error= 2.50D-02 at cycle   3 NSaved=   3.
 NSaved= 3 IEnMin= 3 EnMin= -193.493675535364     IErMin= 3 ErrMin= 2.50D-02
 ErrMax= 2.50D-02  0.00D+00 EMaxC= 1.00D+00 BMatC= 6.65D-02 BMatP= 2.79D-01
 IDIUse=1 WtCom= 1.00D+00 WtEn= 0.00D+00
 Coeff-Com:  0.201D+01-0.353D+01 0.252D+01
 Coeff:      0.201D+01-0.353D+01 0.252D+01
 Gap=     0.185 Goal=   None    Shift=    0.500
 T= 1610. Gap= 0.686 NK=0 IS=   19 IE=   57 IFin=   18
          NO(<0.9)=   0  NV(>0.1)=   0     18.00e < EF      0.00e >EF  Err=0.0D+00
 Gap=     0.185 Goal=   None    Shift=    0.500
 T= 1610. Gap= 0.686 NK=0 IS=   19 IE=   57 IFin=   18
          NO(<0.9)=   0  NV(>0.1)=   0     18.00e < EF      0.00e >EF  Err=0.0D+00
 GapD=    0.185 DampG=1.000 DampE=0.500 DampFc=0.5000 IDamp=-1.
 Damping current iteration by 5.00D-01
 RMSDP=3.96D-03 MaxDP=3.50D-02 DE=-7.13D-02 OVMax= 2.49D-02

 Cycle   4  Pass 1  IDiag  1:
 E= -193.523311070917     Delta-E=       -0.029635535553 Rises=F Damp=T
 DIIS: error= 1.55D-02 at cycle   4 NSaved=   4.
 NSaved= 4 IEnMin= 4 EnMin= -193.523311070917     IErMin= 4 ErrMin= 1.55D-02
 ErrMax= 1.55D-02  0.00D+00 EMaxC= 1.00D+00 BMatC= 1.73D-02 BMatP= 6.65D-02
 IDIUse=1 WtCom= 1.00D+00 WtEn= 0.00D+00
 Coeff-Com:  0.120D+01-0.116D+01-0.184D+01 0.280D+01
 Coeff:      0.120D+01-0.116D+01-0.184D+01 0.280D+01
 Gap=     0.202 Goal=   None    Shift=    0.500
 T= 1426. Gap= 0.702 NK=0 IS=   19 IE=   57 IFin=   18
          NO(<0.9)=   0  NV(>0.1)=   0     18.00e < EF      0.00e >EF  Err=0.0D+00
 Gap=     0.202 Goal=   None    Shift=    0.500
 T= 1426. Gap= 0.702 NK=0 IS=   19 IE=   57 IFin=   18
          NO(<0.9)=   0  NV(>0.1)=   0     18.00e < EF      0.00e >EF  Err=0.0D+00
 GapD=    0.202 DampG=1.000 DampE=0.500 DampFc=0.5000 IDamp=-1.
 Damping current iteration by 5.00D-01
 RMSDP=2.12D-03 MaxDP=2.86D-02 DE=-2.96D-02 OVMax= 1.60D-02

 Cycle   5  Pass 1  IDiag  1:
 E= -193.536984331076     Delta-E=       -0.013673260159 Rises=F Damp=T
 DIIS: error= 9.52D-03 at cycle   5 NSaved=   5.
 NSaved= 5 IEnMin= 5 EnMin= -193.536984331076     IErMin= 5 ErrMin= 9.52D-03
 ErrMax= 9.52D-03  0.00D+00 EMaxC= 1.00D+00 BMatC= 5.16D-03 BMatP= 1.73D-02
 IDIUse=1 WtCom= 1.00D+00 WtEn= 0.00D+00
 Coeff-Com: -0.633D+00 0.935D+00 0.396D+00-0.375D+01 0.406D+01
 Coeff:     -0.633D+00 0.935D+00 0.396D+00-0.375D+01 0.406D+01
 Gap=     0.205 Goal=   None    Shift=    0.500
 T= 1144. Gap= 0.705 NK=0 IS=   19 IE=   57 IFin=   18
          NO(<0.9)=   0  NV(>0.1)=   0     18.00e < EF      0.00e >EF  Err=0.0D+00
 Gap=     0.205 Goal=   None    Shift=    0.500
 T= 1144. Gap= 0.705 NK=0 IS=   19 IE=   57 IFin=   18
          NO(<0.9)=   0  NV(>0.1)=   0     18.00e < EF      0.00e >EF  Err=0.0D+00
 GapD=    0.205 DampG=1.000 DampE=1.000 DampFc=1.0000 IDamp=-1.
 RMSDP=1.34D-03 MaxDP=2.20D-02 DE=-1.37D-02 OVMax= 1.03D-02

 Cycle   6  Pass 1  IDiag  1:
 E= -193.550414466978     Delta-E=       -0.013430135902 Rises=F Damp=F
 DIIS: error= 2.16D-03 at cycle   6 NSaved=   6.
 NSaved= 6 IEnMin= 6 EnMin= -193.550414466978     IErMin= 6 ErrMin= 2.16D-03
 ErrMax= 2.16D-03  0.00D+00 EMaxC= 1.00D+00 BMatC= 1.58D-04 BMatP= 5.16D-03
 IDIUse=1 WtCom= 1.00D+00 WtEn= 0.00D+00
 Coeff-Com:  0.192D+00-0.268D+00 0.477D-02 0.113D+01-0.198D+01 0.192D+01
 Coeff:      0.192D+00-0.268D+00 0.477D-02 0.113D+01-0.198D+01 0.192D+01
 Gap=     0.205 Goal=   None    Shift=    0.500
 T=  778. Gap= 0.705 NK=0 IS=   19 IE=   57 IFin=   18
          NO(<0.9)=   0  NV(>0.1)=   0     18.00e < EF      0.00e >EF  Err=0.0D+00
 Gap=     0.205 Goal=   None    Shift=    0.500
 T=  778. Gap= 0.705 NK=0 IS=   19 IE=   57 IFin=   18
          NO(<0.9)=   0  NV(>0.1)=   0     18.00e < EF      0.00e >EF  Err=0.0D+00
 GapD=    0.205 DampG=1.000 DampE=1.000 DampFc=1.0000 IDamp=-1.
 RMSDP=2.34D-04 MaxDP=3.82D-03 DE=-1.34D-02 OVMax= 6.27D-03

 Cycle   7  Pass 1  IDiag  1:
 E= -193.550570797077     Delta-E=       -0.000156330099 Rises=F Damp=F
 DIIS: error= 1.32D-03 at cycle   7 NSaved=   7.
 NSaved= 7 IEnMin= 7 EnMin= -193.550570797077     IErMin= 7 ErrMin= 1.32D-03
 ErrMax= 1.32D-03  0.00D+00 EMaxC= 1.00D+00 BMatC= 5.64D-05 BMatP= 1.58D-04
 IDIUse=1 WtCom= 1.00D+00 WtEn= 0.00D+00
 Coeff-Com:  0.109D+00-0.130D+00-0.172D+00 0.510D+00-0.310D+00-0.139D+01
 Coeff-Com:  0.238D+01
 Coeff:      0.109D+00-0.130D+00-0.172D+00 0.510D+00-0.310D+00-0.139D+01
 Coeff:      0.238D+01
 Gap=     0.206 Goal=   None    Shift=    0.500
 T=  335. Gap= 0.706 NK=0 IS=   19 IE=   57 IFin=   18
          NO(<0.9)=   0  NV(>0.1)=   0     18.00e < EF      0.00e >EF  Err=0.0D+00
 Gap=     0.206 Goal=   None    Shift=    0.500
 T=  335. Gap= 0.706 NK=0 IS=   19 IE=   57 IFin=   18
          NO(<0.9)=   0  NV(>0.1)=   0     18.00e < EF      0.00e >EF  Err=0.0D+00
 GapD=    0.206 DampG=1.000 DampE=1.000 DampFc=1.0000 IDamp=-1.
 RMSDP=1.19D-04 MaxDP=1.92D-03 DE=-1.56D-04 OVMax= 3.68D-03

 Cycle   8  Pass 1  IDiag  1:
 E= -193.550624011856     Delta-E=       -0.000053214779 Rises=F Damp=F
 DIIS: error= 7.71D-04 at cycle   8 NSaved=   8.
 NSaved= 8 IEnMin= 8 EnMin= -193.550624011856     IErMin= 8 ErrMin= 7.71D-04
 ErrMax= 7.71D-04  0.00D+00 EMaxC= 1.00D+00 BMatC= 1.89D-05 BMatP= 5.64D-05
 IDIUse=1 WtCom= 1.00D+00 WtEn= 0.00D+00
 Coeff-Com: -0.253D-01 0.485D-01-0.409D-01-0.369D+00 0.732D+00-0.113D+01
 Coeff-Com:  0.121D+00 0.167D+01
 Coeff:     -0.253D-01 0.485D-01-0.409D-01-0.369D+00 0.732D+00-0.113D+01
 Coeff:      0.121D+00 0.167D+01
 Gap=     0.206 Goal=   None    Shift=    0.500
 Gap=     0.206 Goal=   None    Shift=    0.500
 RMSDP=6.07D-05 MaxDP=1.00D-03 DE=-5.32D-05 OVMax= 2.06D-03

 Cycle   9  Pass 1  IDiag  1:
 E= -193.550640673796     Delta-E=       -0.000016661940 Rises=F Damp=F
 DIIS: error= 4.52D-04 at cycle   9 NSaved=   9.
 NSaved= 9 IEnMin= 9 EnMin= -193.550640673796     IErMin= 9 ErrMin= 4.52D-04
 ErrMax= 4.52D-04  0.00D+00 EMaxC= 1.00D+00 BMatC= 6.20D-06 BMatP= 1.89D-05
 IDIUse=1 WtCom= 1.00D+00 WtEn= 0.00D+00
 Coeff-Com:  0.192D-01-0.328D-01 0.589D-01-0.110D+00 0.622D-01 0.303D+00
 Coeff-Com: -0.748D+00-0.521D+00 0.197D+01
 Coeff:      0.192D-01-0.328D-01 0.589D-01-0.110D+00 0.622D-01 0.303D+00
 Coeff:     -0.748D+00-0.521D+00 0.197D+01
 Gap=     0.206 Goal=   None    Shift=    0.500
 Gap=     0.206 Goal=   None    Shift=    0.500
 RMSDP=3.03D-05 MaxDP=5.56D-04 DE=-1.67D-05 OVMax= 1.16D-03

 Cycle  10  Pass 1  IDiag  1:
 E= -193.550645792646     Delta-E=       -0.000005118850 Rises=F Damp=F
 DIIS: error= 2.60D-04 at cycle  10 NSaved=  10.
 NSaved=10 IEnMin=10 EnMin= -193.550645792646     IErMin=10 ErrMin= 2.60D-04
 ErrMax= 2.60D-04  0.00D+00 EMaxC= 1.00D+00 BMatC= 1.98D-06 BMatP= 6.20D-06
 IDIUse=1 WtCom= 1.00D+00 WtEn= 0.00D+00
 Coeff-Com: -0.327D-02 0.707D-02-0.987D-02 0.134D-01-0.163D-01 0.832D-02
 Coeff-Com:  0.973D-01 0.238D+00-0.227D+01 0.293D+01
 Coeff:     -0.327D-02 0.707D-02-0.987D-02 0.134D-01-0.163D-01 0.832D-02
 Coeff:      0.973D-01 0.238D+00-0.227D+01 0.293D+01
 Gap=     0.206 Goal=   None    Shift=    0.500
 Gap=     0.206 Goal=   None    Shift=    0.500
 RMSDP=1.63D-05 MaxDP=3.27D-04 DE=-5.12D-06 OVMax= 6.56D-04

 Cycle  11  Pass 1  IDiag  1:
 E= -193.550647364956     Delta-E=       -0.000001572310 Rises=F Damp=F
 DIIS: error= 1.50D-04 at cycle  11 NSaved=  11.
 NSaved=11 IEnMin=11 EnMin= -193.550647364956     IErMin=11 ErrMin= 1.50D-04
 ErrMax= 1.50D-04  0.00D+00 EMaxC= 1.00D+00 BMatC= 6.37D-07 BMatP= 1.98D-06
 IDIUse=1 WtCom= 1.00D+00 WtEn= 0.00D+00
 Coeff-Com: -0.108D-02 0.145D-02 0.984D-02-0.700D-01 0.971D-01-0.587D-01
 Coeff-Com: -0.685D-01-0.428D-01 0.121D+01-0.340D+01 0.332D+01
 Coeff:     -0.108D-02 0.145D-02 0.984D-02-0.700D-01 0.971D-01-0.587D-01
 Coeff:     -0.685D-01-0.428D-01 0.121D+01-0.340D+01 0.332D+01
 Gap=     0.206 Goal=   None    Shift=    0.500
 Gap=     0.206 Goal=   None    Shift=    0.500
 RMSDP=8.82D-06 MaxDP=1.80D-04 DE=-1.57D-06 OVMax= 3.78D-04

 Cycle  12  Pass 1  IDiag  1:
 E= -193.550647853460     Delta-E=       -0.000000488505 Rises=F Damp=F
 DIIS: error= 8.59D-05 at cycle  12 NSaved=  12.
 NSaved=12 IEnMin=12 EnMin= -193.550647853460     IErMin=12 ErrMin= 8.59D-05
 ErrMax= 8.59D-05  0.00D+00 EMaxC= 1.00D+00 BMatC= 2.06D-07 BMatP= 6.37D-07
 IDIUse=1 WtCom= 1.00D+00 WtEn= 0.00D+00
 Coeff-Com:  0.829D-03-0.105D-02 0.853D-04-0.341D-02 0.704D-02-0.262D-01
 Coeff-Com:  0.540D-01 0.594D-01-0.451D+00 0.143D+01-0.358D+01 0.351D+01
 Coeff:      0.829D-03-0.105D-02 0.853D-04-0.341D-02 0.704D-02-0.262D-01
 Coeff:      0.540D-01 0.594D-01-0.451D+00 0.143D+01-0.358D+01 0.351D+01
 Gap=     0.206 Goal=   None    Shift=    0.500
 Gap=     0.206 Goal=   None    Shift=    0.500
 RMSDP=4.77D-06 MaxDP=9.83D-05 DE=-4.89D-07 OVMax= 2.15D-04

 Cycle  13  Pass 1  IDiag  1:
 E= -193.550648004412     Delta-E=       -0.000000150952 Rises=F Damp=F
 DIIS: error= 4.86D-05 at cycle  13 NSaved=  13.
 NSaved=13 IEnMin=13 EnMin= -193.550648004412     IErMin=13 ErrMin= 4.86D-05
 ErrMax= 4.86D-05  0.00D+00 EMaxC= 1.00D+00 BMatC= 6.53D-08 BMatP= 2.06D-07
 IDIUse=1 WtCom= 1.00D+00 WtEn= 0.00D+00
 Coeff-Com: -0.137D-02 0.234D-02 0.222D-03-0.134D-01 0.195D-01-0.685D-02
 Coeff-Com: -0.194D-01-0.374D-01 0.343D+00-0.114D+01 0.299D+01-0.537D+01
 Coeff-Com:  0.424D+01
 Coeff:     -0.137D-02 0.234D-02 0.222D-03-0.134D-01 0.195D-01-0.685D-02
 Coeff:     -0.194D-01-0.374D-01 0.343D+00-0.114D+01 0.299D+01-0.537D+01
 Coeff:      0.424D+01
 Gap=     0.206 Goal=   None    Shift=    0.500
 Gap=     0.206 Goal=   None    Shift=    0.500
 RMSDP=2.66D-06 MaxDP=5.67D-05 DE=-1.51D-07 OVMax= 1.22D-04

 Cycle  14  Pass 1  IDiag  1:
 E= -193.550648051393     Delta-E=       -0.000000046980 Rises=F Damp=F
 DIIS: error= 2.75D-05 at cycle  14 NSaved=  14.
 NSaved=14 IEnMin=14 EnMin= -193.550648051393     IErMin=14 ErrMin= 2.75D-05
 ErrMax= 2.75D-05  0.00D+00 EMaxC= 1.00D+00 BMatC= 2.09D-08 BMatP= 6.53D-08
 IDIUse=1 WtCom= 1.00D+00 WtEn= 0.00D+00
 Coeff-Com:  0.114D-03-0.908D-04 0.450D-03-0.342D-02 0.456D-02-0.884D-03
 Coeff-Com: -0.642D-02 0.667D-02 0.162D-01 0.735D-01-0.490D+00 0.128D+01
 Coeff-Com: -0.300D+01 0.312D+01
 Coeff:      0.114D-03-0.908D-04 0.450D-03-0.342D-02 0.456D-02-0.884D-03
 Coeff:     -0.642D-02 0.667D-02 0.162D-01 0.735D-01-0.490D+00 0.128D+01
 Coeff:     -0.300D+01 0.312D+01
 Gap=     0.206 Goal=   None    Shift=    0.500
 Gap=     0.206 Goal=   None    Shift=    0.500
 RMSDP=1.46D-06 MaxDP=3.19D-05 DE=-4.70D-08 OVMax= 6.87D-05

 Cycle  15  Pass 1  IDiag  1:
 E= -193.550648066058     Delta-E=       -0.000000014665 Rises=F Damp=F
 DIIS: error= 1.55D-05 at cycle  15 NSaved=  15.
 NSaved=15 IEnMin=15 EnMin= -193.550648066058     IErMin=15 ErrMin= 1.55D-05
 ErrMax= 1.55D-05  0.00D+00 EMaxC= 1.00D+00 BMatC= 6.70D-09 BMatP= 2.09D-08
 IDIUse=1 WtCom= 1.00D+00 WtEn= 0.00D+00
 Coeff-Com: -0.243D-03 0.365D-03-0.189D-03-0.820D-03 0.166D-02-0.435D-02
 Coeff-Com:  0.705D-02 0.425D-02-0.267D-01 0.162D-01 0.108D+00-0.461D+00
 Coeff-Com:  0.154D+01-0.388D+01 0.370D+01
 Coeff:     -0.243D-03 0.365D-03-0.189D-03-0.820D-03 0.166D-02-0.435D-02
 Coeff:      0.705D-02 0.425D-02-0.267D-01 0.162D-01 0.108D+00-0.461D+00
 Coeff:      0.154D+01-0.388D+01 0.370D+01
 Gap=     0.206 Goal=   None    Shift=    0.500
 Gap=     0.206 Goal=   None    Shift=    0.500
 RMSDP=7.97D-07 MaxDP=1.78D-05 DE=-1.47D-08 OVMax= 3.85D-05

 SCF Done:  E(ULC-wHPBE) =  -193.550648066     A.U. after   15 cycles
            NFock= 15  Conv=0.80D-06     -V/T= 2.0091
 <Sx>= 0.0000 <Sy>= 0.0000 <Sz>= 0.0000 <S**2>=-0.0000 S=-0.0000
 <L.S>= 0.000000000000E+00
 KE= 1.918000427553D+02 PE=-7.382622659697D+02 EE= 2.078896753553D+02
 Annihilation of the first spin contaminant:
 S**2 before annihilation    -0.0000,   after    -0.0000
 Leave Link  502 at Tue Feb 25 12:19:38 2020, MaxMem=  6710886400 cpu:              21.1 elap:               1.3
 (Enter /opt/ohpc/pub/libs/gaussian/g16-A.03/haswell/g16/l508.exe)
 QCSCF skips out because SCF is already converged.
 Leave Link  508 at Tue Feb 25 12:19:38 2020, MaxMem=  6710886400 cpu:               0.1 elap:               0.0
 (Enter /opt/ohpc/pub/libs/gaussian/g16-A.03/haswell/g16/l601.exe)
 Copying SCF densities to generalized density rwf, IOpCl= 1 IROHF=0.

 **********************************************************************

            Population analysis using the SCF density.

 **********************************************************************

 Orbital symmetries:
 Alpha Orbitals:
       Occupied  (A1) (B2) (B2) (A1) (A1) (A1) (B2) (A1) (B2) (A1)
                 (A1) (B2) (B2) (A1) (B1) (A1) (A2) (B1)
       Virtual   (A1) (B2) (A2) (A1) (B1) (B2) (A1) (B2) (A1) (A1)
                 (B2) (A1) (B2) (B2) (B1) (A2) (B1) (A1) (A1) (B2)
                 (A1) (A2) (A1) (B1) (B2) (A1) (B2) (A1) (B2) (A1)
                 (A1) (A1) (B2) (A1) (B2) (B2) (A1) (A1) (B2)
 Beta  Orbitals:
       Occupied  (A1) (B2) (B2) (A1) (A1) (A1) (B2) (A1) (B2) (A1)
                 (A1) (B2) (B2) (A1) (B1) (A1) (A2) (B1)
       Virtual   (A1) (B2) (A2) (A1) (B1) (B2) (A1) (B2) (A1) (A1)
                 (B2) (A1) (B2) (B2) (B1) (A2) (B1) (A1) (A1) (B2)
                 (A1) (A2) (A1) (B1) (B2) (A1) (B2) (A1) (B2) (A1)
                 (A1) (A1) (B2) (A1) (B2) (B2) (A1) (A1) (B2)
 The electronic state is 1-A1.
 Alpha  occ. eigenvalues --  -10.17620 -10.17619 -10.13132 -10.13130 -10.07109
 Alpha  occ. eigenvalues --   -0.96500  -0.88184  -0.79867  -0.70109  -0.64005
 Alpha  occ. eigenvalues --   -0.62308  -0.55078  -0.50268  -0.47292  -0.46242
 Alpha  occ. eigenvalues --   -0.43489  -0.36212  -0.25507
 Alpha virt. eigenvalues --   -0.04939  -0.00253   0.09411   0.20348   0.21243
 Alpha virt. eigenvalues --    0.24219   0.28196   0.29092   0.30821   0.41831
 Alpha virt. eigenvalues --    0.43171   0.51164   0.52428   0.63504   0.63978
 Alpha virt. eigenvalues --    0.72759   0.73140   0.73647   0.75149   0.77100
 Alpha virt. eigenvalues --    0.77259   0.78918   0.82463   0.82695   0.83906
 Alpha virt. eigenvalues --    0.90719   0.96562   0.98761   1.00944   1.02970
 Alpha virt. eigenvalues --    1.07674   1.10448   1.12569   1.18268   1.24432
 Alpha virt. eigenvalues --    1.29867   1.34086   1.57940   1.58672
  Beta  occ. eigenvalues --  -10.17620 -10.17619 -10.13132 -10.13130 -10.07109
  Beta  occ. eigenvalues --   -0.96500  -0.88184  -0.79867  -0.70109  -0.64005
  Beta  occ. eigenvalues --   -0.62308  -0.55078  -0.50268  -0.47292  -0.46242
  Beta  occ. eigenvalues --   -0.43489  -0.36212  -0.25507
  Beta virt. eigenvalues --   -0.04939  -0.00253   0.09411   0.20348   0.21243
  Beta virt. eigenvalues --    0.24219   0.28196   0.29092   0.30821   0.41831
  Beta virt. eigenvalues --    0.43171   0.51164   0.52428   0.63504   0.63978
  Beta virt. eigenvalues --    0.72759   0.73140   0.73647   0.75149   0.77100
  Beta virt. eigenvalues --    0.77259   0.78918   0.82463   0.82695   0.83906
  Beta virt. eigenvalues --    0.90719   0.96562   0.98761   1.00944   1.02970
  Beta virt. eigenvalues --    1.07674   1.10448   1.12569   1.18268   1.24432
  Beta virt. eigenvalues --    1.29867   1.34086   1.57940   1.58672
          Condensed to atoms (all electrons):
               1          2          3          4          5          6
     1  C    5.293262   0.517741  -0.082380  -0.040690   0.150381   0.118953
     2  C    0.517741   4.896642   0.544059  -0.055434  -0.040690  -0.003228
     3  C   -0.082380   0.544059   4.918280   0.544059  -0.082380  -0.000006
     4  C   -0.040690  -0.055434   0.544059   4.896642   0.517741  -0.003228
     5  C    0.150381  -0.040690  -0.082380   0.517741   5.293262   0.118953
     6  H    0.118953  -0.003228  -0.000006  -0.003228   0.118953   0.651427
     7  H    0.358164  -0.036479   0.002635   0.000831  -0.003537  -0.008434
     8  H   -0.032883   0.361447  -0.012820   0.003977   0.000448   0.000173
     9  H    0.005053  -0.037908   0.377119  -0.037908   0.005053  -0.000001
    10  H    0.000448   0.003977  -0.012820   0.361447  -0.032883   0.000173
    11  H   -0.003537   0.000831   0.002635  -0.036479   0.358164  -0.008434
               7          8          9         10         11
     1  C    0.358164  -0.032883   0.005053   0.000448  -0.003537
     2  C   -0.036479   0.361447  -0.037908   0.003977   0.000831
     3  C    0.002635  -0.012820   0.377119  -0.012820   0.002635
     4  C    0.000831   0.003977  -0.037908   0.361447  -0.036479
     5  C   -0.003537   0.000448   0.005053  -0.032883   0.358164
     6  H   -0.008434   0.000173  -0.000001   0.000173  -0.008434
     7  H    0.493795   0.000953  -0.000139  -0.000010   0.000040
     8  H    0.000953   0.473083  -0.003574  -0.000092  -0.000010
     9  H   -0.000139  -0.003574   0.563312  -0.003574  -0.000139
    10  H   -0.000010  -0.000092  -0.003574   0.473083   0.000953
    11  H    0.000040  -0.000010  -0.000139   0.000953   0.493795
          Atomic-Atomic Spin Densities.
               1          2          3          4          5          6
     1  C    0.000000   0.000000   0.000000   0.000000   0.000000   0.000000
     2  C    0.000000   0.000000   0.000000   0.000000   0.000000   0.000000
     3  C    0.000000   0.000000   0.000000   0.000000   0.000000   0.000000
     4  C    0.000000   0.000000   0.000000   0.000000   0.000000   0.000000
     5  C    0.000000   0.000000   0.000000   0.000000   0.000000   0.000000
     6  H    0.000000   0.000000   0.000000   0.000000   0.000000   0.000000
     7  H    0.000000   0.000000   0.000000   0.000000   0.000000   0.000000
     8  H    0.000000   0.000000   0.000000   0.000000   0.000000   0.000000
     9  H    0.000000   0.000000   0.000000   0.000000   0.000000   0.000000
    10  H    0.000000   0.000000   0.000000   0.000000   0.000000   0.000000
    11  H    0.000000   0.000000   0.000000   0.000000   0.000000   0.000000
               7          8          9         10         11
     1  C    0.000000   0.000000   0.000000   0.000000   0.000000
     2  C    0.000000   0.000000   0.000000   0.000000   0.000000
     3  C    0.000000   0.000000   0.000000   0.000000   0.000000
     4  C    0.000000   0.000000   0.000000   0.000000   0.000000
     5  C    0.000000   0.000000   0.000000   0.000000   0.000000
     6  H    0.000000   0.000000   0.000000   0.000000   0.000000
     7  H    0.000000   0.000000   0.000000   0.000000   0.000000
     8  H    0.000000   0.000000   0.000000   0.000000   0.000000
     9  H    0.000000   0.000000   0.000000   0.000000   0.000000
    10  H    0.000000   0.000000   0.000000   0.000000   0.000000
    11  H    0.000000   0.000000   0.000000   0.000000   0.000000
 Mulliken charges and spin densities:
               1          2
     1  C   -0.284513   0.000000
     2  C   -0.150959   0.000000
     3  C   -0.198381   0.000000
     4  C   -0.150959   0.000000
     5  C   -0.284513   0.000000
     6  H    0.133654   0.000000
     7  H    0.192183   0.000000
     8  H    0.209300   0.000000
     9  H    0.132706   0.000000
    10  H    0.209300   0.000000
    11  H    0.192183   0.000000
 Sum of Mulliken charges =  -0.00000   0.00000
 Mulliken charges and spin densities with hydrogens summed into heavy atoms:
               1          2
     1  C    0.041323   0.000000
     2  C    0.058341   0.000000
     3  C   -0.065675   0.000000
     4  C    0.058341   0.000000
     5  C   -0.092330   0.000000
 Electronic spatial extent (au):  <R**2>=            395.6944
 Charge=             -0.0000 electrons
 Dipole moment (field-independent basis, Debye):
    X=             -0.0000    Y=             -0.0000    Z=             -1.2278  Tot=              1.2278
 Quadrupole moment (field-independent basis, Debye-Ang):
   XX=            -36.8032   YY=            -23.2489   ZZ=            -24.1842
   XY=              0.0000   XZ=             -0.0000   YZ=             -0.0000
 Traceless Quadrupole moment (field-independent basis, Debye-Ang):
   XX=             -8.7244   YY=              4.8299   ZZ=              3.8946
   XY=              0.0000   XZ=             -0.0000   YZ=             -0.0000
 Octapole moment (field-independent basis, Debye-Ang**2):
  XXX=              0.0000  YYY=             -0.0000  ZZZ=            -11.7712  XYY=              0.0000
  XXY=              0.0000  XXZ=              2.7513  XZZ=              0.0000  YZZ=              0.0000
  YYZ=              1.7389  XYZ=             -0.0000
 Hexadecapole moment (field-independent basis, Debye-Ang**3):
 XXXX=            -40.2851 YYYY=           -233.7199 ZZZZ=           -177.7348 XXXY=             -0.0000
 XXXZ=             -0.0000 YYYX=             -0.0000 YYYZ=              0.0000 ZZZX=             -0.0000
 ZZZY=              0.0000 XXYY=            -62.1518 XXZZ=            -53.1481 YYZZ=            -71.4864
 XXYZ=             -0.0000 YYXZ=             -0.0000 ZZXY=             -0.0000
 N-N= 1.450218997931D+02 E-N=-7.382620060019D+02  KE= 1.918000427553D+02
 Symmetry A1   KE= 1.101880059217D+02
 Symmetry A2   KE= 2.307213657699D+00
 Symmetry B1   KE= 4.289632875039D+00
 Symmetry B2   KE= 7.501519030078D+01
 Symmetry A1   SP= 0.000000000000D+00
 Symmetry A2   SP= 0.000000000000D+00
 Symmetry B1   SP= 0.000000000000D+00
 Symmetry B2   SP= 0.000000000000D+00
                          Isotropic Fermi Contact Couplings
        Atom                 a.u.       MegaHertz       Gauss      10(-4) cm-1
     1  C(13)              0.00000       0.00000       0.00000       0.00000
     2  C(13)              0.00000       0.00000       0.00000       0.00000
     3  C(13)              0.00000       0.00000       0.00000       0.00000
     4  C(13)              0.00000       0.00000       0.00000       0.00000
     5  C(13)              0.00000       0.00000       0.00000       0.00000
     6  H(1)               0.00000       0.00000       0.00000       0.00000
     7  H(1)               0.00000       0.00000       0.00000       0.00000
     8  H(1)               0.00000       0.00000       0.00000       0.00000
     9  H(1)               0.00000       0.00000       0.00000       0.00000
    10  H(1)               0.00000       0.00000       0.00000       0.00000
    11  H(1)               0.00000       0.00000       0.00000       0.00000
 --------------------------------------------------------
       Center         ----  Spin Dipole Couplings  ----
                      3XX-RR        3YY-RR        3ZZ-RR
 --------------------------------------------------------
     1   Atom        0.000000      0.000000      0.000000
     2   Atom        0.000000      0.000000      0.000000
     3   Atom        0.000000      0.000000      0.000000
     4   Atom        0.000000      0.000000      0.000000
     5   Atom        0.000000      0.000000      0.000000
     6   Atom        0.000000      0.000000      0.000000
     7   Atom        0.000000      0.000000      0.000000
     8   Atom        0.000000      0.000000      0.000000
     9   Atom        0.000000      0.000000      0.000000
    10   Atom        0.000000      0.000000      0.000000
    11   Atom        0.000000      0.000000      0.000000
 --------------------------------------------------------
                        XY            XZ            YZ
 --------------------------------------------------------
     1   Atom        0.000000      0.000000      0.000000
     2   Atom        0.000000      0.000000      0.000000
     3   Atom        0.000000      0.000000      0.000000
     4   Atom        0.000000      0.000000      0.000000
     5   Atom        0.000000      0.000000      0.000000
     6   Atom        0.000000      0.000000      0.000000
     7   Atom        0.000000      0.000000      0.000000
     8   Atom        0.000000      0.000000      0.000000
     9   Atom        0.000000      0.000000      0.000000
    10   Atom        0.000000      0.000000      0.000000
    11   Atom        0.000000      0.000000      0.000000
 --------------------------------------------------------


 ---------------------------------------------------------------------------------
              Anisotropic Spin Dipole Couplings in Principal Axis System
 ---------------------------------------------------------------------------------

       Atom             a.u.   MegaHertz   Gauss  10(-4) cm-1        Axes

              Baa     0.0000     0.000     0.000     0.000  1.0000  0.0000  0.0000
     1 C(13)  Bbb     0.0000     0.000     0.000     0.000 -0.0000  1.0000  0.0000
              Bcc     0.0000     0.000     0.000     0.000  0.0000  0.0000  1.0000
 
              Baa     0.0000     0.000     0.000     0.000  1.0000  0.0000  0.0000
     2 C(13)  Bbb     0.0000     0.000     0.000     0.000 -0.0000  1.0000  0.0000
              Bcc     0.0000     0.000     0.000     0.000  0.0000  0.0000  1.0000
 
              Baa     0.0000     0.000     0.000     0.000  1.0000  0.0000  0.0000
     3 C(13)  Bbb     0.0000     0.000     0.000     0.000 -0.0000  1.0000  0.0000
              Bcc     0.0000     0.000     0.000     0.000  0.0000  0.0000  1.0000
 
              Baa     0.0000     0.000     0.000     0.000  1.0000  0.0000  0.0000
     4 C(13)  Bbb     0.0000     0.000     0.000     0.000 -0.0000  1.0000  0.0000
              Bcc     0.0000     0.000     0.000     0.000  0.0000  0.0000  1.0000
 
              Baa     0.0000     0.000     0.000     0.000  1.0000  0.0000  0.0000
     5 C(13)  Bbb     0.0000     0.000     0.000     0.000 -0.0000  1.0000  0.0000
              Bcc     0.0000     0.000     0.000     0.000  0.0000  0.0000  1.0000
 
              Baa     0.0000     0.000     0.000     0.000  1.0000  0.0000  0.0000
     6 H(1)   Bbb     0.0000     0.000     0.000     0.000 -0.0000  1.0000  0.0000
              Bcc     0.0000     0.000     0.000     0.000  0.0000  0.0000  1.0000
 
              Baa     0.0000     0.000     0.000     0.000  1.0000  0.0000  0.0000
     7 H(1)   Bbb     0.0000     0.000     0.000     0.000 -0.0000  1.0000  0.0000
              Bcc     0.0000     0.000     0.000     0.000  0.0000  0.0000  1.0000
 
              Baa     0.0000     0.000     0.000     0.000  1.0000  0.0000  0.0000
     8 H(1)   Bbb     0.0000     0.000     0.000     0.000 -0.0000  1.0000  0.0000
              Bcc     0.0000     0.000     0.000     0.000  0.0000  0.0000  1.0000
 
              Baa     0.0000     0.000     0.000     0.000  1.0000  0.0000  0.0000
     9 H(1)   Bbb     0.0000     0.000     0.000     0.000 -0.0000  1.0000  0.0000
              Bcc     0.0000     0.000     0.000     0.000  0.0000  0.0000  1.0000
 
              Baa     0.0000     0.000     0.000     0.000  1.0000  0.0000  0.0000
    10 H(1)   Bbb     0.0000     0.000     0.000     0.000 -0.0000  1.0000  0.0000
              Bcc     0.0000     0.000     0.000     0.000  0.0000  0.0000  1.0000
 
              Baa     0.0000     0.000     0.000     0.000  1.0000  0.0000  0.0000
    11 H(1)   Bbb     0.0000     0.000     0.000     0.000 -0.0000  1.0000  0.0000
              Bcc     0.0000     0.000     0.000     0.000  0.0000  0.0000  1.0000
 

 ---------------------------------------------------------------------------------

 No NMR shielding tensors so no spin-rotation constants.
 Leave Link  601 at Tue Feb 25 12:19:38 2020, MaxMem=  6710886400 cpu:               3.0 elap:               0.2
 (Enter /opt/ohpc/pub/libs/gaussian/g16-A.03/haswell/g16/l9999.exe)

 Test job not archived.
 1\1\GINC-HASWELL008\SP\ULC-wHPBE\6-31G\C5H6\SMGO234\25-Feb-2020\0\\#P 
 uLC-wHPBE/6-31G iop(3/107=0393800000, 3/108=0393800000) scf=(conver=6,
 fermi,ndamp=35,noincfock,novaracc,vshift=500,xqc)\\H6 C5\\0,1\C,0,-1.2
 06512,0.69658,0.\C,0,-1.206512,-0.69658,0.\C,0,0.,-1.39316,0.\C,0,1.20
 6512,-0.69658,0.\C,0,1.206512,0.69658,0.\H,0,0.,2.482681,0.\H,0,-2.150
 065,1.24134,0.\H,0,-2.150065,-1.24134,0.\H,0,0.,-2.482681,0.\H,0,2.150
 065,-1.24134,0.\H,0,2.150065,1.24134,0.\\Version=ES64L-G16RevA.03\Stat
 e=1-A1\HF=-193.5506481\S2=0.\S2-1=0.\S2A=0.\RMSD=7.974e-07\Dipole=0.,0
 .4830646,0.\Quadrupole=3.5908805,2.8955206,-6.4864012,0.,0.,0.\PG=C02V
  [C2(H1C1H1),SGV(C4H4)]\\@


 THE NUMBERS ARE MEANINGLESS, BUT THE TRENDS ARE IMPORTANT.
     -- LARRY BURGGRAF
 Job cpu time:       0 days  0 hours  0 minutes 44.5 seconds.
 Elapsed time:       0 days  0 hours  0 minutes  3.1 seconds.
 File lengths (MBytes):  RWF=    272 Int=      0 D2E=      0 Chk=     32 Scr=     32
 Normal termination of Gaussian 16 at Tue Feb 25 12:19:39 2020.
