 Entering Gaussian System, Link 0=g16
 Input=1b_tune_c6.gjf
 Output=1b_tune_c6.log
 Initial command:
 /opt/ohpc/pub/libs/gaussian/g16-A.03/haswell/g16/l1.exe "/scratch/smgo234/Ocelot/test/1b/tuning_1b_ocycle0/Gau-34755.inp" -scrdir="/scratch/smgo234/Ocelot/test/1b/tuning_1b_ocycle0/"
 Entering Link 1 = /opt/ohpc/pub/libs/gaussian/g16-A.03/haswell/g16/l1.exe PID=     34756.
  
 Copyright (c) 1988,1990,1992,1993,1995,1998,2003,2009,2016,
            Gaussian, Inc.  All Rights Reserved.
  
 This is part of the Gaussian(R) 16 program.  It is based on
 the Gaussian(R) 09 system (copyright 2009, Gaussian, Inc.),
 the Gaussian(R) 03 system (copyright 2003, Gaussian, Inc.),
 the Gaussian(R) 98 system (copyright 1998, Gaussian, Inc.),
 the Gaussian(R) 94 system (copyright 1995, Gaussian, Inc.),
 the Gaussian 92(TM) system (copyright 1992, Gaussian, Inc.),
 the Gaussian 90(TM) system (copyright 1990, Gaussian, Inc.),
 the Gaussian 88(TM) system (copyright 1988, Gaussian, Inc.),
 the Gaussian 86(TM) system (copyright 1986, Carnegie Mellon
 University), and the Gaussian 82(TM) system (copyright 1983,
 Carnegie Mellon University). Gaussian is a federally registered
 trademark of Gaussian, Inc.
  
 This software contains proprietary and confidential information,
 including trade secrets, belonging to Gaussian, Inc.
  
 This software is provided under written license and may be
 used, copied, transmitted, or stored only in accord with that
 written license.
  
 The following legend is applicable only to US Government
 contracts under FAR:
  
                    RESTRICTED RIGHTS LEGEND
  
 Use, reproduction and disclosure by the US Government is
 subject to restrictions as set forth in subparagraphs (a)
 and (c) of the Commercial Computer Software - Restricted
 Rights clause in FAR 52.227-19.
  
 Gaussian, Inc.
 340 Quinnipiac St., Bldg. 40, Wallingford CT 06492
  
  
 ---------------------------------------------------------------
 Warning -- This program may not be used in any manner that
 competes with the business of Gaussian, Inc. or will provide
 assistance to any competitor of Gaussian, Inc.  The licensee
 of this program is prohibited from giving any competitor of
 Gaussian, Inc. access to this program.  By using this program,
 the user acknowledges that Gaussian, Inc. is engaged in the
 business of creating and licensing software in the field of
 computational chemistry and represents and warrants to the
 licensee that it is not a competitor of Gaussian, Inc. and that
 it will not use this program in any manner prohibited above.
 ---------------------------------------------------------------
  

 Cite this work as:
 Gaussian 16, Revision A.03,
 M. J. Frisch, G. W. Trucks, H. B. Schlegel, G. E. Scuseria, 
 M. A. Robb, J. R. Cheeseman, G. Scalmani, V. Barone, 
 G. A. Petersson, H. Nakatsuji, X. Li, M. Caricato, A. V. Marenich, 
 J. Bloino, B. G. Janesko, R. Gomperts, B. Mennucci, H. P. Hratchian, 
 J. V. Ortiz, A. F. Izmaylov, J. L. Sonnenberg, D. Williams-Young, 
 F. Ding, F. Lipparini, F. Egidi, J. Goings, B. Peng, A. Petrone, 
 T. Henderson, D. Ranasinghe, V. G. Zakrzewski, J. Gao, N. Rega, 
 G. Zheng, W. Liang, M. Hada, M. Ehara, K. Toyota, R. Fukuda, 
 J. Hasegawa, M. Ishida, T. Nakajima, Y. Honda, O. Kitao, H. Nakai, 
 T. Vreven, K. Throssell, J. A. Montgomery, Jr., J. E. Peralta, 
 F. Ogliaro, M. J. Bearpark, J. J. Heyd, E. N. Brothers, K. N. Kudin, 
 V. N. Staroverov, T. A. Keith, R. Kobayashi, J. Normand, 
 K. Raghavachari, A. P. Rendell, J. C. Burant, S. S. Iyengar, 
 J. Tomasi, M. Cossi, J. M. Millam, M. Klene, C. Adamo, R. Cammi, 
 J. W. Ochterski, R. L. Martin, K. Morokuma, O. Farkas, 
 J. B. Foresman, and D. J. Fox, Gaussian, Inc., Wallingford CT, 2016.
 
 ******************************************
 Gaussian 16:  ES64L-G16RevA.03 25-Dec-2016
                25-Feb-2020 
 ******************************************
 %mem=50GB
 %nproc=16
 Will use up to   16 processors via shared memory.
 ----------------------------------------------------------------------
 #P uLC-wHPBE/6-31G iop(3/107=0271100000, 3/108=0271100000) scf=(conver
 =6,fermi,ndamp=35,noincfock,novaracc,vshift=500,xqc)
 ----------------------------------------------------------------------
 1/38=1,172=1/1;
 2/12=2,17=6,18=5,40=1/2;
 3/5=1,6=6,11=2,25=1,30=1,74=-71,107=271100000,108=271100000,116=2/1,2,3;
 4//1;
 5/5=100002,6=6,8=3,10=500,13=1,18=-1,22=13,38=1,93=35/2,8;
 6/7=2,8=2,9=2,10=2,28=1/1;
 99/5=1,9=1/99;
 Leave Link    1 at Tue Feb 25 12:20:12 2020, MaxMem=  6710886400 cpu:               9.4 elap:               0.6
 (Enter /opt/ohpc/pub/libs/gaussian/g16-A.03/haswell/g16/l101.exe)
 -----
 H6 C5
 -----
 Symbolic Z-matrix:
 Charge =  1 Multiplicity = 2
 C                    -1.20651   0.69658   0. 
 C                    -1.20651  -0.69658   0. 
 C                     0.       -1.39316   0. 
 C                     1.20651  -0.69658   0. 
 C                     1.20651   0.69658   0. 
 H                     0.        2.48268   0. 
 H                    -2.15007   1.24134   0. 
 H                    -2.15007  -1.24134   0. 
 H                     0.       -2.48268   0. 
 H                     2.15007  -1.24134   0. 
 H                     2.15007   1.24134   0. 
 
 ITRead=  0  0  0  0  0  0  0  0  0  0  0
 MicOpt= -1 -1 -1 -1 -1 -1 -1 -1 -1 -1 -1
 NAtoms=     11 NQM=       11 NQMF=       0 NMMI=      0 NMMIF=      0
                NMic=       0 NMicF=      0.
                    Isotopes and Nuclear Properties:
 (Nuclear quadrupole moments (NQMom) in fm**2, nuclear magnetic moments (NMagM)
  in nuclear magnetons)

  Atom         1           2           3           4           5           6           7           8           9          10
 IAtWgt=          12          12          12          12          12           1           1           1           1           1
 AtmWgt=  12.0000000  12.0000000  12.0000000  12.0000000  12.0000000   1.0078250   1.0078250   1.0078250   1.0078250   1.0078250
 NucSpn=           0           0           0           0           0           1           1           1           1           1
 AtZEff=  -0.0000000  -0.0000000  -0.0000000  -0.0000000  -0.0000000  -0.0000000  -0.0000000  -0.0000000  -0.0000000  -0.0000000
 NQMom=    0.0000000   0.0000000   0.0000000   0.0000000   0.0000000   0.0000000   0.0000000   0.0000000   0.0000000   0.0000000
 NMagM=    0.0000000   0.0000000   0.0000000   0.0000000   0.0000000   2.7928460   2.7928460   2.7928460   2.7928460   2.7928460
 AtZNuc=   6.0000000   6.0000000   6.0000000   6.0000000   6.0000000   1.0000000   1.0000000   1.0000000   1.0000000   1.0000000

  Atom        11
 IAtWgt=           1
 AtmWgt=   1.0078250
 NucSpn=           1
 AtZEff=  -0.0000000
 NQMom=    0.0000000
 NMagM=    2.7928460
 AtZNuc=   1.0000000
 Leave Link  101 at Tue Feb 25 12:20:12 2020, MaxMem=  6710886400 cpu:               2.2 elap:               0.2
 (Enter /opt/ohpc/pub/libs/gaussian/g16-A.03/haswell/g16/l202.exe)
                          Input orientation:                          
 ---------------------------------------------------------------------
 Center     Atomic      Atomic             Coordinates (Angstroms)
 Number     Number       Type             X           Y           Z
 ---------------------------------------------------------------------
      1          6           0       -1.206512    0.696580    0.000000
      2          6           0       -1.206512   -0.696580    0.000000
      3          6           0        0.000000   -1.393160    0.000000
      4          6           0        1.206512   -0.696580    0.000000
      5          6           0        1.206512    0.696580    0.000000
      6          1           0        0.000000    2.482681    0.000000
      7          1           0       -2.150065    1.241340    0.000000
      8          1           0       -2.150065   -1.241340    0.000000
      9          1           0        0.000000   -2.482681    0.000000
     10          1           0        2.150065   -1.241340    0.000000
     11          1           0        2.150065    1.241340    0.000000
 ---------------------------------------------------------------------
                    Distance matrix (angstroms):
                    1          2          3          4          5
     1  C    0.000000
     2  C    1.393160   0.000000
     3  C    2.413024   1.393160   0.000000
     4  C    2.786320   2.413024   1.393160   0.000000
     5  C    2.413024   2.786320   2.413024   1.393160   0.000000
     6  H    2.155418   3.400496   3.875841   3.400496   2.155418
     7  H    1.089521   2.155418   3.400496   3.875841   3.400496
     8  H    2.155418   1.089521   2.155418   3.400496   3.875841
     9  H    3.400496   2.155418   1.089521   2.155418   3.400496
    10  H    3.875841   3.400496   2.155418   1.089521   2.155418
    11  H    3.400496   3.875841   3.400496   2.155418   1.089521
                    6          7          8          9         10
     6  H    0.000000
     7  H    2.482681   0.000000
     8  H    4.300129   2.482680   0.000000
     9  H    4.965362   4.300129   2.482681   0.000000
    10  H    4.300129   4.965362   4.300130   2.482681   0.000000
    11  H    2.482681   4.300130   4.965362   4.300129   2.482680
                   11
    11  H    0.000000
 Stoichiometry    C5H6(1+,2)
 Framework group  C2V[C2(HCH),SGV(C4H4)]
 Deg. of freedom    10
 Full point group                 C2V     NOp   4
 Largest Abelian subgroup         C2V     NOp   4
 Largest concise Abelian subgroup C2      NOp   2
                         Standard orientation:                         
 ---------------------------------------------------------------------
 Center     Atomic      Atomic             Coordinates (Angstroms)
 Number     Number       Type             X           Y           Z
 ---------------------------------------------------------------------
      1          6           0       -0.000000    1.206512   -0.928773
      2          6           0       -0.000000    1.206512    0.464387
      3          6           0        0.000000    0.000000    1.160967
      4          6           0       -0.000000   -1.206512    0.464387
      5          6           0       -0.000000   -1.206512   -0.928773
      6          1           0       -0.000000   -0.000000   -2.714874
      7          1           0       -0.000000    2.150065   -1.473533
      8          1           0       -0.000000    2.150065    1.009147
      9          1           0        0.000000    0.000000    2.250488
     10          1           0       -0.000000   -2.150065    1.009147
     11          1           0       -0.000000   -2.150065   -1.473533
 ---------------------------------------------------------------------
 Rotational constants (GHZ):           8.2868568           5.7099792           3.3806054
 Leave Link  202 at Tue Feb 25 12:20:12 2020, MaxMem=  6710886400 cpu:               0.3 elap:               0.0
 (Enter /opt/ohpc/pub/libs/gaussian/g16-A.03/haswell/g16/l301.exe)
 Standard basis: 6-31G (6D, 7F)
 Ernie: Thresh=  0.10000D-02 Tol=  0.10000D-05 Strict=F.
 There are    27 symmetry adapted cartesian basis functions of A1  symmetry.
 There are     4 symmetry adapted cartesian basis functions of A2  symmetry.
 There are     6 symmetry adapted cartesian basis functions of B1  symmetry.
 There are    20 symmetry adapted cartesian basis functions of B2  symmetry.
 There are    27 symmetry adapted basis functions of A1  symmetry.
 There are     4 symmetry adapted basis functions of A2  symmetry.
 There are     6 symmetry adapted basis functions of B1  symmetry.
 There are    20 symmetry adapted basis functions of B2  symmetry.
    57 basis functions,   134 primitive gaussians,    57 cartesian basis functions
    18 alpha electrons       17 beta electrons
       nuclear repulsion energy       145.0218997931 Hartrees.
 IExCor=33909 DFT=T Ex+Corr=LC-wHPBE ExCW=0 ScaHFX=  1.000000
 ScaDFX=  1.000000  1.000000  1.000000  1.000000 ScalE2=  1.000000  1.000000
 IRadAn=      5 IRanWt=     -1 IRanGd=            0 ICorTp=0 IEmpDi=  4
 HFx  wShort=  0.000000 wLong=  0.271100 cFull=  0.000000 cShort=  0.000000 cLong=  1.000000
 DFx  wShort=  0.000000 wLong=  0.271100 cFull=  0.000000 cShort=  1.000000 cLong=  0.000000
 NAtoms=   11 NActive=   11 NUniq=    7 SFac= 2.47D+00 NAtFMM=   60 NAOKFM=F Big=F
 Integral buffers will be    131072 words long.
 Raffenetti 2 integral format.
 Two-electron integral symmetry is turned on.
 Leave Link  301 at Tue Feb 25 12:20:13 2020, MaxMem=  6710886400 cpu:               0.8 elap:               0.1
 (Enter /opt/ohpc/pub/libs/gaussian/g16-A.03/haswell/g16/l302.exe)
 NPDir=0 NMtPBC=     1 NCelOv=     1 NCel=       1 NClECP=     1 NCelD=      1
         NCelK=      1 NCelE2=     1 NClLst=     1 CellRange=     0.0.
 One-electron integrals computed using PRISM.
 One-electron integral symmetry used in STVInt
 NBasis=    57 RedAO= T EigKep=  2.88D-03  NBF=    27     4     6    20
 NBsUse=    57 1.00D-06 EigRej= -1.00D+00 NBFU=    27     4     6    20
 Precomputing XC quadrature grid using
 IXCGrd= 4 IRadAn=           5 IRanWt=          -1 IRanGd=           0 AccXCQ= 0.00D+00.
 Generated NRdTot=       0 NPtTot=           0 NUsed=           0 NTot=          32
 NSgBfM=    57    57    57    57    57 MxSgAt=    11 MxSgA2=    11.
 Leave Link  302 at Tue Feb 25 12:20:13 2020, MaxMem=  6710886400 cpu:               2.8 elap:               0.2
 (Enter /opt/ohpc/pub/libs/gaussian/g16-A.03/haswell/g16/l303.exe)
 DipDrv:  MaxL=1.
 Leave Link  303 at Tue Feb 25 12:20:13 2020, MaxMem=  6710886400 cpu:               0.5 elap:               0.1
 (Enter /opt/ohpc/pub/libs/gaussian/g16-A.03/haswell/g16/l401.exe)
 ExpMin= 1.61D-01 ExpMax= 3.05D+03 ExpMxC= 4.57D+02 IAcc=3 IRadAn=         5 AccDes= 0.00D+00
 Harris functional with IExCor=33909 and IRadAn=       5 diagonalized for initial guess.
 HarFok:  IExCor=33909 AccDes= 0.00D+00 IRadAn=         5 IDoV= 1 UseB2=F ITyADJ=14
 ICtDFT=  3500011 ScaDFX=  1.000000  1.000000  1.000000  1.000000
 FoFCou: FMM=F IPFlag=           0 FMFlag=      100000 FMFlg1=           0
         NFxFlg=           0 DoJE=T BraDBF=F KetDBF=T FulRan=T
         wScrn=  0.000000 ICntrl=       500 IOpCl=  0 I1Cent=   200000004 NGrid=           0
         NMat0=    1 NMatS0=      1 NMatT0=    0 NMatD0=    1 NMtDS0=    0 NMtDT0=    0
 Petite list used in FoFCou.
 Harris En= -188.474924595702    
 JPrj=0 DoOrth=F DoCkMO=F.
 Initial guess orbital symmetries:
 Alpha Orbitals:
       Occupied  (A1) (B2) (A1) (B2) (A1) (A1) (B2) (A1) (B2) (A1)
                 (A1) (B2) (B2) (A1) (B1) (A1) (A2) (B1)
       Virtual   (B2) (A1) (A2) (B1) (A1) (B2) (A1) (B2) (A1) (A1)
                 (B2) (A1) (B2) (B1) (B2) (A1) (B1) (A1) (A2) (B2)
                 (A1) (A2) (B1) (B2) (A1) (A1) (B2) (A1) (B2) (A1)
                 (A1) (B2) (A1) (A1) (B2) (B2) (A1) (A1) (B2)
 Beta  Orbitals:
       Occupied  (A1) (B2) (A1) (B2) (A1) (A1) (B2) (A1) (B2) (A1)
                 (A1) (B2) (B2) (A1) (B1) (A1) (A2)
       Virtual   (B1) (B2) (A1) (A2) (B1) (A1) (B2) (A1) (B2) (A1)
                 (A1) (B2) (A1) (B2) (B1) (B2) (A1) (B1) (A1) (A2)
                 (B2) (A1) (A2) (B1) (B2) (A1) (A1) (B2) (A1) (B2)
                 (A1) (A1) (B2) (A1) (A1) (B2) (B2) (A1) (A1) (B2)
 The electronic state of the initial guess is 2-B1.
 Initial guess <Sx>= 0.0000 <Sy>= 0.0000 <Sz>= 0.5000 <S**2>= 0.7500 S= 0.5000
 Leave Link  401 at Tue Feb 25 12:20:13 2020, MaxMem=  6710886400 cpu:               4.3 elap:               0.3
 (Enter /opt/ohpc/pub/libs/gaussian/g16-A.03/haswell/g16/l502.exe)
 Keep R1 and R2 ints in memory in symmetry-blocked form, NReq=16815659.
 FoFCou: FMM=F IPFlag=           0 FMFlag=           0 FMFlg1=           0
         NFxFlg=           0 DoJE=F BraDBF=F KetDBF=F FulRan=T
         wScrn=  0.000000 ICntrl=       600 IOpCl=  0 I1Cent=           0 NGrid=           0
         NMat0=    1 NMatS0=   1653 NMatT0=    0 NMatD0=    1 NMtDS0=    0 NMtDT0=    0
 Petite list used in FoFCou.
 UHF open shell SCF:
 Using DIIS extrapolation, IDIIS=    10.
 NGot=  6710886400 LenX=  6710059583 LenY=  6710055893
 Requested convergence on RMS density matrix=1.00D-06 within  32 cycles.
 Requested convergence on MAX density matrix=1.00D-04.
 Requested convergence on             energy=1.00D-04.
 Virtual orbitals will be shifted by   0.500 hartree.
 No special actions if energy rises.
 Dynamic level shift is on during FON iterations.

 Cycle   1  Pass 1  IDiag  1:
 E= -193.190754477150    
 DIIS: error= 5.82D-02 at cycle   1 NSaved=   1.
 NSaved= 1 IEnMin= 1 EnMin= -193.190754477150     IErMin= 1 ErrMin= 5.82D-02
 ErrMax= 5.82D-02  0.00D+00 EMaxC= 1.00D+00 BMatC= 2.95D-01 BMatP= 2.95D-01
 IDIUse=1 WtCom= 1.00D+00 WtEn= 0.00D+00
 Coeff-Com:  0.100D+01
 Coeff:      0.100D+01
 Gap=     0.067 Goal=   None    Shift=    0.500
 T= 1893. Gap= 0.524 NK=0 IS=   19 IE=   57 IFin=   18
          NO(<0.9)=   0  NV(>0.1)=   0     18.00e < EF      0.00e >EF  Err=0.0D+00
 Gap=     0.091 Goal=   None    Shift=    0.500
 T= 1893. Gap= 0.597 NK=0 IS=   18 IE=   57 IFin=   17
          NO(<0.9)=   0  NV(>0.1)=   0     17.00e < EF      0.00e >EF  Err=0.0D+00
 GapD=    0.067 DampG=0.500 DampE=0.500 DampFc=0.2500 IDamp=-1.
 Damping current iteration by 2.50D-01
 RMSDP=7.76D-03 MaxDP=6.04D-02              OVMax= 1.25D-01

 Cycle   2  Pass 1  IDiag  1:
 E= -193.227794530509     Delta-E=       -0.037040053359 Rises=F Damp=T
 DIIS: error= 4.28D-02 at cycle   2 NSaved=   2.
 NSaved= 2 IEnMin= 2 EnMin= -193.227794530509     IErMin= 2 ErrMin= 4.28D-02
 ErrMax= 4.28D-02  0.00D+00 EMaxC= 1.00D+00 BMatC= 1.44D-01 BMatP= 2.95D-01
 IDIUse=1 WtCom= 1.00D+00 WtEn= 0.00D+00
 Coeff-Com: -0.202D+01 0.302D+01
 Coeff:     -0.202D+01 0.302D+01
 Gap=     0.167 Goal=   None    Shift=    0.500
 T= 1838. Gap= 0.647 NK=4 IS=   19 IE=   24 IFin=   18
          NO(<0.9)=   0  NV(>0.1)=   0     18.00e < EF      0.00e >EF  Err=0.0D+00
 Gap=     0.199 Goal=   None    Shift=    0.500
 T= 1838. Gap= 0.701 NK=4 IS=   18 IE=   21 IFin=   17
          NO(<0.9)=   0  NV(>0.1)=   0     17.00e < EF      0.00e >EF  Err=0.0D+00
 GapD=    0.167 DampG=1.000 DampE=0.500 DampFc=0.5000 IDamp=-1.
 Damping current iteration by 5.00D-01
 RMSDP=6.30D-03 MaxDP=5.17D-02 DE=-3.70D-02 OVMax= 5.11D-02

 Cycle   3  Pass 1  IDiag  1:
 E= -193.272759641450     Delta-E=       -0.044965110941 Rises=F Damp=T
 DIIS: error= 2.30D-02 at cycle   3 NSaved=   3.
 NSaved= 3 IEnMin= 3 EnMin= -193.272759641450     IErMin= 3 ErrMin= 2.30D-02
 ErrMax= 2.30D-02  0.00D+00 EMaxC= 1.00D+00 BMatC= 3.15D-02 BMatP= 1.44D-01
 IDIUse=1 WtCom= 1.00D+00 WtEn= 0.00D+00
 Coeff-Com:  0.100D+01-0.256D+01 0.256D+01
 Coeff:      0.100D+01-0.256D+01 0.256D+01
 Gap=     0.197 Goal=   None    Shift=    0.500
 T= 1688. Gap= 0.697 NK=4 IS=   19 IE=   24 IFin=   18
          NO(<0.9)=   0  NV(>0.1)=   0     18.00e < EF      0.00e >EF  Err=0.0D+00
 Gap=     0.252 Goal=   None    Shift=    0.500
 T= 1688. Gap= 0.752 NK=4 IS=   18 IE=   21 IFin=   17
          NO(<0.9)=   0  NV(>0.1)=   0     17.00e < EF      0.00e >EF  Err=0.0D+00
 GapD=    0.197 DampG=1.000 DampE=0.500 DampFc=0.5000 IDamp=-1.
 Damping current iteration by 5.00D-01
 RMSDP=3.16D-03 MaxDP=2.55D-02 DE=-4.50D-02 OVMax= 2.22D-02

 Cycle   4  Pass 1  IDiag  1:
 E= -193.291486633175     Delta-E=       -0.018726991725 Rises=F Damp=T
 DIIS: error= 1.34D-02 at cycle   4 NSaved=   4.
 NSaved= 4 IEnMin= 4 EnMin= -193.291486633175     IErMin= 4 ErrMin= 1.34D-02
 ErrMax= 1.34D-02  0.00D+00 EMaxC= 1.00D+00 BMatC= 8.62D-03 BMatP= 3.15D-02
 IDIUse=1 WtCom= 1.00D+00 WtEn= 0.00D+00
 Coeff-Com:  0.332D+00-0.122D+00-0.216D+01 0.295D+01
 Coeff:      0.332D+00-0.122D+00-0.216D+01 0.295D+01
 Gap=     0.211 Goal=   None    Shift=    0.500
 T= 1420. Gap= 0.711 NK=4 IS=   19 IE=   24 IFin=   18
          NO(<0.9)=   0  NV(>0.1)=   0     18.00e < EF      0.00e >EF  Err=0.0D+00
 Gap=     0.264 Goal=   None    Shift=    0.500
 T= 1420. Gap= 0.764 NK=4 IS=   18 IE=   21 IFin=   17
          NO(<0.9)=   0  NV(>0.1)=   0     17.00e < EF      0.00e >EF  Err=0.0D+00
 GapD=    0.211 DampG=1.000 DampE=0.500 DampFc=0.5000 IDamp=-1.
 Damping current iteration by 5.00D-01
 RMSDP=1.77D-03 MaxDP=1.87D-02 DE=-1.87D-02 OVMax= 1.52D-02

 Cycle   5  Pass 1  IDiag  1:
 E= -193.300554352537     Delta-E=       -0.009067719362 Rises=F Damp=T
 DIIS: error= 8.85D-03 at cycle   5 NSaved=   5.
 NSaved= 5 IEnMin= 5 EnMin= -193.300554352537     IErMin= 5 ErrMin= 8.85D-03
 ErrMax= 8.85D-03  0.00D+00 EMaxC= 1.00D+00 BMatC= 3.02D-03 BMatP= 8.62D-03
 IDIUse=1 WtCom= 1.00D+00 WtEn= 0.00D+00
 Coeff-Com: -0.342D+00 0.737D+00 0.197D+00-0.374D+01 0.415D+01
 Coeff:     -0.342D+00 0.737D+00 0.197D+00-0.374D+01 0.415D+01
 Gap=     0.216 Goal=   None    Shift=    0.500
 T= 1084. Gap= 0.716 NK=4 IS=   19 IE=   24 IFin=   18
          NO(<0.9)=   0  NV(>0.1)=   0     18.00e < EF      0.00e >EF  Err=0.0D+00
 Gap=     0.268 Goal=   None    Shift=    0.500
 T= 1084. Gap= 0.768 NK=4 IS=   18 IE=   21 IFin=   17
          NO(<0.9)=   0  NV(>0.1)=   0     17.00e < EF      0.00e >EF  Err=0.0D+00
 GapD=    0.216 DampG=1.000 DampE=1.000 DampFc=1.0000 IDamp=-1.
 RMSDP=1.26D-03 MaxDP=1.54D-02 DE=-9.07D-03 OVMax= 1.57D-02

 Cycle   6  Pass 1  IDiag  1:
 E= -193.310487242944     Delta-E=       -0.009932890407 Rises=F Damp=F
 DIIS: error= 3.41D-03 at cycle   6 NSaved=   6.
 NSaved= 6 IEnMin= 6 EnMin= -193.310487242944     IErMin= 6 ErrMin= 3.41D-03
 ErrMax= 3.41D-03  0.00D+00 EMaxC= 1.00D+00 BMatC= 3.28D-04 BMatP= 3.02D-03
 IDIUse=1 WtCom= 1.00D+00 WtEn= 0.00D+00
 Coeff-Com:  0.142D+00-0.397D+00 0.397D+00 0.167D+01-0.336D+01 0.255D+01
 Coeff:      0.142D+00-0.397D+00 0.397D+00 0.167D+01-0.336D+01 0.255D+01
 Gap=     0.218 Goal=   None    Shift=    0.500
 T=  743. Gap= 0.718 NK=4 IS=   19 IE=   24 IFin=   18
          NO(<0.9)=   0  NV(>0.1)=   0     18.00e < EF      0.00e >EF  Err=0.0D+00
 Gap=     0.267 Goal=   None    Shift=    0.500
 T=  743. Gap= 0.768 NK=4 IS=   18 IE=   21 IFin=   17
          NO(<0.9)=   0  NV(>0.1)=   0     17.00e < EF      0.00e >EF  Err=0.0D+00
 GapD=    0.218 DampG=1.000 DampE=1.000 DampFc=1.0000 IDamp=-1.
 RMSDP=3.65D-04 MaxDP=4.91D-03 DE=-9.93D-03 OVMax= 1.40D-02

 Cycle   7  Pass 1  IDiag  1:
 E= -193.311006721468     Delta-E=       -0.000519478524 Rises=F Damp=F
 DIIS: error= 2.56D-03 at cycle   7 NSaved=   7.
 NSaved= 7 IEnMin= 7 EnMin= -193.311006721468     IErMin= 7 ErrMin= 2.56D-03
 ErrMax= 2.56D-03  0.00D+00 EMaxC= 1.00D+00 BMatC= 1.61D-04 BMatP= 3.28D-04
 IDIUse=1 WtCom= 1.00D+00 WtEn= 0.00D+00
 Coeff-Com:  0.416D-01-0.402D-01-0.328D+00 0.655D+00-0.128D+00-0.217D+01
 Coeff-Com:  0.297D+01
 Coeff:      0.416D-01-0.402D-01-0.328D+00 0.655D+00-0.128D+00-0.217D+01
 Coeff:      0.297D+01
 Gap=     0.220 Goal=   None    Shift=    0.500
 T=  414. Gap= 0.720 NK=4 IS=   19 IE=   24 IFin=   18
          NO(<0.9)=   0  NV(>0.1)=   0     18.00e < EF      0.00e >EF  Err=0.0D+00
 Gap=     0.267 Goal=   None    Shift=    0.500
 T=  414. Gap= 0.768 NK=4 IS=   18 IE=   21 IFin=   17
          NO(<0.9)=   0  NV(>0.1)=   0     17.00e < EF      0.00e >EF  Err=0.0D+00
 GapD=    0.220 DampG=1.000 DampE=1.000 DampFc=1.0000 IDamp=-1.
 RMSDP=2.95D-04 MaxDP=4.34D-03 DE=-5.19D-04 OVMax= 1.23D-02

 Cycle   8  Pass 1  IDiag  1:
 E= -193.311315326847     Delta-E=       -0.000308605379 Rises=F Damp=F
 DIIS: error= 1.75D-03 at cycle   8 NSaved=   8.
 NSaved= 8 IEnMin= 8 EnMin= -193.311315326847     IErMin= 8 ErrMin= 1.75D-03
 ErrMax= 1.75D-03  0.00D+00 EMaxC= 1.00D+00 BMatC= 8.21D-05 BMatP= 1.61D-04
 IDIUse=1 WtCom= 1.00D+00 WtEn= 0.00D+00
 Coeff-Com: -0.254D-01 0.927D-01-0.183D+00-0.401D+00 0.105D+01-0.165D+01
 Coeff-Com:  0.640D+00 0.147D+01
 Coeff:     -0.254D-01 0.927D-01-0.183D+00-0.401D+00 0.105D+01-0.165D+01
 Coeff:      0.640D+00 0.147D+01
 Gap=     0.221 Goal=   None    Shift=    0.500
 T=   23. Gap= 0.721 NK=4 IS=   19 IE=   24 IFin=   18
          NO(<0.9)=   0  NV(>0.1)=   0     18.00e < EF      0.00e >EF  Err=0.0D+00
 Gap=     0.267 Goal=   None    Shift=    0.500
 T=   23. Gap= 0.767 NK=4 IS=   18 IE=   21 IFin=   17
          NO(<0.9)=   0  NV(>0.1)=   0     17.00e < EF      0.00e >EF  Err=0.0D+00
 GapD=    0.221 DampG=1.000 DampE=1.000 DampFc=1.0000 IDamp=-1.
 RMSDP=1.96D-04 MaxDP=2.50D-03 DE=-3.09D-04 OVMax= 8.28D-03

 Cycle   9  Pass 1  IDiag  1:
 E= -193.311467789889     Delta-E=       -0.000152463042 Rises=F Damp=F
 DIIS: error= 1.33D-03 at cycle   9 NSaved=   9.
 NSaved= 9 IEnMin= 9 EnMin= -193.311467789889     IErMin= 9 ErrMin= 1.33D-03
 ErrMax= 1.33D-03  0.00D+00 EMaxC= 1.00D+00 BMatC= 4.82D-05 BMatP= 8.21D-05
 IDIUse=1 WtCom= 1.00D+00 WtEn= 0.00D+00
 Coeff-Com:  0.494D-02-0.691D-01 0.419D+00-0.504D+00-0.163D+00 0.209D+01
 Coeff-Com: -0.256D+01-0.189D+01 0.368D+01
 Coeff:      0.494D-02-0.691D-01 0.419D+00-0.504D+00-0.163D+00 0.209D+01
 Coeff:     -0.256D+01-0.189D+01 0.368D+01
 Gap=     0.223 Goal=   None    Shift=    0.500
 Gap=     0.266 Goal=   None    Shift=    0.500
 GapD=    0.223 DampG=1.000 DampE=1.000 DampFc=1.0000 IDamp=-1.
 RMSDP=1.95D-04 MaxDP=2.99D-03 DE=-1.52D-04 OVMax= 8.37D-03

 Cycle  10  Pass 1  IDiag  1:
 E= -193.311592921196     Delta-E=       -0.000125131307 Rises=F Damp=F
 DIIS: error= 1.17D-03 at cycle  10 NSaved=  10.
 NSaved=10 IEnMin=10 EnMin= -193.311592921196     IErMin=10 ErrMin= 1.17D-03
 ErrMax= 1.17D-03  0.00D+00 EMaxC= 1.00D+00 BMatC= 3.07D-05 BMatP= 4.82D-05
 IDIUse=1 WtCom= 1.00D+00 WtEn= 0.00D+00
 Coeff-Com:  0.166D-02 0.300D-02-0.282D-01 0.132D+00-0.192D+00 0.156D+00
 Coeff-Com:  0.248D+00-0.377D+00-0.178D+01 0.283D+01
 Coeff:      0.166D-02 0.300D-02-0.282D-01 0.132D+00-0.192D+00 0.156D+00
 Coeff:      0.248D+00-0.377D+00-0.178D+01 0.283D+01
 Gap=     0.224 Goal=   None    Shift=    0.500
 Gap=     0.265 Goal=   None    Shift=    0.500
 GapD=    0.224 DampG=1.000 DampE=1.000 DampFc=1.0000 IDamp=-1.
 RMSDP=1.62D-04 MaxDP=2.93D-03 DE=-1.25D-04 OVMax= 8.05D-03

 Cycle  11  Pass 1  IDiag  1:
 E= -193.311683696933     Delta-E=       -0.000090775737 Rises=F Damp=F
 DIIS: error= 1.06D-03 at cycle  11 NSaved=  11.
 NSaved=11 IEnMin=11 EnMin= -193.311683696933     IErMin=11 ErrMin= 1.06D-03
 ErrMax= 1.06D-03  0.00D+00 EMaxC= 1.00D+00 BMatC= 2.33D-05 BMatP= 3.07D-05
 IDIUse=1 WtCom= 1.00D+00 WtEn= 0.00D+00
 Large coefficients: NSaved= 11 BigCof=   12.06 CofMax=   10.00 Det=-1.58D-08
 Inversion failed.  Reducing to 10 matrices.
 Large coefficients: NSaved= 10 BigCof=   12.05 CofMax=   10.00 Det=-1.58D-08
 Inversion failed.  Reducing to  9 matrices.
 Coeff-Com:  0.139D-01-0.251D+00 0.437D+00-0.334D+00-0.322D+00 0.444D+00
 Coeff-Com:  0.364D+01-0.961D+01 0.698D+01
 Coeff:      0.139D-01-0.251D+00 0.437D+00-0.334D+00-0.322D+00 0.444D+00
 Coeff:      0.364D+01-0.961D+01 0.698D+01
 Gap=     0.227 Goal=   None    Shift=    0.500
 Gap=     0.264 Goal=   None    Shift=    0.500
 GapD=    0.227 DampG=1.000 DampE=1.000 DampFc=1.0000 IDamp=-1.
 RMSDP=2.03D-04 MaxDP=3.88D-03 DE=-9.08D-05 OVMax= 1.10D-02

 Cycle  12  Pass 1  IDiag  1:
 E= -193.311787847877     Delta-E=       -0.000104150944 Rises=F Damp=F
 DIIS: error= 9.73D-04 at cycle  12 NSaved=  10.
 NSaved=10 IEnMin=10 EnMin= -193.311787847877     IErMin=10 ErrMin= 9.73D-04
 ErrMax= 9.73D-04  0.00D+00 EMaxC= 1.00D+00 BMatC= 2.00D-05 BMatP= 2.33D-05
 IDIUse=1 WtCom= 1.00D+00 WtEn= 0.00D+00
 Coeff-Com:  0.210D-01-0.252D+00 0.413D+00-0.264D+00-0.340D+00 0.339D+00
 Coeff-Com:  0.331D+01-0.832D+01 0.561D+01 0.478D+00
 Coeff:      0.210D-01-0.252D+00 0.413D+00-0.264D+00-0.340D+00 0.339D+00
 Coeff:      0.331D+01-0.832D+01 0.561D+01 0.478D+00
 Gap=     0.228 Goal=   None    Shift=    0.500
 Gap=     0.264 Goal=   None    Shift=    0.500
 RMSDP=1.26D-04 MaxDP=2.73D-03 DE=-1.04D-04 OVMax= 7.07D-03

 Cycle  13  Pass 1  IDiag  1:
 E= -193.311848617562     Delta-E=       -0.000060769686 Rises=F Damp=F
 DIIS: error= 8.97D-04 at cycle  13 NSaved=  11.
 NSaved=11 IEnMin=11 EnMin= -193.311848617562     IErMin=11 ErrMin= 8.97D-04
 ErrMax= 8.97D-04  0.00D+00 EMaxC= 1.00D+00 BMatC= 1.71D-05 BMatP= 2.00D-05
 IDIUse=1 WtCom= 1.00D+00 WtEn= 0.00D+00
 Large coefficients: NSaved= 11 BigCof=   13.49 CofMax=   10.00 Det=-6.93D-09
 Inversion failed.  Reducing to 10 matrices.
 Large coefficients: NSaved= 10 BigCof=   13.51 CofMax=   10.00 Det=-6.94D-09
 Inversion failed.  Reducing to  9 matrices.
 Coeff-Com:  0.169D-01-0.145D+00 0.222D+00-0.503D-01-0.131D+01 0.593D+01
 Coeff-Com: -0.705D+01-0.398D+01 0.735D+01
 Coeff:      0.169D-01-0.145D+00 0.222D+00-0.503D-01-0.131D+01 0.593D+01
 Coeff:     -0.705D+01-0.398D+01 0.735D+01
 Gap=     0.233 Goal=   None    Shift=    0.500
 Gap=     0.260 Goal=   None    Shift=    0.500
 RMSDP=3.58D-04 MaxDP=6.85D-03 DE=-6.08D-05 OVMax= 2.01D-02

 Cycle  14  Pass 1  IDiag  1:
 E= -193.311997201531     Delta-E=       -0.000148583969 Rises=F Damp=F
 DIIS: error= 7.84D-04 at cycle  14 NSaved=  10.
 NSaved=10 IEnMin=10 EnMin= -193.311997201531     IErMin=10 ErrMin= 7.84D-04
 ErrMax= 7.84D-04  0.00D+00 EMaxC= 1.00D+00 BMatC= 1.72D-05 BMatP= 1.71D-05
 IDIUse=1 WtCom= 1.00D+00 WtEn= 0.00D+00
 Large coefficients: NSaved= 10 BigCof=   15.40 CofMax=   10.00 Det=-1.59D-08
 Inversion failed.  Reducing to  9 matrices.
 Large coefficients: NSaved=  9 BigCof=   15.51 CofMax=   10.00 Det=-1.81D-08
 Inversion failed.  Reducing to  8 matrices.
 Large coefficients: NSaved=  8 BigCof=   15.45 CofMax=   10.00 Det=-2.45D-08
 Inversion failed.  Reducing to  7 matrices.
 Large coefficients: NSaved=  7 BigCof=   15.38 CofMax=   10.00 Det=-1.62D-08
 Inversion failed.  Reducing to  6 matrices.
 Large coefficients: NSaved=  6 BigCof=   14.83 CofMax=   10.00 Det=-1.66D-08
 Inversion failed.  Reducing to  5 matrices.
 Large coefficients: NSaved=  5 BigCof=   14.23 CofMax=   10.00 Det=-3.39D-08
 Inversion failed.  Reducing to  4 matrices.
 Large coefficients: NSaved=  4 BigCof=   13.78 CofMax=   10.00 Det=-4.66D-08
 Inversion failed.  Reducing to  3 matrices.
 Coeff-Com: -0.367D+01 0.403D+01 0.631D+00
 Coeff:     -0.367D+01 0.403D+01 0.631D+00
 Gap=     0.233 Goal=   None    Shift=    0.500
 Gap=     0.261 Goal=   None    Shift=    0.500
 RMSDP=1.65D-04 MaxDP=3.81D-03 DE=-1.49D-04 OVMax= 9.24D-03

 Cycle  15  Pass 1  IDiag  1:
 E= -193.312057901632     Delta-E=       -0.000060700101 Rises=F Damp=F
 DIIS: error= 6.98D-04 at cycle  15 NSaved=   4.
 NSaved= 4 IEnMin= 4 EnMin= -193.312057901632     IErMin= 4 ErrMin= 6.98D-04
 ErrMax= 6.98D-04  0.00D+00 EMaxC= 1.00D+00 BMatC= 1.22D-05 BMatP= 1.71D-05
 IDIUse=1 WtCom= 1.00D+00 WtEn= 0.00D+00
 Coeff-Com:  0.249D+01-0.324D+01-0.324D+01 0.499D+01
 Coeff:      0.249D+01-0.324D+01-0.324D+01 0.499D+01
 Gap=     0.232 Goal=   None    Shift=    0.500
 Gap=     0.259 Goal=   None    Shift=    0.500
 RMSDP=2.76D-04 MaxDP=5.52D-03 DE=-6.07D-05 OVMax= 1.58D-02

 Cycle  16  Pass 1  IDiag  1:
 E= -193.312139201604     Delta-E=       -0.000081299972 Rises=F Damp=F
 DIIS: error= 5.86D-04 at cycle  16 NSaved=   5.
 NSaved= 5 IEnMin= 5 EnMin= -193.312139201604     IErMin= 5 ErrMin= 5.86D-04
 ErrMax= 5.86D-04  0.00D+00 EMaxC= 1.00D+00 BMatC= 1.23D-05 BMatP= 1.22D-05
 IDIUse=1 WtCom= 1.00D+00 WtEn= 0.00D+00
 Coeff-Com:  0.218D+01-0.215D+01-0.378D+01 0.349D+01 0.126D+01
 Coeff:      0.218D+01-0.215D+01-0.378D+01 0.349D+01 0.126D+01
 Gap=     0.232 Goal=   None    Shift=    0.500
 Gap=     0.259 Goal=   None    Shift=    0.500
 RMSDP=1.85D-04 MaxDP=4.08D-03 DE=-8.13D-05 OVMax= 1.07D-02

 Cycle  17  Pass 1  IDiag  1:
 E= -193.312183224070     Delta-E=       -0.000044022466 Rises=F Damp=F
 DIIS: error= 4.87D-04 at cycle  17 NSaved=   6.
 NSaved= 6 IEnMin= 6 EnMin= -193.312183224070     IErMin= 6 ErrMin= 4.87D-04
 ErrMax= 4.87D-04  0.00D+00 EMaxC= 1.00D+00 BMatC= 8.29D-06 BMatP= 1.22D-05
 IDIUse=1 WtCom= 1.00D+00 WtEn= 0.00D+00
 Coeff-Com: -0.393D+01 0.523D+01 0.291D+01-0.453D+01-0.427D+01 0.559D+01
 Coeff:     -0.393D+01 0.523D+01 0.291D+01-0.453D+01-0.427D+01 0.559D+01
 Gap=     0.231 Goal=   None    Shift=    0.500
 Gap=     0.259 Goal=   None    Shift=    0.500
 RMSDP=1.26D-04 MaxDP=2.75D-03 DE=-4.40D-05 OVMax= 7.54D-03

 Cycle  18  Pass 1  IDiag  1:
 E= -193.312208134530     Delta-E=       -0.000024910461 Rises=F Damp=F
 DIIS: error= 4.26D-04 at cycle  18 NSaved=   7.
 NSaved= 7 IEnMin= 7 EnMin= -193.312208134530     IErMin= 7 ErrMin= 4.26D-04
 ErrMax= 4.26D-04  0.00D+00 EMaxC= 1.00D+00 BMatC= 5.17D-06 BMatP= 8.29D-06
 IDIUse=1 WtCom= 1.00D+00 WtEn= 0.00D+00
 Coeff-Com: -0.102D+01 0.115D+01 0.552D+00-0.663D+00-0.401D+00-0.171D+01
 Coeff-Com:  0.309D+01
 Coeff:     -0.102D+01 0.115D+01 0.552D+00-0.663D+00-0.401D+00-0.171D+01
 Coeff:      0.309D+01
 Gap=     0.231 Goal=   None    Shift=    0.500
 Gap=     0.259 Goal=   None    Shift=    0.500
 RMSDP=1.29D-04 MaxDP=2.75D-03 DE=-2.49D-05 OVMax= 7.41D-03

 Cycle  19  Pass 1  IDiag  1:
 E= -193.312227232775     Delta-E=       -0.000019098245 Rises=F Damp=F
 DIIS: error= 2.88D-04 at cycle  19 NSaved=   8.
 NSaved= 8 IEnMin= 8 EnMin= -193.312227232775     IErMin= 8 ErrMin= 2.88D-04
 ErrMax= 2.88D-04  0.00D+00 EMaxC= 1.00D+00 BMatC= 3.42D-06 BMatP= 5.17D-06
 IDIUse=1 WtCom= 1.00D+00 WtEn= 0.00D+00
 Coeff-Com:  0.293D+01-0.340D+01-0.299D+01 0.353D+01 0.316D+01-0.565D+01
 Coeff-Com:  0.106D+01 0.236D+01
 Coeff:      0.293D+01-0.340D+01-0.299D+01 0.353D+01 0.316D+01-0.565D+01
 Coeff:      0.106D+01 0.236D+01
 Gap=     0.231 Goal=   None    Shift=    0.500
 Gap=     0.258 Goal=   None    Shift=    0.500
 RMSDP=1.03D-04 MaxDP=2.22D-03 DE=-1.91D-05 OVMax= 6.00D-03

 Cycle  20  Pass 1  IDiag  1:
 E= -193.312238353689     Delta-E=       -0.000011120914 Rises=F Damp=F
 DIIS: error= 2.09D-04 at cycle  20 NSaved=   9.
 NSaved= 9 IEnMin= 9 EnMin= -193.312238353689     IErMin= 9 ErrMin= 2.09D-04
 ErrMax= 2.09D-04  0.00D+00 EMaxC= 1.00D+00 BMatC= 2.06D-06 BMatP= 3.42D-06
 IDIUse=1 WtCom= 1.00D+00 WtEn= 0.00D+00
 Coeff-Com:  0.193D+00 0.241D+00-0.733D+00 0.346D+00-0.504D+00 0.117D+01
 Coeff-Com: -0.138D+01-0.905D+00 0.257D+01
 Coeff:      0.193D+00 0.241D+00-0.733D+00 0.346D+00-0.504D+00 0.117D+01
 Coeff:     -0.138D+01-0.905D+00 0.257D+01
 Gap=     0.231 Goal=   None    Shift=    0.500
 Gap=     0.259 Goal=   None    Shift=    0.500
 RMSDP=4.82D-05 MaxDP=1.12D-03 DE=-1.11D-05 OVMax= 2.75D-03

 Cycle  21  Pass 1  IDiag  1:
 E= -193.312242444104     Delta-E=       -0.000004090415 Rises=F Damp=F
 DIIS: error= 1.92D-04 at cycle  21 NSaved=  10.
 NSaved=10 IEnMin=10 EnMin= -193.312242444104     IErMin=10 ErrMin= 1.92D-04
 ErrMax= 1.92D-04  0.00D+00 EMaxC= 1.00D+00 BMatC= 9.19D-07 BMatP= 2.06D-06
 IDIUse=1 WtCom= 1.00D+00 WtEn= 0.00D+00
 Coeff-Com: -0.213D+00 0.487D+00-0.102D+00-0.213D+00-0.666D+00 0.185D+01
 Coeff-Com: -0.185D+01-0.126D+00 0.275D+00 0.155D+01
 Coeff:     -0.213D+00 0.487D+00-0.102D+00-0.213D+00-0.666D+00 0.185D+01
 Coeff:     -0.185D+01-0.126D+00 0.275D+00 0.155D+01
 Gap=     0.231 Goal=   None    Shift=    0.500
 Gap=     0.259 Goal=   None    Shift=    0.500
 RMSDP=4.44D-05 MaxDP=9.78D-04 DE=-4.09D-06 OVMax= 2.53D-03

 Cycle  22  Pass 1  IDiag  1:
 E= -193.312244907134     Delta-E=       -0.000002463030 Rises=F Damp=F
 DIIS: error= 1.45D-04 at cycle  22 NSaved=  11.
 NSaved=11 IEnMin=11 EnMin= -193.312244907134     IErMin=11 ErrMin= 1.45D-04
 ErrMax= 1.45D-04  0.00D+00 EMaxC= 1.00D+00 BMatC= 5.18D-07 BMatP= 9.19D-07
 IDIUse=1 WtCom= 1.00D+00 WtEn= 0.00D+00
 Coeff-Com:  0.147D-02 0.214D+00-0.403D+00 0.122D+00 0.445D-01-0.284D+00
 Coeff-Com:  0.408D+00 0.212D+00 0.658D+00-0.438D+01 0.441D+01
 Coeff:      0.147D-02 0.214D+00-0.403D+00 0.122D+00 0.445D-01-0.284D+00
 Coeff:      0.408D+00 0.212D+00 0.658D+00-0.438D+01 0.441D+01
 Gap=     0.231 Goal=   None    Shift=    0.500
 Gap=     0.259 Goal=   None    Shift=    0.500
 RMSDP=3.22D-05 MaxDP=7.22D-04 DE=-2.46D-06 OVMax= 1.83D-03

 Cycle  23  Pass 1  IDiag  1:
 E= -193.312246101844     Delta-E=       -0.000001194710 Rises=F Damp=F
 DIIS: error= 1.07D-04 at cycle  23 NSaved=  12.
 NSaved=12 IEnMin=12 EnMin= -193.312246101844     IErMin=12 ErrMin= 1.07D-04
 ErrMax= 1.07D-04  0.00D+00 EMaxC= 1.00D+00 BMatC= 2.67D-07 BMatP= 5.18D-07
 IDIUse=1 WtCom= 1.00D+00 WtEn= 0.00D+00
 Coeff-Com:  0.267D+00-0.194D+00-0.531D+00 0.480D+00 0.265D+00-0.224D+00
 Coeff-Com: -0.400D+00-0.751D-01 0.710D+00 0.814D+00-0.348D+01 0.337D+01
 Coeff:      0.267D+00-0.194D+00-0.531D+00 0.480D+00 0.265D+00-0.224D+00
 Coeff:     -0.400D+00-0.751D-01 0.710D+00 0.814D+00-0.348D+01 0.337D+01
 Gap=     0.231 Goal=   None    Shift=    0.500
 Gap=     0.258 Goal=   None    Shift=    0.500
 RMSDP=2.07D-05 MaxDP=4.88D-04 DE=-1.19D-06 OVMax= 1.18D-03

 Cycle  24  Pass 1  IDiag  1:
 E= -193.312246612233     Delta-E=       -0.000000510389 Rises=F Damp=F
 DIIS: error= 7.62D-05 at cycle  24 NSaved=  13.
 NSaved=13 IEnMin=13 EnMin= -193.312246612233     IErMin=13 ErrMin= 7.62D-05
 ErrMax= 7.62D-05  0.00D+00 EMaxC= 1.00D+00 BMatC= 1.30D-07 BMatP= 2.67D-07
 IDIUse=1 WtCom= 1.00D+00 WtEn= 0.00D+00
 Coeff-Com: -0.572D-01 0.974D-01-0.383D-01 0.463D-02-0.776D-01 0.116D+00
 Coeff-Com: -0.655D-01 0.784D-01 0.806D-01-0.835D+00 0.212D+01-0.434D+01
 Coeff-Com:  0.392D+01
 Coeff:     -0.572D-01 0.974D-01-0.383D-01 0.463D-02-0.776D-01 0.116D+00
 Coeff:     -0.655D-01 0.784D-01 0.806D-01-0.835D+00 0.212D+01-0.434D+01
 Coeff:      0.392D+01
 Gap=     0.230 Goal=   None    Shift=    0.500
 Gap=     0.258 Goal=   None    Shift=    0.500
 RMSDP=1.46D-05 MaxDP=3.57D-04 DE=-5.10D-07 OVMax= 8.56D-04

 Cycle  25  Pass 1  IDiag  1:
 E= -193.312246842353     Delta-E=       -0.000000230120 Rises=F Damp=F
 DIIS: error= 4.95D-05 at cycle  25 NSaved=  14.
 NSaved=14 IEnMin=14 EnMin= -193.312246842353     IErMin=14 ErrMin= 4.95D-05
 ErrMax= 4.95D-05  0.00D+00 EMaxC= 1.00D+00 BMatC= 5.87D-08 BMatP= 1.30D-07
 IDIUse=1 WtCom= 1.00D+00 WtEn= 0.00D+00
 Coeff-Com: -0.150D+00 0.219D+00 0.660D-01-0.151D+00-0.147D+00 0.188D+00
 Coeff-Com:  0.501D-01 0.538D-01-0.310D-02-0.110D+01 0.245D+01-0.314D+01
 Coeff-Com:  0.979D+00 0.169D+01
 Coeff:     -0.150D+00 0.219D+00 0.660D-01-0.151D+00-0.147D+00 0.188D+00
 Coeff:      0.501D-01 0.538D-01-0.310D-02-0.110D+01 0.245D+01-0.314D+01
 Coeff:      0.979D+00 0.169D+01
 Gap=     0.230 Goal=   None    Shift=    0.500
 Gap=     0.259 Goal=   None    Shift=    0.500
 RMSDP=7.21D-06 MaxDP=1.94D-04 DE=-2.30D-07 OVMax= 4.23D-04

 Cycle  26  Pass 1  IDiag  1:
 E= -193.312246921036     Delta-E=       -0.000000078683 Rises=F Damp=F
 DIIS: error= 3.48D-05 at cycle  26 NSaved=  15.
 NSaved=15 IEnMin=15 EnMin= -193.312246921036     IErMin=15 ErrMin= 3.48D-05
 ErrMax= 3.48D-05  0.00D+00 EMaxC= 1.00D+00 BMatC= 2.42D-08 BMatP= 5.87D-08
 IDIUse=1 WtCom= 1.00D+00 WtEn= 0.00D+00
 Coeff-Com:  0.131D-01 0.122D-01-0.665D-01 0.299D-01 0.551D-01-0.448D-01
 Coeff-Com: -0.695D-01 0.221D-01 0.134D+00 0.919D-01-0.931D+00 0.227D+01
 Coeff-Com: -0.245D+01-0.635D+00 0.257D+01
 Coeff:      0.131D-01 0.122D-01-0.665D-01 0.299D-01 0.551D-01-0.448D-01
 Coeff:     -0.695D-01 0.221D-01 0.134D+00 0.919D-01-0.931D+00 0.227D+01
 Coeff:     -0.245D+01-0.635D+00 0.257D+01
 Gap=     0.230 Goal=   None    Shift=    0.500
 Gap=     0.259 Goal=   None    Shift=    0.500
 RMSDP=4.87D-06 MaxDP=1.26D-04 DE=-7.87D-08 OVMax= 2.92D-04

 Cycle  27  Pass 1  IDiag  1:
 E= -193.312246954786     Delta-E=       -0.000000033750 Rises=F Damp=F
 DIIS: error= 2.38D-05 at cycle  27 NSaved=  16.
 NSaved=16 IEnMin=16 EnMin= -193.312246954786     IErMin=16 ErrMin= 2.38D-05
 ErrMax= 2.38D-05  0.00D+00 EMaxC= 1.00D+00 BMatC= 1.08D-08 BMatP= 2.42D-08
 IDIUse=1 WtCom= 1.00D+00 WtEn= 0.00D+00
 Coeff-Com: -0.620D-02 0.200D-01-0.277D-01 0.162D-01 0.167D-02 0.146D-01
 Coeff-Com: -0.592D-01 0.175D-01 0.717D-01 0.256D-02-0.161D+00 0.138D+00
 Coeff-Com:  0.756D-01 0.666D-01-0.212D+01 0.295D+01
 Coeff:     -0.620D-02 0.200D-01-0.277D-01 0.162D-01 0.167D-02 0.146D-01
 Coeff:     -0.592D-01 0.175D-01 0.717D-01 0.256D-02-0.161D+00 0.138D+00
 Coeff:      0.756D-01 0.666D-01-0.212D+01 0.295D+01
 Gap=     0.230 Goal=   None    Shift=    0.500
 Gap=     0.259 Goal=   None    Shift=    0.500
 RMSDP=3.15D-06 MaxDP=8.11D-05 DE=-3.38D-08 OVMax= 1.93D-04

 Cycle  28  Pass 1  IDiag  1:
 E= -193.312246969149     Delta-E=       -0.000000014363 Rises=F Damp=F
 DIIS: error= 1.58D-05 at cycle  28 NSaved=  17.
 NSaved=17 IEnMin=17 EnMin= -193.312246969149     IErMin=17 ErrMin= 1.58D-05
 ErrMax= 1.58D-05  0.00D+00 EMaxC= 1.00D+00 BMatC= 4.66D-09 BMatP= 1.08D-08
 IDIUse=1 WtCom= 1.00D+00 WtEn= 0.00D+00
 Coeff-Com: -0.318D-01 0.417D-01 0.185D-01-0.249D-01-0.361D-01 0.459D-01
 Coeff-Com: -0.825D-02 0.107D-02 0.193D-02-0.914D-01 0.255D+00-0.397D+00
 Coeff-Com:  0.153D+00 0.332D+00 0.168D+00-0.264D+01 0.321D+01
 Coeff:     -0.318D-01 0.417D-01 0.185D-01-0.249D-01-0.361D-01 0.459D-01
 Coeff:     -0.825D-02 0.107D-02 0.193D-02-0.914D-01 0.255D+00-0.397D+00
 Coeff:      0.153D+00 0.332D+00 0.168D+00-0.264D+01 0.321D+01
 Gap=     0.230 Goal=   None    Shift=    0.500
 Gap=     0.259 Goal=   None    Shift=    0.500
 RMSDP=1.97D-06 MaxDP=5.17D-05 DE=-1.44D-08 OVMax= 1.23D-04

 Cycle  29  Pass 1  IDiag  1:
 E= -193.312246975066     Delta-E=       -0.000000005916 Rises=F Damp=F
 DIIS: error= 1.03D-05 at cycle  29 NSaved=  18.
 NSaved=18 IEnMin=18 EnMin= -193.312246975066     IErMin=18 ErrMin= 1.03D-05
 ErrMax= 1.03D-05  0.00D+00 EMaxC= 1.00D+00 BMatC= 1.93D-09 BMatP= 4.66D-09
 IDIUse=1 WtCom= 1.00D+00 WtEn= 0.00D+00
 Coeff-Com: -0.185D-02 0.476D-02-0.344D-02-0.166D-02 0.646D-02-0.360D-02
 Coeff-Com: -0.113D-01 0.424D-02 0.143D-01 0.304D-01-0.149D+00 0.298D+00
 Coeff-Com: -0.241D+00-0.125D+00-0.769D-01 0.192D+01-0.492D+01 0.426D+01
 Coeff:     -0.185D-02 0.476D-02-0.344D-02-0.166D-02 0.646D-02-0.360D-02
 Coeff:     -0.113D-01 0.424D-02 0.143D-01 0.304D-01-0.149D+00 0.298D+00
 Coeff:     -0.241D+00-0.125D+00-0.769D-01 0.192D+01-0.492D+01 0.426D+01
 Gap=     0.230 Goal=   None    Shift=    0.500
 Gap=     0.259 Goal=   None    Shift=    0.500
 RMSDP=1.35D-06 MaxDP=3.56D-05 DE=-5.92D-09 OVMax= 8.54D-05

 Cycle  30  Pass 1  IDiag  1:
 E= -193.312246977556     Delta-E=       -0.000000002490 Rises=F Damp=F
 DIIS: error= 6.46D-06 at cycle  30 NSaved=  19.
 NSaved=19 IEnMin=19 EnMin= -193.312246977556     IErMin=19 ErrMin= 6.46D-06
 ErrMax= 6.46D-06  0.00D+00 EMaxC= 1.00D+00 BMatC= 8.05D-10 BMatP= 1.93D-09
 IDIUse=1 WtCom= 1.00D+00 WtEn= 0.00D+00
 Coeff-Com: -0.124D-01 0.174D-01 0.404D-02-0.733D-02-0.112D-01 0.118D-01
 Coeff-Com: -0.329D-03 0.173D-02 0.278D-03-0.323D-01 0.957D-01-0.176D+00
 Coeff-Com:  0.113D+00 0.149D+00-0.238D+00-0.764D+00 0.286D+01-0.479D+01
 Coeff-Com:  0.378D+01
 Coeff:     -0.124D-01 0.174D-01 0.404D-02-0.733D-02-0.112D-01 0.118D-01
 Coeff:     -0.329D-03 0.173D-02 0.278D-03-0.323D-01 0.957D-01-0.176D+00
 Coeff:      0.113D+00 0.149D+00-0.238D+00-0.764D+00 0.286D+01-0.479D+01
 Coeff:      0.378D+01
 Gap=     0.230 Goal=   None    Shift=    0.500
 Gap=     0.259 Goal=   None    Shift=    0.500
 RMSDP=6.58D-07 MaxDP=1.88D-05 DE=-2.49D-09 OVMax= 4.19D-05

 SCF Done:  E(ULC-wHPBE) =  -193.312246978     A.U. after   30 cycles
            NFock= 30  Conv=0.66D-06     -V/T= 2.0082
 <Sx>= 0.0000 <Sy>= 0.0000 <Sz>= 0.5000 <S**2>= 0.9220 S= 0.5826
 <L.S>= 0.000000000000E+00
 KE= 1.917392149006D+02 PE=-7.299880589402D+02 EE= 1.999146972689D+02
 Annihilation of the first spin contaminant:
 S**2 before annihilation     0.9220,   after     0.7712
 Leave Link  502 at Tue Feb 25 12:20:16 2020, MaxMem=  6710886400 cpu:              40.0 elap:               2.6
 (Enter /opt/ohpc/pub/libs/gaussian/g16-A.03/haswell/g16/l508.exe)
 QCSCF skips out because SCF is already converged.
 Leave Link  508 at Tue Feb 25 12:20:16 2020, MaxMem=  6710886400 cpu:               0.0 elap:               0.0
 (Enter /opt/ohpc/pub/libs/gaussian/g16-A.03/haswell/g16/l601.exe)
 Copying SCF densities to generalized density rwf, IOpCl= 1 IROHF=0.

 **********************************************************************

            Population analysis using the SCF density.

 **********************************************************************

 Orbital symmetries:
 Alpha Orbitals:
       Occupied  (B2) (A1) (B2) (A1) (A1) (A1) (B2) (A1) (B2) (A1)
                 (A1) (B2) (B2) (A1) (B1) (A1) (A2) (B1)
       Virtual   (B2) (A1) (A2) (B1) (A1) (B2) (A1) (B2) (A1) (A1)
                 (B2) (A1) (B2) (B1) (B2) (B1) (A1) (A2) (A1) (B2)
                 (A1) (A2) (A1) (B1) (B2) (A1) (B2) (A1) (B2) (A1)
                 (A1) (A1) (B2) (A1) (B2) (B2) (A1) (A1) (B2)
 Beta  Orbitals:
       Occupied  (B2) (A1) (B2) (A1) (A1) (A1) (B2) (A1) (B2) (A1)
                 (A1) (B2) (B2) (A1) (A1) (B1) (A2)
       Virtual   (A1) (B2) (B1) (A2) (B1) (A1) (B2) (A1) (B2) (A1)
                 (A1) (B2) (A1) (B2) (B1) (B2) (A1) (A2) (B1) (A1)
                 (B2) (A1) (A2) (A1) (B2) (B1) (A1) (B2) (A1) (B2)
                 (A1) (A1) (A1) (B2) (A1) (B2) (B2) (A1) (A1) (B2)
 The electronic state is 2-B1.
 Alpha  occ. eigenvalues --  -10.35442 -10.35441 -10.27852 -10.27852 -10.27089
 Alpha  occ. eigenvalues --   -1.14071  -1.05360  -0.98931  -0.88486  -0.81692
 Alpha  occ. eigenvalues --   -0.81034  -0.73996  -0.69460  -0.67202  -0.66765
 Alpha  occ. eigenvalues --   -0.63680  -0.57542  -0.50531
 Alpha virt. eigenvalues --   -0.27482  -0.26029  -0.14522  -0.03901  -0.00172
 Alpha virt. eigenvalues --    0.03772   0.07184   0.08602   0.09956   0.18004
 Alpha virt. eigenvalues --    0.19311   0.27287   0.28798   0.37398   0.39879
 Alpha virt. eigenvalues --    0.47238   0.47307   0.47541   0.49806   0.51029
 Alpha virt. eigenvalues --    0.52980   0.54550   0.55586   0.57319   0.57795
 Alpha virt. eigenvalues --    0.68651   0.72198   0.73896   0.77624   0.77667
 Alpha virt. eigenvalues --    0.83254   0.84906   0.86842   0.92913   0.99954
 Alpha virt. eigenvalues --    1.04620   1.09348   1.31968   1.32603
  Beta  occ. eigenvalues --  -10.34523 -10.34519 -10.28198 -10.28197 -10.26290
  Beta  occ. eigenvalues --   -1.13176  -1.04713  -0.96492  -0.87552  -0.81286
  Beta  occ. eigenvalues --   -0.80245  -0.73526  -0.69168  -0.66598  -0.64351
  Beta  occ. eigenvalues --   -0.63760  -0.55152
  Beta virt. eigenvalues --   -0.29301  -0.23699  -0.23599  -0.11684  -0.01426
  Beta virt. eigenvalues --    0.00091   0.04085   0.07684   0.08697   0.10394
  Beta virt. eigenvalues --    0.18616   0.19784   0.27801   0.29043   0.40115
  Beta virt. eigenvalues --    0.40423   0.47844   0.48986   0.49287   0.50438
  Beta virt. eigenvalues --    0.51569   0.53290   0.55212   0.57382   0.58593
  Beta virt. eigenvalues --    0.58633   0.65132   0.72638   0.73379   0.77718
  Beta virt. eigenvalues --    0.78561   0.83671   0.85127   0.87300   0.94217
  Beta virt. eigenvalues --    1.00186   1.05268   1.09926   1.32729   1.33845
          Condensed to atoms (all electrons):
               1          2          3          4          5          6
     1  C    5.178898   0.512184  -0.061421  -0.041821   0.138749   0.100241
     2  C    0.512184   4.948907   0.494653  -0.059421  -0.041821  -0.003212
     3  C   -0.061421   0.494653   4.845279   0.494653  -0.061421   0.000339
     4  C   -0.041821  -0.059421   0.494653   4.948907   0.512184  -0.003212
     5  C    0.138749  -0.041821  -0.061421   0.512184   5.178898   0.100241
     6  H    0.100241  -0.003212   0.000339  -0.003212   0.100241   0.533984
     7  H    0.348145  -0.028196   0.002592   0.000735  -0.002738  -0.004965
     8  H   -0.024637   0.354381  -0.010618   0.003337   0.000435   0.000106
     9  H    0.004345  -0.029087   0.368508  -0.029087   0.004345  -0.000002
    10  H    0.000435   0.003337  -0.010618   0.354381  -0.024637   0.000106
    11  H   -0.002738   0.000735   0.002592  -0.028196   0.348145  -0.004965
               7          8          9         10         11
     1  C    0.348145  -0.024637   0.004345   0.000435  -0.002738
     2  C   -0.028196   0.354381  -0.029087   0.003337   0.000735
     3  C    0.002592  -0.010618   0.368508  -0.010618   0.002592
     4  C    0.000735   0.003337  -0.029087   0.354381  -0.028196
     5  C   -0.002738   0.000435   0.004345  -0.024637   0.348145
     6  H   -0.004965   0.000106  -0.000002   0.000106  -0.004965
     7  H    0.403726   0.000579  -0.000090  -0.000007   0.000020
     8  H    0.000579   0.384890  -0.002761  -0.000058  -0.000007
     9  H   -0.000090  -0.002761   0.442904  -0.002761  -0.000090
    10  H   -0.000007  -0.000058  -0.002761   0.384890   0.000579
    11  H    0.000020  -0.000007  -0.000090   0.000579   0.403726
          Atomic-Atomic Spin Densities.
               1          2          3          4          5          6
     1  C    0.723310  -0.034538  -0.021397  -0.010389   0.050984  -0.012034
     2  C   -0.034538  -0.299227   0.012884   0.005597  -0.010389  -0.000512
     3  C   -0.021397   0.012884   0.648640   0.012884  -0.021397   0.000004
     4  C   -0.010389   0.005597   0.012884  -0.299227  -0.034538  -0.000512
     5  C    0.050984  -0.010389  -0.021397  -0.034538   0.723310  -0.012034
     6  H   -0.012034  -0.000512   0.000004  -0.000512  -0.012034  -0.274346
     7  H   -0.007353   0.001862  -0.000066   0.000034  -0.000212   0.002230
     8  H   -0.001859   0.004064  -0.001059  -0.000175   0.000193  -0.000013
     9  H   -0.000002   0.000062  -0.001301   0.000062  -0.000002   0.000000
    10  H    0.000193  -0.000175  -0.001059   0.004064  -0.001859  -0.000013
    11  H   -0.000212   0.000034  -0.000066   0.001862  -0.007353   0.002230
               7          8          9         10         11
     1  C   -0.007353  -0.001859  -0.000002   0.000193  -0.000212
     2  C    0.001862   0.004064   0.000062  -0.000175   0.000034
     3  C   -0.000066  -0.001059  -0.001301  -0.001059  -0.000066
     4  C    0.000034  -0.000175   0.000062   0.004064   0.001862
     5  C   -0.000212   0.000193  -0.000002  -0.001859  -0.007353
     6  H    0.002230  -0.000013   0.000000  -0.000013   0.002230
     7  H   -0.030796   0.000063   0.000005  -0.000000  -0.000006
     8  H    0.000063   0.014343   0.000047   0.000006  -0.000000
     9  H    0.000005   0.000047  -0.027455   0.000047   0.000005
    10  H   -0.000000   0.000006   0.000047   0.014343   0.000063
    11  H   -0.000006  -0.000000   0.000005   0.000063  -0.030796
 Mulliken charges and spin densities:
               1          2
     1  C   -0.152381   0.686704
     2  C   -0.152460  -0.320340
     3  C   -0.064538   0.628067
     4  C   -0.152460  -0.320340
     5  C   -0.152381   0.686704
     6  H    0.281338  -0.295001
     7  H    0.280199  -0.034240
     8  H    0.294353   0.015609
     9  H    0.243776  -0.028532
    10  H    0.294353   0.015609
    11  H    0.280199  -0.034240
 Sum of Mulliken charges =   1.00000   1.00000
 Mulliken charges and spin densities with hydrogens summed into heavy atoms:
               1          2
     1  C    0.409157   0.357463
     2  C    0.141893  -0.304731
     3  C    0.179239   0.599535
     4  C    0.141893  -0.304731
     5  C    0.127819   0.652464
 Electronic spatial extent (au):  <R**2>=            374.8611
 Charge=              1.0000 electrons
 Dipole moment (field-independent basis, Debye):
    X=             -0.0000    Y=             -0.0000    Z=             -2.7479  Tot=              2.7479
 Quadrupole moment (field-independent basis, Debye-Ang):
   XX=            -32.5398   YY=            -13.1679   ZZ=            -10.5071
   XY=              0.0000   XZ=              0.0000   YZ=             -0.0000
 Traceless Quadrupole moment (field-independent basis, Debye-Ang):
   XX=            -13.8015   YY=              5.5704   ZZ=              8.2311
   XY=              0.0000   XZ=              0.0000   YZ=             -0.0000
 Octapole moment (field-independent basis, Debye-Ang**2):
  XXX=              0.0000  YYY=              0.0000  ZZZ=            -22.3290  XYY=             -0.0000
  XXY=              0.0000  XXZ=              1.6036  XZZ=              0.0000  YZZ=              0.0000
  YYZ=             -3.2411  XYZ=             -0.0000
 Hexadecapole moment (field-independent basis, Debye-Ang**3):
 XXXX=            -33.2183 YYYY=           -180.3691 ZZZZ=            -97.5831 XXXY=             -0.0000
 XXXZ=             -0.0000 YYYX=             -0.0000 YYYZ=              0.0000 ZZZX=             -0.0000
 ZZZY=              0.0000 XXYY=            -55.3482 XXZZ=            -44.3922 YYZZ=            -50.9197
 XXYZ=             -0.0000 YYXZ=              0.0000 ZZXY=             -0.0000
 N-N= 1.450218997931D+02 E-N=-7.299880070822D+02  KE= 1.917392149006D+02
 Symmetry A1   KE= 1.107568419790D+02
 Symmetry A2   KE= 2.409436497095D+00
 Symmetry B1   KE= 3.299530594352D+00
 Symmetry B2   KE= 7.527340583021D+01
 Symmetry A1   SP=-2.309739582316D-14
 Symmetry A2   SP= 3.333626600367D-15
 Symmetry B1   SP= 1.000000000000D+00
 Symmetry B2   SP=-5.704166466839D-15
                          Isotropic Fermi Contact Couplings
        Atom                 a.u.       MegaHertz       Gauss      10(-4) cm-1
     1  C(13)              0.12367     139.03423      49.61087      46.37683
     2  C(13)             -0.05105     -57.39533     -20.48008     -19.14502
     3  C(13)              0.09424     105.94660      37.80438      35.33998
     4  C(13)             -0.05105     -57.39533     -20.48008     -19.14502
     5  C(13)              0.12367     139.03423      49.61087      46.37683
     6  H(1)              -0.09957    -445.06954    -158.81188    -148.45922
     7  H(1)              -0.01268     -56.69515     -20.23024     -18.91147
     8  H(1)               0.00645      28.81968      10.28358       9.61321
     9  H(1)              -0.01028     -45.94341     -16.39375     -15.32507
    10  H(1)               0.00645      28.81968      10.28358       9.61321
    11  H(1)              -0.01268     -56.69515     -20.23024     -18.91147
 --------------------------------------------------------
       Center         ----  Spin Dipole Couplings  ----
                      3XX-RR        3YY-RR        3ZZ-RR
 --------------------------------------------------------
     1   Atom        0.503012     -0.211842     -0.291169
     2   Atom       -0.251104      0.099197      0.151908
     3   Atom        0.599025     -0.321156     -0.277869
     4   Atom       -0.251104      0.099197      0.151908
     5   Atom        0.503012     -0.211842     -0.291169
     6   Atom       -0.014942     -0.005316      0.020258
     7   Atom       -0.011888      0.033012     -0.021124
     8   Atom       -0.007943      0.000629      0.007314
     9   Atom       -0.006039     -0.039749      0.045788
    10   Atom       -0.007943      0.000629      0.007314
    11   Atom       -0.011888      0.033012     -0.021124
 --------------------------------------------------------
                        XY            XZ            YZ
 --------------------------------------------------------
     1   Atom        0.000000      0.000000      0.081504
     2   Atom       -0.000000      0.000000     -0.000812
     3   Atom       -0.000000      0.000000     -0.000000
     4   Atom       -0.000000     -0.000000      0.000812
     5   Atom        0.000000      0.000000     -0.081504
     6   Atom        0.000000     -0.000000     -0.000000
     7   Atom        0.000000      0.000000     -0.040272
     8   Atom        0.000000      0.000000     -0.008384
     9   Atom       -0.000000     -0.000000     -0.000000
    10   Atom        0.000000     -0.000000      0.008384
    11   Atom       -0.000000      0.000000      0.040272
 --------------------------------------------------------


 ---------------------------------------------------------------------------------
              Anisotropic Spin Dipole Couplings in Principal Axis System
 ---------------------------------------------------------------------------------

       Atom             a.u.   MegaHertz   Gauss  10(-4) cm-1        Axes

              Baa    -0.3421   -45.913   -16.383   -15.315 -0.0000 -0.5303  0.8478
     1 C(13)  Bbb    -0.1609   -21.586    -7.703    -7.200  0.0000  0.8478  0.5303
              Bcc     0.5030    67.499    24.085    22.515  1.0000 -0.0000  0.0000
 
              Baa    -0.2511   -33.696   -12.024   -11.240  1.0000  0.0000 -0.0000
     2 C(13)  Bbb     0.0992    13.310     4.749     4.440 -0.0000  0.9999  0.0154
              Bcc     0.1519    20.386     7.274     6.800  0.0000 -0.0154  0.9999
 
              Baa    -0.3212   -43.096   -15.378   -14.375 -0.0000  1.0000  0.0000
     3 C(13)  Bbb    -0.2779   -37.287   -13.305   -12.438  0.0000  0.0000  1.0000
              Bcc     0.5990    80.383    28.683    26.813  1.0000 -0.0000  0.0000
 
              Baa    -0.2511   -33.696   -12.024   -11.240  1.0000  0.0000  0.0000
     4 C(13)  Bbb     0.0992    13.310     4.749     4.440 -0.0000  0.9999 -0.0154
              Bcc     0.1519    20.386     7.274     6.800 -0.0000  0.0154  0.9999
 
              Baa    -0.3421   -45.913   -16.383   -15.315 -0.0000  0.5303  0.8478
     5 C(13)  Bbb    -0.1609   -21.586    -7.703    -7.200 -0.0000  0.8478 -0.5303
              Bcc     0.5030    67.499    24.085    22.515  1.0000  0.0000  0.0000
 
              Baa    -0.0149    -7.972    -2.845    -2.659  1.0000  0.0000  0.0000
     6 H(1)   Bbb    -0.0053    -2.836    -1.012    -0.946 -0.0000  1.0000  0.0000
              Bcc     0.0203    10.809     3.857     3.605 -0.0000 -0.0000  1.0000
 
              Baa    -0.0426   -22.718    -8.106    -7.578 -0.0000  0.4702  0.8826
     7 H(1)   Bbb    -0.0119    -6.343    -2.263    -2.116  1.0000  0.0000  0.0000
              Bcc     0.0545    29.061    10.370     9.694 -0.0000  0.8826 -0.4702
 
              Baa    -0.0079    -4.238    -1.512    -1.414  1.0000  0.0000  0.0000
     8 H(1)   Bbb    -0.0051    -2.697    -0.962    -0.899 -0.0000  0.8277  0.5611
              Bcc     0.0130     6.934     2.474     2.313  0.0000 -0.5611  0.8277
 
              Baa    -0.0397   -21.208    -7.568    -7.074  0.0000  1.0000 -0.0000
     9 H(1)   Bbb    -0.0060    -3.222    -1.150    -1.075  1.0000 -0.0000 -0.0000
              Bcc     0.0458    24.430     8.717     8.149  0.0000  0.0000  1.0000
 
              Baa    -0.0079    -4.238    -1.512    -1.414  1.0000 -0.0000  0.0000
    10 H(1)   Bbb    -0.0051    -2.697    -0.962    -0.899  0.0000  0.8277 -0.5611
              Bcc     0.0130     6.934     2.474     2.313  0.0000  0.5611  0.8277
 
              Baa    -0.0426   -22.718    -8.106    -7.578 -0.0000 -0.4702  0.8826
    11 H(1)   Bbb    -0.0119    -6.343    -2.263    -2.116  1.0000 -0.0000  0.0000
              Bcc     0.0545    29.061    10.370     9.694  0.0000  0.8826  0.4702
 

 ---------------------------------------------------------------------------------

 No NMR shielding tensors so no spin-rotation constants.
 Leave Link  601 at Tue Feb 25 12:20:16 2020, MaxMem=  6710886400 cpu:               5.1 elap:               0.3
 (Enter /opt/ohpc/pub/libs/gaussian/g16-A.03/haswell/g16/l9999.exe)

 Test job not archived.
 1\1\GINC-HASWELL008\SP\ULC-wHPBE\6-31G\C5H6(1+,2)\SMGO234\25-Feb-2020\
 0\\#P uLC-wHPBE/6-31G iop(3/107=0271100000, 3/108=0271100000) scf=(con
 ver=6,fermi,ndamp=35,noincfock,novaracc,vshift=500,xqc)\\H6 C5\\1,2\C,
 0,-1.206512,0.69658,0.\C,0,-1.206512,-0.69658,0.\C,0,0.,-1.39316,0.\C,
 0,1.206512,-0.69658,0.\C,0,1.206512,0.69658,0.\H,0,0.,2.482681,0.\H,0,
 -2.150065,1.24134,0.\H,0,-2.150065,-1.24134,0.\H,0,0.,-2.482681,0.\H,0
 ,2.150065,-1.24134,0.\H,0,2.150065,1.24134,0.\\Version=ES64L-G16RevA.0
 3\State=2-B1\HF=-193.312247\S2=0.922044\S2-1=0.\S2A=0.771177\RMSD=6.58
 3e-07\Dipole=0.,1.0811261,0.\Quadrupole=4.1414499,6.1196569,-10.261106
 7,0.,0.,0.\PG=C02V [C2(H1C1H1),SGV(C4H4)]\\@


 The cat could very well be man's best friend
 but would never stoop to admitting it.
                               -- Doug Larson
 Job cpu time:       0 days  0 hours  1 minutes  6.1 seconds.
 Elapsed time:       0 days  0 hours  0 minutes  4.5 seconds.
 File lengths (MBytes):  RWF=    272 Int=      0 D2E=      0 Chk=     32 Scr=     32
 Normal termination of Gaussian 16 at Tue Feb 25 12:20:16 2020.
