 Entering Gaussian System, Link 0=g16
 Input=1b_tune_c5.gjf
 Output=1b_tune_c5.log
 Initial command:
 /opt/ohpc/pub/libs/gaussian/g16-A.03/sandybridge/g16/l1.exe "/pscratch/cmri235_uksr/ocelot/fw/dev/ocelot_api/tests/wtuning_test/1b/tuning_1b_ocycle0/Gau-60798.inp" -scrdir="/pscratch/cmri235_uksr/ocelot/fw/dev/ocelot_api/tests/wtuning_test/1b/tuning_1b_ocycle0/"
 Entering Link 1 = /opt/ohpc/pub/libs/gaussian/g16-A.03/sandybridge/g16/l1.exe PID=     60799.
  
 Copyright (c) 1988,1990,1992,1993,1995,1998,2003,2009,2016,
            Gaussian, Inc.  All Rights Reserved.
  
 This is part of the Gaussian(R) 16 program.  It is based on
 the Gaussian(R) 09 system (copyright 2009, Gaussian, Inc.),
 the Gaussian(R) 03 system (copyright 2003, Gaussian, Inc.),
 the Gaussian(R) 98 system (copyright 1998, Gaussian, Inc.),
 the Gaussian(R) 94 system (copyright 1995, Gaussian, Inc.),
 the Gaussian 92(TM) system (copyright 1992, Gaussian, Inc.),
 the Gaussian 90(TM) system (copyright 1990, Gaussian, Inc.),
 the Gaussian 88(TM) system (copyright 1988, Gaussian, Inc.),
 the Gaussian 86(TM) system (copyright 1986, Carnegie Mellon
 University), and the Gaussian 82(TM) system (copyright 1983,
 Carnegie Mellon University). Gaussian is a federally registered
 trademark of Gaussian, Inc.
  
 This software contains proprietary and confidential information,
 including trade secrets, belonging to Gaussian, Inc.
  
 This software is provided under written license and may be
 used, copied, transmitted, or stored only in accord with that
 written license.
  
 The following legend is applicable only to US Government
 contracts under FAR:
  
                    RESTRICTED RIGHTS LEGEND
  
 Use, reproduction and disclosure by the US Government is
 subject to restrictions as set forth in subparagraphs (a)
 and (c) of the Commercial Computer Software - Restricted
 Rights clause in FAR 52.227-19.
  
 Gaussian, Inc.
 340 Quinnipiac St., Bldg. 40, Wallingford CT 06492
  
  
 ---------------------------------------------------------------
 Warning -- This program may not be used in any manner that
 competes with the business of Gaussian, Inc. or will provide
 assistance to any competitor of Gaussian, Inc.  The licensee
 of this program is prohibited from giving any competitor of
 Gaussian, Inc. access to this program.  By using this program,
 the user acknowledges that Gaussian, Inc. is engaged in the
 business of creating and licensing software in the field of
 computational chemistry and represents and warrants to the
 licensee that it is not a competitor of Gaussian, Inc. and that
 it will not use this program in any manner prohibited above.
 ---------------------------------------------------------------
  

 Cite this work as:
 Gaussian 16, Revision A.03,
 M. J. Frisch, G. W. Trucks, H. B. Schlegel, G. E. Scuseria, 
 M. A. Robb, J. R. Cheeseman, G. Scalmani, V. Barone, 
 G. A. Petersson, H. Nakatsuji, X. Li, M. Caricato, A. V. Marenich, 
 J. Bloino, B. G. Janesko, R. Gomperts, B. Mennucci, H. P. Hratchian, 
 J. V. Ortiz, A. F. Izmaylov, J. L. Sonnenberg, D. Williams-Young, 
 F. Ding, F. Lipparini, F. Egidi, J. Goings, B. Peng, A. Petrone, 
 T. Henderson, D. Ranasinghe, V. G. Zakrzewski, J. Gao, N. Rega, 
 G. Zheng, W. Liang, M. Hada, M. Ehara, K. Toyota, R. Fukuda, 
 J. Hasegawa, M. Ishida, T. Nakajima, Y. Honda, O. Kitao, H. Nakai, 
 T. Vreven, K. Throssell, J. A. Montgomery, Jr., J. E. Peralta, 
 F. Ogliaro, M. J. Bearpark, J. J. Heyd, E. N. Brothers, K. N. Kudin, 
 V. N. Staroverov, T. A. Keith, R. Kobayashi, J. Normand, 
 K. Raghavachari, A. P. Rendell, J. C. Burant, S. S. Iyengar, 
 J. Tomasi, M. Cossi, J. M. Millam, M. Klene, C. Adamo, R. Cammi, 
 J. W. Ochterski, R. L. Martin, K. Morokuma, O. Farkas, 
 J. B. Foresman, and D. J. Fox, Gaussian, Inc., Wallingford CT, 2016.
 
 ******************************************
 Gaussian 16:  EM64L-G16RevA.03 25-Dec-2016
                16-Mar-2020 
 ******************************************
 %mem=50GB
 %nproc=16
 Will use up to   16 processors via shared memory.
 ----------------------------------------------------------------------
 #P uLC-wHPBE/6-31G iop(3/107=0311800000, 3/108=0311800000) scf=(conver
 =6,fermi,ndamp=35,noincfock,novaracc,vshift=500,xqc)
 ----------------------------------------------------------------------
 1/38=1,172=1/1;
 2/12=2,17=6,18=5,40=1/2;
 3/5=1,6=6,11=2,25=1,30=1,74=-71,107=311800000,108=311800000,116=2/1,2,3;
 4//1;
 5/5=100002,6=6,8=3,10=500,13=1,18=-1,22=13,38=1,93=35/2,8;
 6/7=2,8=2,9=2,10=2,28=1/1;
 99/5=1,9=1/99;
 Leave Link    1 at Mon Mar 16 03:49:40 2020, MaxMem=  6710886400 cpu:              17.4 elap:               1.2
 (Enter /opt/ohpc/pub/libs/gaussian/g16-A.03/sandybridge/g16/l101.exe)
 -----
 H6 C6
 -----
 Symbolic Z-matrix:
 Charge =  1 Multiplicity = 2
 C                     0.        1.39316   0. 
 C                    -1.20651   0.69658   0. 
 C                    -1.20651  -0.69658   0. 
 C                     0.       -1.39316   0. 
 C                     1.20651  -0.69658   0. 
 C                     1.20651   0.69658   0. 
 H                     0.        2.48268   0. 
 H                    -2.15007   1.24134   0. 
 H                    -2.15007  -1.24134   0. 
 H                     0.       -2.48268   0. 
 H                     2.15007  -1.24134   0. 
 H                     2.15007   1.24134   0. 
 
 ITRead=  0  0  0  0  0  0  0  0  0  0  0  0
 MicOpt= -1 -1 -1 -1 -1 -1 -1 -1 -1 -1 -1 -1
 NAtoms=     12 NQM=       12 NQMF=       0 NMMI=      0 NMMIF=      0
                NMic=       0 NMicF=      0.
                    Isotopes and Nuclear Properties:
 (Nuclear quadrupole moments (NQMom) in fm**2, nuclear magnetic moments (NMagM)
  in nuclear magnetons)

  Atom         1           2           3           4           5           6           7           8           9          10
 IAtWgt=          12          12          12          12          12          12           1           1           1           1
 AtmWgt=  12.0000000  12.0000000  12.0000000  12.0000000  12.0000000  12.0000000   1.0078250   1.0078250   1.0078250   1.0078250
 NucSpn=           0           0           0           0           0           0           1           1           1           1
 AtZEff=  -0.0000000  -0.0000000  -0.0000000  -0.0000000  -0.0000000  -0.0000000  -0.0000000  -0.0000000  -0.0000000  -0.0000000
 NQMom=    0.0000000   0.0000000   0.0000000   0.0000000   0.0000000   0.0000000   0.0000000   0.0000000   0.0000000   0.0000000
 NMagM=    0.0000000   0.0000000   0.0000000   0.0000000   0.0000000   0.0000000   2.7928460   2.7928460   2.7928460   2.7928460
 AtZNuc=   6.0000000   6.0000000   6.0000000   6.0000000   6.0000000   6.0000000   1.0000000   1.0000000   1.0000000   1.0000000

  Atom        11          12
 IAtWgt=           1           1
 AtmWgt=   1.0078250   1.0078250
 NucSpn=           1           1
 AtZEff=  -0.0000000  -0.0000000
 NQMom=    0.0000000   0.0000000
 NMagM=    2.7928460   2.7928460
 AtZNuc=   1.0000000   1.0000000
 Leave Link  101 at Mon Mar 16 03:49:41 2020, MaxMem=  6710886400 cpu:               2.7 elap:               0.2
 (Enter /opt/ohpc/pub/libs/gaussian/g16-A.03/sandybridge/g16/l202.exe)
                          Input orientation:                          
 ---------------------------------------------------------------------
 Center     Atomic      Atomic             Coordinates (Angstroms)
 Number     Number       Type             X           Y           Z
 ---------------------------------------------------------------------
      1          6           0        0.000000    1.393160    0.000000
      2          6           0       -1.206512    0.696580    0.000000
      3          6           0       -1.206512   -0.696580    0.000000
      4          6           0        0.000000   -1.393160    0.000000
      5          6           0        1.206512   -0.696580    0.000000
      6          6           0        1.206512    0.696580    0.000000
      7          1           0        0.000000    2.482681    0.000000
      8          1           0       -2.150065    1.241340    0.000000
      9          1           0       -2.150065   -1.241340    0.000000
     10          1           0        0.000000   -2.482681    0.000000
     11          1           0        2.150065   -1.241340    0.000000
     12          1           0        2.150065    1.241340    0.000000
 ---------------------------------------------------------------------
                    Distance matrix (angstroms):
                    1          2          3          4          5
     1  C    0.000000
     2  C    1.393160   0.000000
     3  C    2.413024   1.393160   0.000000
     4  C    2.786320   2.413024   1.393160   0.000000
     5  C    2.413024   2.786320   2.413024   1.393160   0.000000
     6  C    1.393160   2.413024   2.786320   2.413024   1.393160
     7  H    1.089521   2.155418   3.400496   3.875841   3.400496
     8  H    2.155418   1.089521   2.155418   3.400496   3.875841
     9  H    3.400496   2.155418   1.089521   2.155418   3.400496
    10  H    3.875841   3.400496   2.155418   1.089521   2.155418
    11  H    3.400496   3.875841   3.400496   2.155418   1.089521
    12  H    2.155418   3.400496   3.875841   3.400496   2.155418
                    6          7          8          9         10
     6  C    0.000000
     7  H    2.155418   0.000000
     8  H    3.400496   2.482681   0.000000
     9  H    3.875841   4.300129   2.482680   0.000000
    10  H    3.400496   4.965362   4.300129   2.482681   0.000000
    11  H    2.155418   4.300129   4.965362   4.300130   2.482681
    12  H    1.089521   2.482681   4.300130   4.965362   4.300129
                   11         12
    11  H    0.000000
    12  H    2.482680   0.000000
 Stoichiometry    C6H6(1+,2)
 Framework group  D6H[3C2'(HC.CH)]
 Deg. of freedom     2
 Full point group                 D6H     NOp  24
 Largest Abelian subgroup         D2H     NOp   8
 Largest concise Abelian subgroup D2      NOp   4
                         Standard orientation:                         
 ---------------------------------------------------------------------
 Center     Atomic      Atomic             Coordinates (Angstroms)
 Number     Number       Type             X           Y           Z
 ---------------------------------------------------------------------
      1          6           0       -0.000000    1.393160   -0.000000
      2          6           0       -1.206512    0.696580   -0.000000
      3          6           0       -1.206512   -0.696580   -0.000000
      4          6           0       -0.000000   -1.393160   -0.000000
      5          6           0        1.206512   -0.696580   -0.000000
      6          6           0        1.206512    0.696580   -0.000000
      7          1           0        0.000000    2.482681   -0.000000
      8          1           0       -2.150065    1.241341   -0.000000
      9          1           0       -2.150065   -1.241340   -0.000000
     10          1           0       -0.000000   -2.482681   -0.000000
     11          1           0        2.150065   -1.241341   -0.000000
     12          1           0        2.150065    1.241340   -0.000000
 ---------------------------------------------------------------------
 Rotational constants (GHZ):           5.7099798           5.7099798           2.8549899
 Leave Link  202 at Mon Mar 16 03:49:41 2020, MaxMem=  6710886400 cpu:               0.9 elap:               0.1
 (Enter /opt/ohpc/pub/libs/gaussian/g16-A.03/sandybridge/g16/l301.exe)
 Standard basis: 6-31G (6D, 7F)
 Ernie: Thresh=  0.10000D-02 Tol=  0.10000D-05 Strict=F.
 There are    16 symmetry adapted cartesian basis functions of AG  symmetry.
 There are    11 symmetry adapted cartesian basis functions of B1G symmetry.
 There are     2 symmetry adapted cartesian basis functions of B2G symmetry.
 There are     4 symmetry adapted cartesian basis functions of B3G symmetry.
 There are     2 symmetry adapted cartesian basis functions of AU  symmetry.
 There are     4 symmetry adapted cartesian basis functions of B1U symmetry.
 There are    16 symmetry adapted cartesian basis functions of B2U symmetry.
 There are    11 symmetry adapted cartesian basis functions of B3U symmetry.
 There are    16 symmetry adapted basis functions of AG  symmetry.
 There are    11 symmetry adapted basis functions of B1G symmetry.
 There are     2 symmetry adapted basis functions of B2G symmetry.
 There are     4 symmetry adapted basis functions of B3G symmetry.
 There are     2 symmetry adapted basis functions of AU  symmetry.
 There are     4 symmetry adapted basis functions of B1U symmetry.
 There are    16 symmetry adapted basis functions of B2U symmetry.
 There are    11 symmetry adapted basis functions of B3U symmetry.
    66 basis functions,   156 primitive gaussians,    66 cartesian basis functions
    21 alpha electrons       20 beta electrons
       nuclear repulsion energy       203.5439980921 Hartrees.
 IExCor=33909 DFT=T Ex+Corr=LC-wHPBE ExCW=0 ScaHFX=  1.000000
 ScaDFX=  1.000000  1.000000  1.000000  1.000000 ScalE2=  1.000000  1.000000
 IRadAn=      5 IRanWt=     -1 IRanGd=            0 ICorTp=0 IEmpDi=  4
 HFx  wShort=  0.000000 wLong=  0.311800 cFull=  0.000000 cShort=  0.000000 cLong=  1.000000
 DFx  wShort=  0.000000 wLong=  0.311800 cFull=  0.000000 cShort=  1.000000 cLong=  0.000000
 NAtoms=   12 NActive=   12 NUniq=    2 SFac= 4.00D+00 NAtFMM=   60 NAOKFM=F Big=F
 Integral buffers will be    131072 words long.
 Raffenetti 2 integral format.
 Two-electron integral symmetry is turned on.
 Leave Link  301 at Mon Mar 16 03:49:41 2020, MaxMem=  6710886400 cpu:               0.9 elap:               0.2
 (Enter /opt/ohpc/pub/libs/gaussian/g16-A.03/sandybridge/g16/l302.exe)
 NPDir=0 NMtPBC=     1 NCelOv=     1 NCel=       1 NClECP=     1 NCelD=      1
         NCelK=      1 NCelE2=     1 NClLst=     1 CellRange=     0.0.
 One-electron integrals computed using PRISM.
 One-electron integral symmetry used in STVInt
 NBasis=    66 RedAO= T EigKep=  6.87D-04  NBF=    16    11     2     4     2     4    16    11
 NBsUse=    66 1.00D-06 EigRej= -1.00D+00 NBFU=    16    11     2     4     2     4    16    11
 Precomputing XC quadrature grid using
 IXCGrd= 4 IRadAn=           5 IRanWt=          -1 IRanGd=           0 AccXCQ= 0.00D+00.
 Generated NRdTot=       0 NPtTot=           0 NUsed=           0 NTot=          32
 NSgBfM=    66    66    66    66    66 MxSgAt=    12 MxSgA2=    12.
 Leave Link  302 at Mon Mar 16 03:49:41 2020, MaxMem=  6710886400 cpu:               2.2 elap:               0.2
 (Enter /opt/ohpc/pub/libs/gaussian/g16-A.03/sandybridge/g16/l303.exe)
 DipDrv:  MaxL=1.
 Leave Link  303 at Mon Mar 16 03:49:41 2020, MaxMem=  6710886400 cpu:               0.5 elap:               0.0
 (Enter /opt/ohpc/pub/libs/gaussian/g16-A.03/sandybridge/g16/l401.exe)
 ExpMin= 1.61D-01 ExpMax= 3.05D+03 ExpMxC= 4.57D+02 IAcc=3 IRadAn=         5 AccDes= 0.00D+00
 Harris functional with IExCor=33909 and IRadAn=       5 diagonalized for initial guess.
 HarFok:  IExCor=33909 AccDes= 0.00D+00 IRadAn=         5 IDoV= 1 UseB2=F ITyADJ=14
 ICtDFT=  3500011 ScaDFX=  1.000000  1.000000  1.000000  1.000000
 FoFCou: FMM=F IPFlag=           0 FMFlag=      100000 FMFlg1=           0
         NFxFlg=           0 DoJE=T BraDBF=F KetDBF=T FulRan=T
         wScrn=  0.000000 ICntrl=       500 IOpCl=  0 I1Cent=   200000004 NGrid=           0
         NMat0=    1 NMatS0=      1 NMatT0=    0 NMatD0=    1 NMtDS0=    0 NMtDT0=    0
 Petite list used in FoFCou.
 Harris En= -225.146113676906    
 JPrj=0 DoOrth=F DoCkMO=F.
 Initial guess orbital symmetries:
 Alpha Orbitals:
       Occupied  (A1G) (E1U) (E1U) (E2G) (E2G) (B1U) (A1G) (E1U)
                 (E1U) (E2G) (E2G) (A1G) (B2U) (B1U) (E1U) (E1U)
                 (A2U) (E2G) (E2G) (E1G) (E1G)
       Virtual   (E2U) (E2U) (A1G) (B2G) (E1U) (E1U) (E2G) (E2G)
                 (B1U) (E2G) (E2G) (E1U) (E1U) (B2U) (A2U) (B1U)
                 (A2G) (A1G) (E2G) (E2G) (E1G) (E1G) (A1G) (E1U)
                 (E1U) (E2U) (E2U) (B2G) (B1U) (E2G) (E2G) (E1U)
                 (E1U) (A2G) (A1G) (E1U) (E1U) (E2G) (E2G) (E1U)
                 (E1U) (B1U) (E2G) (E2G) (B1U)
 Beta  Orbitals:
       Occupied  (A1G) (E1U) (E1U) (E2G) (E2G) (B1U) (A1G) (E1U)
                 (E1U) (E2G) (E2G) (A1G) (B2U) (B1U) (E1U) (E1U)
                 (A2U) (E2G) (E2G) (E1G)
       Virtual   (E1G) (E2U) (E2U) (A1G) (B2G) (E1U) (E1U) (E2G)
                 (E2G) (B1U) (E2G) (E2G) (E1U) (E1U) (B2U) (A2U)
                 (B1U) (A2G) (A1G) (E2G) (E2G) (E1G) (E1G) (A1G)
                 (E1U) (E1U) (E2U) (E2U) (B2G) (B1U) (E2G) (E2G)
                 (E1U) (E1U) (A2G) (A1G) (E1U) (E1U) (E2G) (E2G)
                 (E1U) (E1U) (B1U) (E2G) (E2G) (B1U)
 Initial guess <Sx>= 0.0000 <Sy>= 0.0000 <Sz>= 0.5000 <S**2>= 0.7500 S= 0.5000
 Leave Link  401 at Mon Mar 16 03:49:41 2020, MaxMem=  6710886400 cpu:               2.8 elap:               0.2
 (Enter /opt/ohpc/pub/libs/gaussian/g16-A.03/sandybridge/g16/l502.exe)
 Keep R1 and R2 ints in memory in symmetry-blocked form, NReq=19109854.
 FoFCou: FMM=F IPFlag=           0 FMFlag=           0 FMFlg1=           0
         NFxFlg=           0 DoJE=F BraDBF=F KetDBF=F FulRan=T
         wScrn=  0.000000 ICntrl=       600 IOpCl=  0 I1Cent=           0 NGrid=           0
         NMat0=    1 NMatS0=   2211 NMatT0=    0 NMatD0=    1 NMtDS0=    0 NMtDT0=    0
 Petite list used in FoFCou.
 UHF open shell SCF:
 Using DIIS extrapolation, IDIIS=    10.
 NGot=  6710886400 LenX=  6710146038 LenY=  6710141241
 Requested convergence on RMS density matrix=1.00D-06 within  32 cycles.
 Requested convergence on MAX density matrix=1.00D-04.
 Requested convergence on             energy=1.00D-04.
 Virtual orbitals will be shifted by   0.500 hartree.
 No special actions if energy rises.
 Dynamic level shift is on during FON iterations.

 Cycle   1  Pass 1  IDiag  1:
 Density matrix breaks symmetry, PCut= 1.00D-04
 Density has only Abelian symmetry.
 E= -231.644207766576    
 DIIS: error= 1.70D-02 at cycle   1 NSaved=   1.
 NSaved= 1 IEnMin= 1 EnMin= -231.644207766576     IErMin= 1 ErrMin= 1.70D-02
 ErrMax= 1.70D-02  0.00D+00 EMaxC= 1.00D+00 BMatC= 7.28D-02 BMatP= 7.28D-02
 IDIUse=1 WtCom= 1.00D+00 WtEn= 0.00D+00
 Coeff-Com:  0.100D+01
 Coeff:      0.100D+01
 Gap=     0.385 Goal=   None    Shift=    0.500
 T= 1154. Gap= 0.886 NK=0 IS=   22 IE=   66 IFin=   21
          NO(<0.9)=   0  NV(>0.1)=   0     21.00e < EF      0.00e >EF  Err=0.0D+00
 Gap=     0.197 Goal=   None    Shift=    0.500
 T= 1154. Gap= 0.697 NK=0 IS=   21 IE=   66 IFin=   20
          NO(<0.9)=   0  NV(>0.1)=   0     20.00e < EF      0.00e >EF  Err=0.0D+00
 GapD=    0.197 DampG=1.000 DampE=0.500 DampFc=0.5000 IDamp=-1.
 Damping current iteration by 5.00D-01
 RMSDP=3.29D-03 MaxDP=2.94D-02              OVMax= 3.51D-02

 Cycle   2  Pass 1  IDiag  1:
 Density matrix breaks symmetry, PCut= 1.00D-04
 Density has only Abelian symmetry.
 E= -231.655876927355     Delta-E=       -0.011669160779 Rises=F Damp=T
 DIIS: error= 9.94D-03 at cycle   2 NSaved=   2.
 NSaved= 2 IEnMin= 2 EnMin= -231.655876927355     IErMin= 2 ErrMin= 9.94D-03
 ErrMax= 9.94D-03  0.00D+00 EMaxC= 1.00D+00 BMatC= 1.77D-02 BMatP= 7.28D-02
 IDIUse=1 WtCom= 1.00D+00 WtEn= 0.00D+00
 Coeff-Com: -0.827D+00 0.183D+01
 Coeff:     -0.827D+00 0.183D+01
 Gap=     0.404 Goal=   None    Shift=    0.500
 T= 1065. Gap= 0.904 NK=0 IS=   22 IE=   66 IFin=   21
          NO(<0.9)=   0  NV(>0.1)=   0     21.00e < EF      0.00e >EF  Err=0.0D+00
 Gap=     0.221 Goal=   None    Shift=    0.500
 T= 1065. Gap= 0.721 NK=0 IS=   21 IE=   66 IFin=   20
          NO(<0.9)=   0  NV(>0.1)=   0     20.00e < EF      0.00e >EF  Err=0.0D+00
 GapD=    0.221 DampG=1.000 DampE=1.000 DampFc=1.0000 IDamp=-1.
 RMSDP=2.35D-03 MaxDP=1.67D-02 DE=-1.17D-02 OVMax= 1.67D-02

 Cycle   3  Pass 1  IDiag  1:
 Density matrix breaks symmetry, PCut= 1.00D-04
 Density has only Abelian symmetry.
 E= -231.665503767511     Delta-E=       -0.009626840156 Rises=F Damp=F
 DIIS: error= 5.39D-03 at cycle   3 NSaved=   3.
 NSaved= 3 IEnMin= 3 EnMin= -231.665503767511     IErMin= 3 ErrMin= 5.39D-03
 ErrMax= 5.39D-03  0.00D+00 EMaxC= 1.00D+00 BMatC= 7.68D-04 BMatP= 1.77D-02
 IDIUse=1 WtCom= 1.00D+00 WtEn= 0.00D+00
 Coeff-Com:  0.150D+00-0.332D+00 0.118D+01
 Coeff:      0.150D+00-0.332D+00 0.118D+01
 Gap=     0.399 Goal=   None    Shift=    0.500
 T=  881. Gap= 0.899 NK=0 IS=   22 IE=   66 IFin=   21
          NO(<0.9)=   0  NV(>0.1)=   0     21.00e < EF      0.00e >EF  Err=0.0D+00
 Gap=     0.221 Goal=   None    Shift=    0.500
 T=  881. Gap= 0.721 NK=0 IS=   21 IE=   66 IFin=   20
          NO(<0.9)=   0  NV(>0.1)=   0     20.00e < EF      0.00e >EF  Err=0.0D+00
 GapD=    0.221 DampG=1.000 DampE=1.000 DampFc=1.0000 IDamp=-1.
 RMSDP=4.02D-04 MaxDP=3.47D-03 DE=-9.63D-03 OVMax= 1.11D-02

 Cycle   4  Pass 1  IDiag  1:
 Density matrix breaks symmetry, PCut= 1.00D-04
 Density has only Abelian symmetry.
 E= -231.666084031067     Delta-E=       -0.000580263557 Rises=F Damp=F
 DIIS: error= 4.26D-03 at cycle   4 NSaved=   4.
 NSaved= 4 IEnMin= 4 EnMin= -231.666084031067     IErMin= 4 ErrMin= 4.26D-03
 ErrMax= 4.26D-03  0.00D+00 EMaxC= 1.00D+00 BMatC= 3.71D-04 BMatP= 7.68D-04
 IDIUse=1 WtCom= 1.00D+00 WtEn= 0.00D+00
 Coeff-Com:  0.124D+00-0.279D+00-0.621D+00 0.178D+01
 Coeff:      0.124D+00-0.279D+00-0.621D+00 0.178D+01
 Gap=     0.397 Goal=   None    Shift=    0.500
 T=  581. Gap= 0.897 NK=0 IS=   22 IE=   66 IFin=   21
          NO(<0.9)=   0  NV(>0.1)=   0     21.00e < EF      0.00e >EF  Err=0.0D+00
 Gap=     0.226 Goal=   None    Shift=    0.500
 T=  581. Gap= 0.726 NK=0 IS=   21 IE=   66 IFin=   20
          NO(<0.9)=   0  NV(>0.1)=   0     20.00e < EF      0.00e >EF  Err=0.0D+00
 GapD=    0.226 DampG=1.000 DampE=1.000 DampFc=1.0000 IDamp=-1.
 RMSDP=2.84D-04 MaxDP=3.56D-03 DE=-5.80D-04 OVMax= 1.15D-02

 Cycle   5  Pass 1  IDiag  1:
 Density matrix breaks symmetry, PCut= 1.00D-04
 Density has only Abelian symmetry.
 E= -231.666465987186     Delta-E=       -0.000381956119 Rises=F Damp=F
 DIIS: error= 2.64D-03 at cycle   5 NSaved=   5.
 NSaved= 5 IEnMin= 5 EnMin= -231.666465987186     IErMin= 5 ErrMin= 2.64D-03
 ErrMax= 2.64D-03  0.00D+00 EMaxC= 1.00D+00 BMatC= 1.56D-04 BMatP= 3.71D-04
 IDIUse=1 WtCom= 1.00D+00 WtEn= 0.00D+00
 Coeff-Com: -0.127D+00 0.276D+00-0.519D+00-0.102D+01 0.239D+01
 Coeff:     -0.127D+00 0.276D+00-0.519D+00-0.102D+01 0.239D+01
 Gap=     0.394 Goal=   None    Shift=    0.500
 T=  301. Gap= 0.894 NK=0 IS=   22 IE=   66 IFin=   21
          NO(<0.9)=   0  NV(>0.1)=   0     21.00e < EF      0.00e >EF  Err=0.0D+00
 Gap=     0.228 Goal=   None    Shift=    0.500
 T=  301. Gap= 0.728 NK=0 IS=   21 IE=   66 IFin=   20
          NO(<0.9)=   0  NV(>0.1)=   0     20.00e < EF      0.00e >EF  Err=0.0D+00
 GapD=    0.228 DampG=1.000 DampE=1.000 DampFc=1.0000 IDamp=-1.
 RMSDP=2.33D-04 MaxDP=3.54D-03 DE=-3.82D-04 OVMax= 1.03D-02

 Cycle   6  Pass 1  IDiag  1:
 Density matrix breaks symmetry, PCut= 1.00D-04
 Density has only Abelian symmetry.
 E= -231.666685194398     Delta-E=       -0.000219207212 Rises=F Damp=F
 DIIS: error= 1.44D-03 at cycle   6 NSaved=   6.
 NSaved= 6 IEnMin= 6 EnMin= -231.666685194398     IErMin= 6 ErrMin= 1.44D-03
 ErrMax= 1.44D-03  0.00D+00 EMaxC= 1.00D+00 BMatC= 4.39D-05 BMatP= 1.56D-04
 IDIUse=1 WtCom= 1.00D+00 WtEn= 0.00D+00
 Coeff-Com:  0.189D-01-0.380D-01 0.179D+00-0.333D-01-0.139D+01 0.227D+01
 Coeff:      0.189D-01-0.380D-01 0.179D+00-0.333D-01-0.139D+01 0.227D+01
 Gap=     0.394 Goal=   None    Shift=    0.500
 T=   68. Gap= 0.894 NK=0 IS=   22 IE=   66 IFin=   21
          NO(<0.9)=   0  NV(>0.1)=   0     21.00e < EF      0.00e >EF  Err=0.0D+00
 Gap=     0.229 Goal=   None    Shift=    0.500
 T=   68. Gap= 0.729 NK=0 IS=   21 IE=   66 IFin=   20
          NO(<0.9)=   0  NV(>0.1)=   0     20.00e < EF      0.00e >EF  Err=0.0D+00
 GapD=    0.229 DampG=1.000 DampE=1.000 DampFc=1.0000 IDamp=-1.
 RMSDP=1.26D-04 MaxDP=2.15D-03 DE=-2.19D-04 OVMax= 5.86D-03

 Cycle   7  Pass 1  IDiag  1:
 Density matrix breaks symmetry, PCut= 1.00D-04
 Density has only Abelian symmetry.
 E= -231.666750430186     Delta-E=       -0.000065235788 Rises=F Damp=F
 DIIS: error= 7.47D-04 at cycle   7 NSaved=   7.
 NSaved= 7 IEnMin= 7 EnMin= -231.666750430186     IErMin= 7 ErrMin= 7.47D-04
 ErrMax= 7.47D-04  0.00D+00 EMaxC= 1.00D+00 BMatC= 1.22D-05 BMatP= 4.39D-05
 IDIUse=1 WtCom= 1.00D+00 WtEn= 0.00D+00
 Coeff-Com: -0.235D-01 0.484D-01-0.188D+00-0.482D-01 0.154D+01-0.397D+01
 Coeff-Com:  0.364D+01
 Coeff:     -0.235D-01 0.484D-01-0.188D+00-0.482D-01 0.154D+01-0.397D+01
 Coeff:      0.364D+01
 Gap=     0.393 Goal=   None    Shift=    0.500
 Gap=     0.229 Goal=   None    Shift=    0.500
 RMSDP=6.53D-05 MaxDP=1.12D-03 DE=-6.52D-05 OVMax= 3.14D-03

 Cycle   8  Pass 1  IDiag  1:
 Density matrix breaks symmetry, PCut= 1.00D-04
 Density has only Abelian symmetry.
 E= -231.666767888414     Delta-E=       -0.000017458228 Rises=F Damp=F
 DIIS: error= 3.80D-04 at cycle   8 NSaved=   8.
 NSaved= 8 IEnMin= 8 EnMin= -231.666767888414     IErMin= 8 ErrMin= 3.80D-04
 ErrMax= 3.80D-04  0.00D+00 EMaxC= 1.00D+00 BMatC= 3.09D-06 BMatP= 1.22D-05
 IDIUse=1 WtCom= 1.00D+00 WtEn= 0.00D+00
 Coeff-Com:  0.579D-02-0.105D-01 0.430D-01-0.228D-01-0.437D+00 0.162D+01
 Coeff-Com: -0.315D+01 0.295D+01
 Coeff:      0.579D-02-0.105D-01 0.430D-01-0.228D-01-0.437D+00 0.162D+01
 Coeff:     -0.315D+01 0.295D+01
 Gap=     0.393 Goal=   None    Shift=    0.500
 Gap=     0.229 Goal=   None    Shift=    0.500
 RMSDP=3.14D-05 MaxDP=5.03D-04 DE=-1.75D-05 OVMax= 1.60D-03

 Cycle   9  Pass 1  IDiag  1:
 Density matrix breaks symmetry, PCut= 1.00D-04
 Density has only Abelian symmetry.
 E= -231.666772079622     Delta-E=       -0.000004191208 Rises=F Damp=F
 DIIS: error= 1.87D-04 at cycle   9 NSaved=   9.
 NSaved= 9 IEnMin= 9 EnMin= -231.666772079622     IErMin= 9 ErrMin= 1.87D-04
 ErrMax= 1.87D-04  0.00D+00 EMaxC= 1.00D+00 BMatC= 7.01D-07 BMatP= 3.09D-06
 IDIUse=1 WtCom= 1.00D+00 WtEn= 0.00D+00
 Coeff-Com: -0.458D-02 0.878D-02-0.279D-01-0.282D-02 0.285D+00-0.997D+00
 Coeff-Com:  0.198D+01-0.322D+01 0.298D+01
 Coeff:     -0.458D-02 0.878D-02-0.279D-01-0.282D-02 0.285D+00-0.997D+00
 Coeff:      0.198D+01-0.322D+01 0.298D+01
 Gap=     0.393 Goal=   None    Shift=    0.500
 Gap=     0.229 Goal=   None    Shift=    0.500
 RMSDP=1.46D-05 MaxDP=2.35D-04 DE=-4.19D-06 OVMax= 7.78D-04

 Cycle  10  Pass 1  IDiag  1:
 Density matrix breaks symmetry, PCut= 1.00D-04
 Density has only Abelian symmetry.
 E= -231.666773023171     Delta-E=       -0.000000943549 Rises=F Damp=F
 DIIS: error= 9.22D-05 at cycle  10 NSaved=  10.
 NSaved=10 IEnMin=10 EnMin= -231.666773023171     IErMin=10 ErrMin= 9.22D-05
 ErrMax= 9.22D-05  0.00D+00 EMaxC= 1.00D+00 BMatC= 1.54D-07 BMatP= 7.01D-07
 IDIUse=1 WtCom= 1.00D+00 WtEn= 0.00D+00
 Coeff-Com:  0.181D-02-0.330D-02 0.999D-02-0.571D-02-0.954D-01 0.380D+00
 Coeff-Com: -0.850D+00 0.157D+01-0.276D+01 0.275D+01
 Coeff:      0.181D-02-0.330D-02 0.999D-02-0.571D-02-0.954D-01 0.380D+00
 Coeff:     -0.850D+00 0.157D+01-0.276D+01 0.275D+01
 Gap=     0.393 Goal=   None    Shift=    0.500
 Gap=     0.229 Goal=   None    Shift=    0.500
 RMSDP=6.78D-06 MaxDP=1.11D-04 DE=-9.44D-07 OVMax= 3.76D-04

 Cycle  11  Pass 1  IDiag  1:
 Density matrix breaks symmetry, PCut= 1.00D-04
 Density has only Abelian symmetry.
 E= -231.666773230183     Delta-E=       -0.000000207012 Rises=F Damp=F
 DIIS: error= 4.50D-05 at cycle  11 NSaved=  11.
 NSaved=11 IEnMin=11 EnMin= -231.666773230183     IErMin=11 ErrMin= 4.50D-05
 ErrMax= 4.50D-05  0.00D+00 EMaxC= 1.00D+00 BMatC= 3.35D-08 BMatP= 1.54D-07
 IDIUse=1 WtCom= 1.00D+00 WtEn= 0.00D+00
 Coeff-Com: -0.475D-03 0.888D-03-0.210D-02 0.482D-03 0.158D-01-0.622D-01
 Coeff-Com:  0.149D+00-0.366D+00 0.908D+00-0.217D+01 0.253D+01
 Coeff:     -0.475D-03 0.888D-03-0.210D-02 0.482D-03 0.158D-01-0.622D-01
 Coeff:      0.149D+00-0.366D+00 0.908D+00-0.217D+01 0.253D+01
 Gap=     0.393 Goal=   None    Shift=    0.500
 Gap=     0.229 Goal=   None    Shift=    0.500
 RMSDP=3.13D-06 MaxDP=5.09D-05 DE=-2.07D-07 OVMax= 1.80D-04

 Cycle  12  Pass 1  IDiag  1:
 Density matrix breaks symmetry, PCut= 1.00D-04
 Density has only Abelian symmetry.
 E= -231.666773275078     Delta-E=       -0.000000044895 Rises=F Damp=F
 DIIS: error= 2.23D-05 at cycle  12 NSaved=  12.
 NSaved=12 IEnMin=12 EnMin= -231.666773275078     IErMin=12 ErrMin= 2.23D-05
 ErrMax= 2.23D-05  0.00D+00 EMaxC= 1.00D+00 BMatC= 7.41D-09 BMatP= 3.35D-08
 IDIUse=1 WtCom= 1.00D+00 WtEn= 0.00D+00
 Coeff-Com: -0.198D-03 0.405D-03-0.129D-02-0.988D-03 0.170D-01-0.564D-01
 Coeff-Com:  0.114D+00-0.176D+00 0.134D+00 0.492D+00-0.233D+01 0.281D+01
 Coeff:     -0.198D-03 0.405D-03-0.129D-02-0.988D-03 0.170D-01-0.564D-01
 Coeff:      0.114D+00-0.176D+00 0.134D+00 0.492D+00-0.233D+01 0.281D+01
 Gap=     0.393 Goal=   None    Shift=    0.500
 Gap=     0.229 Goal=   None    Shift=    0.500
 RMSDP=1.44D-06 MaxDP=2.34D-05 DE=-4.49D-08 OVMax= 8.77D-05

 Cycle  13  Pass 1  IDiag  1:
 Density matrix breaks symmetry, PCut= 1.00D-04
 Density has only Abelian symmetry.
 E= -231.666773284940     Delta-E=       -0.000000009862 Rises=F Damp=F
 DIIS: error= 1.09D-05 at cycle  13 NSaved=  13.
 NSaved=13 IEnMin=13 EnMin= -231.666773284940     IErMin=13 ErrMin= 1.09D-05
 ErrMax= 1.09D-05  0.00D+00 EMaxC= 1.00D+00 BMatC= 1.64D-09 BMatP= 7.41D-09
 IDIUse=1 WtCom= 1.00D+00 WtEn= 0.00D+00
 Coeff-Com:  0.120D-03-0.237D-03 0.750D-03 0.578D-04-0.814D-02 0.280D-01
 Coeff-Com: -0.563D-01 0.866D-01-0.753D-01-0.214D+00 0.129D+01-0.316D+01
 Coeff-Com:  0.311D+01
 Coeff:      0.120D-03-0.237D-03 0.750D-03 0.578D-04-0.814D-02 0.280D-01
 Coeff:     -0.563D-01 0.866D-01-0.753D-01-0.214D+00 0.129D+01-0.316D+01
 Coeff:      0.311D+01
 Gap=     0.393 Goal=   None    Shift=    0.500
 Gap=     0.229 Goal=   None    Shift=    0.500
 RMSDP=6.59D-07 MaxDP=1.08D-05 DE=-9.86D-09 OVMax= 4.23D-05

 Density matrix breaks symmetry, PCut= 1.00D-04
 Density has only Abelian symmetry.
 SCF Done:  E(ULC-wHPBE) =  -231.666773285     A.U. after   13 cycles
            NFock= 13  Conv=0.66D-06     -V/T= 2.0046
 <Sx>= 0.0000 <Sy>= 0.0000 <Sz>= 0.5000 <S**2>= 0.7758 S= 0.5128
 <L.S>= 0.000000000000E+00
 KE= 2.305981703732D+02 PE=-9.349039449301D+02 EE= 2.690950031799D+02
 Annihilation of the first spin contaminant:
 S**2 before annihilation     0.7758,   after     0.7503
 Leave Link  502 at Mon Mar 16 03:49:43 2020, MaxMem=  6710886400 cpu:              17.1 elap:               1.1
 (Enter /opt/ohpc/pub/libs/gaussian/g16-A.03/sandybridge/g16/l508.exe)
 QCSCF skips out because SCF is already converged.
 Leave Link  508 at Mon Mar 16 03:49:43 2020, MaxMem=  6710886400 cpu:               1.2 elap:               0.1
 (Enter /opt/ohpc/pub/libs/gaussian/g16-A.03/sandybridge/g16/l601.exe)
 Copying SCF densities to generalized density rwf, IOpCl= 1 IROHF=0.
 SCF density gives NOpUse=  8 NOpAll= 24.
 Marking SCF density as not fully symmetric.

 **********************************************************************

            Population analysis using the SCF density.

 **********************************************************************

 Orbital symmetries:
 Alpha Orbitals:
       Occupied  (?A) (?A) (?A) (?A) (?A) (?A) (?B) (?B) (?B) (?B)
                 (?B) (?B) (?B) (?B) (?B) (?B) (?C) (?B) (?B) (?C)
                 (?C)
       Virtual   (?C) (?C) (?B) (?C) (?B) (?B) (?B) (?B) (?B) (?B)
                 (?B) (?B) (?B) (?B) (?C) (?B) (?B) (?B) (?C) (?C)
                 (?B) (?B) (?B) (?C) (?B) (?B) (?C) (?C) (?B) (?B)
                 (?B) (?B) (?B) (?B) (?B) (?B) (?B) (?B) (?B) (?B)
                 (?B) (?B) (?B) (?B) (?B)
 Beta  Orbitals:
       Occupied  (?A) (?A) (?A) (?A) (?A) (?A) (?B) (B2G) (B2G)
                 (?B) (?B) (?B) (B2G) (B2G) (B2G) (B2G) (?C) (?B)
                 (?B) (?D)
       Virtual   (?D) (?C) (?C) (?D) (?D) (B2G) (B2G) (?D) (?D)
                 (B2G) (?D) (?D) (B2G) (B2G) (B2G) (?C) (B2G) (?D)
                 (?D) (?D) (?D) (?D) (?D) (?D) (B2G) (B2G) (?C)
                 (?C) (?D) (B2G) (?A) (?A) (B2G) (B2G) (?A) (?D)
                 (B2G) (B2G) (?D) (?D) (B2G) (B2G) (B2G) (E2G)
                 (E2G) (B1U)
 Unable to determine electronic state:  an orbital has unidentified symmetry.
 Alpha  occ. eigenvalues --  -10.33072 -10.33069 -10.33046 -10.33041 -10.29273
 Alpha  occ. eigenvalues --  -10.29269  -1.21522  -1.10985  -1.08343  -0.94163
 Alpha  occ. eigenvalues --   -0.94159  -0.85833  -0.78988  -0.77802  -0.75927
 Alpha  occ. eigenvalues --   -0.73839  -0.72865  -0.66390  -0.66081  -0.61214
 Alpha  occ. eigenvalues --   -0.57222
 Alpha virt. eigenvalues --   -0.17889  -0.14413  -0.00862   0.01701   0.04307
 Alpha virt. eigenvalues --    0.05433   0.07847   0.08931   0.10375   0.17902
 Alpha virt. eigenvalues --    0.18394   0.19177   0.19744   0.37855   0.38674
 Alpha virt. eigenvalues --    0.41137   0.43574   0.43927   0.46788   0.49049
 Alpha virt. eigenvalues --    0.49316   0.49838   0.52692   0.53216   0.53802
 Alpha virt. eigenvalues --    0.54264   0.55228   0.62482   0.72483   0.73835
 Alpha virt. eigenvalues --    0.75228   0.78210   0.79901   0.85577   0.85977
 Alpha virt. eigenvalues --    0.88167   0.88186   1.00206   1.01801   1.06182
 Alpha virt. eigenvalues --    1.07140   1.11450   1.33631   1.33888   1.79075
  Beta  occ. eigenvalues --  -10.32602 -10.32602 -10.32581 -10.32576 -10.29473
  Beta  occ. eigenvalues --  -10.29469  -1.20374  -1.08691  -1.08140  -0.93627
  Beta  occ. eigenvalues --   -0.93203  -0.85526  -0.78513  -0.77354  -0.75385
  Beta  occ. eigenvalues --   -0.73855  -0.67910  -0.66172  -0.65792  -0.57064
  Beta virt. eigenvalues --   -0.34133  -0.12611  -0.12554  -0.00670   0.03993
  Beta virt. eigenvalues --    0.04577   0.05486   0.08644   0.09078   0.10688
  Beta virt. eigenvalues --    0.18511   0.18594   0.19664   0.20112   0.38199
  Beta virt. eigenvalues --    0.40224   0.42211   0.44033   0.44294   0.49421
  Beta virt. eigenvalues --    0.49440   0.49994   0.50409   0.53018   0.54544
  Beta virt. eigenvalues --    0.54999   0.55343   0.55576   0.63442   0.72791
  Beta virt. eigenvalues --    0.74193   0.75311   0.78858   0.79920   0.85809
  Beta virt. eigenvalues --    0.86205   0.88457   0.89157   1.01528   1.02096
  Beta virt. eigenvalues --    1.07059   1.07248   1.11948   1.34160   1.34701
  Beta virt. eigenvalues --    1.79849
          Condensed to atoms (all electrons):
               1          2          3          4          5          6
     1  C    4.912089   0.521369  -0.063586  -0.023039  -0.063586   0.521369
     2  C    0.521369   4.965394   0.412571  -0.063586  -0.023813  -0.049474
     3  C   -0.063586   0.412571   4.965394   0.521369  -0.049474  -0.023813
     4  C   -0.023039  -0.063586   0.521369   4.912089   0.521369  -0.063586
     5  C   -0.063586  -0.023813  -0.049474   0.521369   4.965394   0.412571
     6  C    0.521369  -0.049474  -0.023813  -0.063586   0.412571   4.965394
     7  H    0.371527  -0.024133   0.003267   0.000064   0.003267  -0.024133
     8  H   -0.020420   0.365814  -0.028305   0.003005   0.000062   0.003177
     9  H    0.003005  -0.028305   0.365814  -0.020420   0.003177   0.000062
    10  H    0.000064   0.003267  -0.024133   0.371527  -0.024133   0.003267
    11  H    0.003005   0.000062   0.003177  -0.020420   0.365814  -0.028305
    12  H   -0.020420   0.003177   0.000062   0.003005  -0.028305   0.365814
               7          8          9         10         11         12
     1  C    0.371527  -0.020420   0.003005   0.000064   0.003005  -0.020420
     2  C   -0.024133   0.365814  -0.028305   0.003267   0.000062   0.003177
     3  C    0.003267  -0.028305   0.365814  -0.024133   0.003177   0.000062
     4  C    0.000064   0.003005  -0.020420   0.371527  -0.020420   0.003005
     5  C    0.003267   0.000062   0.003177  -0.024133   0.365814  -0.028305
     6  C   -0.024133   0.003177   0.000062   0.003267  -0.028305   0.365814
     7  H    0.417490  -0.002618  -0.000071   0.000002  -0.000071  -0.002618
     8  H   -0.002618   0.407714  -0.002317  -0.000071   0.000004  -0.000067
     9  H   -0.000071  -0.002317   0.407714  -0.002618  -0.000067   0.000004
    10  H    0.000002  -0.000071  -0.002618   0.417490  -0.002618  -0.000071
    11  H   -0.000071   0.000004  -0.000067  -0.002618   0.407714  -0.002317
    12  H   -0.002618  -0.000067   0.000004  -0.000071  -0.002317   0.407714
          Atomic-Atomic Spin Densities.
               1          2          3          4          5          6
     1  C   -0.182104  -0.007052  -0.007486   0.005914  -0.007486  -0.007052
     2  C   -0.007052   0.355297   0.040318  -0.007486  -0.007272  -0.006000
     3  C   -0.007486   0.040318   0.355297  -0.007052  -0.006000  -0.007272
     4  C    0.005914  -0.007486  -0.007052  -0.182104  -0.007052  -0.007486
     5  C   -0.007486  -0.007272  -0.006000  -0.007052   0.355297   0.040318
     6  C   -0.007052  -0.006000  -0.007272  -0.007486   0.040318   0.355297
     7  H    0.001538  -0.000937   0.000152  -0.000053   0.000152  -0.000937
     8  H    0.000059   0.000401  -0.001802  -0.000008  -0.000055   0.000083
     9  H   -0.000008  -0.001802   0.000401   0.000059   0.000083  -0.000055
    10  H   -0.000053   0.000152  -0.000937   0.001538  -0.000937   0.000152
    11  H   -0.000008  -0.000055   0.000083   0.000059   0.000401  -0.001802
    12  H    0.000059   0.000083  -0.000055  -0.000008  -0.001802   0.000401
               7          8          9         10         11         12
     1  C    0.001538   0.000059  -0.000008  -0.000053  -0.000008   0.000059
     2  C   -0.000937   0.000401  -0.001802   0.000152  -0.000055   0.000083
     3  C    0.000152  -0.001802   0.000401  -0.000937   0.000083  -0.000055
     4  C   -0.000053  -0.000008   0.000059   0.001538   0.000059  -0.000008
     5  C    0.000152  -0.000055   0.000083  -0.000937   0.000401  -0.001802
     6  C   -0.000937   0.000083  -0.000055   0.000152  -0.001802   0.000401
     7  H    0.005051  -0.000003   0.000004  -0.000001   0.000004  -0.000003
     8  H   -0.000003  -0.014929  -0.000047   0.000004  -0.000000   0.000005
     9  H    0.000004  -0.000047  -0.014929  -0.000003   0.000005  -0.000000
    10  H   -0.000001   0.000004  -0.000003   0.005051  -0.000003   0.000004
    11  H    0.000004  -0.000000   0.000005  -0.000003  -0.014929  -0.000047
    12  H   -0.000003   0.000005  -0.000000   0.000004  -0.000047  -0.014929
 Mulliken charges and spin densities:
               1          2
     1  C   -0.141379  -0.203678
     2  C   -0.082344   0.365648
     3  C   -0.082344   0.365648
     4  C   -0.141379  -0.203678
     5  C   -0.082344   0.365648
     6  C   -0.082344   0.365648
     7  H    0.258025   0.004968
     8  H    0.274021  -0.016293
     9  H    0.274021  -0.016293
    10  H    0.258025   0.004968
    11  H    0.274021  -0.016293
    12  H    0.274021  -0.016293
 Sum of Mulliken charges =   1.00000   1.00000
 Mulliken charges and spin densities with hydrogens summed into heavy atoms:
               1          2
     1  C    0.116647  -0.198710
     2  C    0.191677   0.349355
     3  C    0.191677   0.349355
     4  C    0.116647  -0.198710
     5  C    0.191677   0.349355
     6  C    0.191677   0.349355
 Electronic spatial extent (au):  <R**2>=            437.1421
 Charge=              1.0000 electrons
 Dipole moment (field-independent basis, Debye):
    X=             -0.0000    Y=              0.0000    Z=             -0.0000  Tot=              0.0000
 Quadrupole moment (field-independent basis, Debye-Ang):
   XX=            -18.0272   YY=            -21.6876   ZZ=            -35.0125
   XY=             -0.0000   XZ=              0.0000   YZ=              0.0000
 Traceless Quadrupole moment (field-independent basis, Debye-Ang):
   XX=              6.8819   YY=              3.2215   ZZ=            -10.1034
   XY=             -0.0000   XZ=              0.0000   YZ=              0.0000
 Octapole moment (field-independent basis, Debye-Ang**2):
  XXX=              0.0000  YYY=              0.0000  ZZZ=              0.0000  XYY=             -0.0000
  XXY=             -0.0000  XXZ=              0.0000  XZZ=             -0.0000  YZZ=              0.0000
  YYZ=              0.0000  XYZ=              0.0000
 Hexadecapole moment (field-independent basis, Debye-Ang**3):
 XXXX=           -195.6932 YYYY=           -210.0252 ZZZZ=            -34.1226 XXXY=              0.0000
 XXXZ=              0.0000 YYYX=              0.0000 YYYZ=              0.0000 ZZZX=             -0.0000
 ZZZY=             -0.0000 XXYY=            -66.1062 XXZZ=            -51.9792 YYZZ=            -55.2757
 XXYZ=              0.0000 YYXZ=              0.0000 ZZXY=              0.0000
 N-N= 2.035439980921D+02 E-N=-9.349039466104D+02  KE= 2.305981703732D+02
 Symmetry AG   KE= 7.452025033733D+01
 Symmetry B1G  KE= 3.776550639074D+01
 Symmetry B2G  KE= 1.197768399399D+00
 Symmetry B3G  KE= 2.343231817808D+00
 Symmetry AU   KE=-4.954560169498D-17
 Symmetry B1U  KE= 1.958465343480D+00
 Symmetry B2U  KE= 7.220220094764D+01
 Symmetry B3U  KE= 4.061074713680D+01
 Symmetry AG   SP=-4.743885948129D-15
 Symmetry B1G  SP= 3.023445988742D-15
 Symmetry B2G  SP= 1.000000000000D+00
 Symmetry B3G  SP=-3.197393521823D-15
 Symmetry AU   SP=-4.058800113806D-17
 Symmetry B1U  SP=-2.894277699450D-16
 Symmetry B2U  SP=-2.574182932243D-14
 Symmetry B3U  SP= 2.522911350319D-15
                          Isotropic Fermi Contact Couplings
        Atom                 a.u.       MegaHertz       Gauss      10(-4) cm-1
     1  C(13)             -0.03141     -35.30638     -12.59819     -11.77694
     2  C(13)              0.04313      48.49176      17.30307      16.17511
     3  C(13)              0.04313      48.49176      17.30307      16.17511
     4  C(13)             -0.03141     -35.30638     -12.59819     -11.77694
     5  C(13)              0.04313      48.49176      17.30307      16.17511
     6  C(13)              0.04313      48.49176      17.30307      16.17511
     7  H(1)               0.00194       8.65895       3.08973       2.88832
     8  H(1)              -0.00636     -28.40898     -10.13703      -9.47622
     9  H(1)              -0.00636     -28.40898     -10.13703      -9.47622
    10  H(1)               0.00194       8.65895       3.08973       2.88832
    11  H(1)              -0.00636     -28.40898     -10.13703      -9.47622
    12  H(1)              -0.00636     -28.40898     -10.13703      -9.47622
 --------------------------------------------------------
       Center         ----  Spin Dipole Couplings  ----
                      3XX-RR        3YY-RR        3ZZ-RR
 --------------------------------------------------------
     1   Atom        0.069705      0.061916     -0.131621
     2   Atom       -0.187492     -0.180063      0.367555
     3   Atom       -0.187492     -0.180063      0.367555
     4   Atom        0.069705      0.061916     -0.131621
     5   Atom       -0.187492     -0.180063      0.367555
     6   Atom       -0.187492     -0.180063      0.367555
     7   Atom        0.006361     -0.000733     -0.005627
     8   Atom        0.011237     -0.003671     -0.007566
     9   Atom        0.011237     -0.003671     -0.007566
    10   Atom        0.006361     -0.000733     -0.005627
    11   Atom        0.011237     -0.003671     -0.007566
    12   Atom        0.011237     -0.003671     -0.007566
 --------------------------------------------------------
                        XY            XZ            YZ
 --------------------------------------------------------
     1   Atom        0.000000      0.000000      0.000000
     2   Atom       -0.004825     -0.000000     -0.000000
     3   Atom        0.004825     -0.000000      0.000000
     4   Atom       -0.000000      0.000000     -0.000000
     5   Atom       -0.004825      0.000000      0.000000
     6   Atom        0.004825      0.000000     -0.000000
     7   Atom        0.000000     -0.000000     -0.000000
     8   Atom       -0.028372     -0.000000      0.000000
     9   Atom        0.028372     -0.000000     -0.000000
    10   Atom       -0.000000     -0.000000      0.000000
    11   Atom       -0.028372      0.000000     -0.000000
    12   Atom        0.028372      0.000000      0.000000
 --------------------------------------------------------


 ---------------------------------------------------------------------------------
              Anisotropic Spin Dipole Couplings in Principal Axis System
 ---------------------------------------------------------------------------------

       Atom             a.u.   MegaHertz   Gauss  10(-4) cm-1        Axes

              Baa    -0.1316   -17.662    -6.302    -5.892  0.0000  0.0000  1.0000
     1 C(13)  Bbb     0.0619     8.309     2.965     2.771 -0.0000  1.0000 -0.0000
              Bcc     0.0697     9.354     3.338     3.120  1.0000  0.0000 -0.0000
 
              Baa    -0.1899   -25.478    -9.091    -8.499  0.8972  0.4416 -0.0000
     2 C(13)  Bbb    -0.1777   -23.844    -8.508    -7.954 -0.4416  0.8972 -0.0000
              Bcc     0.3676    49.322    17.599    16.452  0.0000  0.0000  1.0000
 
              Baa    -0.1899   -25.478    -9.091    -8.499  0.8972 -0.4416  0.0000
     3 C(13)  Bbb    -0.1777   -23.844    -8.508    -7.954  0.4416  0.8972 -0.0000
              Bcc     0.3676    49.322    17.599    16.452  0.0000  0.0000  1.0000
 
              Baa    -0.1316   -17.662    -6.302    -5.892  0.0000  0.0000  1.0000
     4 C(13)  Bbb     0.0619     8.309     2.965     2.771  0.0000  1.0000  0.0000
              Bcc     0.0697     9.354     3.338     3.120  1.0000 -0.0000  0.0000
 
              Baa    -0.1899   -25.478    -9.091    -8.499  0.8972  0.4416 -0.0000
     5 C(13)  Bbb    -0.1777   -23.844    -8.508    -7.954 -0.4416  0.8972 -0.0000
              Bcc     0.3676    49.322    17.599    16.452  0.0000  0.0000  1.0000
 
              Baa    -0.1899   -25.478    -9.091    -8.499  0.8972 -0.4416  0.0000
     6 C(13)  Bbb    -0.1777   -23.844    -8.508    -7.954  0.4416  0.8972 -0.0000
              Bcc     0.3676    49.322    17.599    16.452  0.0000  0.0000  1.0000
 
              Baa    -0.0056    -3.002    -1.071    -1.002  0.0000  0.0000  1.0000
     7 H(1)   Bbb    -0.0007    -0.391    -0.140    -0.130 -0.0000  1.0000 -0.0000
              Bcc     0.0064     3.394     1.211     1.132  1.0000  0.0000 -0.0000
 
              Baa    -0.0256   -13.633    -4.865    -4.547  0.6107  0.7919  0.0000
     8 H(1)   Bbb    -0.0076    -4.037    -1.441    -1.347  0.0000  0.0000  1.0000
              Bcc     0.0331    17.670     6.305     5.894  0.7919 -0.6107  0.0000
 
              Baa    -0.0256   -13.633    -4.865    -4.547 -0.6107  0.7919  0.0000
     9 H(1)   Bbb    -0.0076    -4.037    -1.441    -1.347  0.0000  0.0000  1.0000
              Bcc     0.0331    17.670     6.305     5.894  0.7919  0.6107 -0.0000
 
              Baa    -0.0056    -3.002    -1.071    -1.002  0.0000  0.0000  1.0000
    10 H(1)   Bbb    -0.0007    -0.391    -0.140    -0.130  0.0000  1.0000  0.0000
              Bcc     0.0064     3.394     1.211     1.132  1.0000 -0.0000  0.0000
 
              Baa    -0.0256   -13.633    -4.865    -4.547  0.6107  0.7919  0.0000
    11 H(1)   Bbb    -0.0076    -4.037    -1.441    -1.347  0.0000  0.0000  1.0000
              Bcc     0.0331    17.670     6.305     5.894  0.7919 -0.6107  0.0000
 
              Baa    -0.0256   -13.633    -4.865    -4.547 -0.6107  0.7919  0.0000
    12 H(1)   Bbb    -0.0076    -4.037    -1.441    -1.347  0.0000  0.0000  1.0000
              Bcc     0.0331    17.670     6.305     5.894  0.7919  0.6107 -0.0000
 

 ---------------------------------------------------------------------------------

 No NMR shielding tensors so no spin-rotation constants.
 Leave Link  601 at Mon Mar 16 03:49:43 2020, MaxMem=  6710886400 cpu:               4.7 elap:               0.6
 (Enter /opt/ohpc/pub/libs/gaussian/g16-A.03/sandybridge/g16/l9999.exe)

 Test job not archived.
 1\1\GINC-CNODE145\SP\ULC-wHPBE\6-31G\C6H6(1+,2)\QAI222\16-Mar-2020\0\\
 #P uLC-wHPBE/6-31G iop(3/107=0311800000, 3/108=0311800000) scf=(conver
 =6,fermi,ndamp=35,noincfock,novaracc,vshift=500,xqc)\\H6 C6\\1,2\C,0,0
 .,1.39316,0.\C,0,-1.206512,0.69658,0.\C,0,-1.206512,-0.69658,0.\C,0,0.
 ,-1.39316,0.\C,0,1.206512,-0.69658,0.\C,0,1.206512,0.69658,0.\H,0,0.,2
 .482681,0.\H,0,-2.150065,1.24134,0.\H,0,-2.150065,-1.24134,0.\H,0,0.,-
 2.482681,0.\H,0,2.150065,-1.24134,0.\H,0,2.150065,1.24134,0.\\Version=
 EM64L-G16RevA.03\HF=-231.6667733\S2=0.775782\S2-1=0.\S2A=0.750321\RMSD
 =6.588e-07\Dipole=0.,0.,0.\Quadrupole=5.1164917,2.3951104,-7.511602,0.
 ,0.,0.\PG=D06H [3C2'(H1C1.C1H1)]\\@


 THAT'S WHAT MAKES US A GREAT COUNTRY.
 THE LITTLE THINGS ARE SERIOUS AND THE BIG ONES ARE NOT.
           WILL ROGERS
 Job cpu time:       0 days  0 hours  0 minutes 51.0 seconds.
 Elapsed time:       0 days  0 hours  0 minutes  3.9 seconds.
 File lengths (MBytes):  RWF=    272 Int=      0 D2E=      0 Chk=     32 Scr=     32
 Normal termination of Gaussian 16 at Mon Mar 16 03:49:43 2020.
