 Entering Gaussian System, Link 0=g16
 Input=1b_tune_c8.gjf
 Output=1b_tune_c8.log
 Initial command:
 /opt/ohpc/pub/libs/gaussian/g16-A.03/sandybridge/g16/l1.exe "/scratch/qai222/ocelot_api/tests/wtuning_test/1b/tuning_1b_ocycle0/Gau-6414.inp" -scrdir="/scratch/qai222/ocelot_api/tests/wtuning_test/1b/tuning_1b_ocycle0/"
 Entering Link 1 = /opt/ohpc/pub/libs/gaussian/g16-A.03/sandybridge/g16/l1.exe PID=      6415.
  
 Copyright (c) 1988,1990,1992,1993,1995,1998,2003,2009,2016,
            Gaussian, Inc.  All Rights Reserved.
  
 This is part of the Gaussian(R) 16 program.  It is based on
 the Gaussian(R) 09 system (copyright 2009, Gaussian, Inc.),
 the Gaussian(R) 03 system (copyright 2003, Gaussian, Inc.),
 the Gaussian(R) 98 system (copyright 1998, Gaussian, Inc.),
 the Gaussian(R) 94 system (copyright 1995, Gaussian, Inc.),
 the Gaussian 92(TM) system (copyright 1992, Gaussian, Inc.),
 the Gaussian 90(TM) system (copyright 1990, Gaussian, Inc.),
 the Gaussian 88(TM) system (copyright 1988, Gaussian, Inc.),
 the Gaussian 86(TM) system (copyright 1986, Carnegie Mellon
 University), and the Gaussian 82(TM) system (copyright 1983,
 Carnegie Mellon University). Gaussian is a federally registered
 trademark of Gaussian, Inc.
  
 This software contains proprietary and confidential information,
 including trade secrets, belonging to Gaussian, Inc.
  
 This software is provided under written license and may be
 used, copied, transmitted, or stored only in accord with that
 written license.
  
 The following legend is applicable only to US Government
 contracts under FAR:
  
                    RESTRICTED RIGHTS LEGEND
  
 Use, reproduction and disclosure by the US Government is
 subject to restrictions as set forth in subparagraphs (a)
 and (c) of the Commercial Computer Software - Restricted
 Rights clause in FAR 52.227-19.
  
 Gaussian, Inc.
 340 Quinnipiac St., Bldg. 40, Wallingford CT 06492
  
  
 ---------------------------------------------------------------
 Warning -- This program may not be used in any manner that
 competes with the business of Gaussian, Inc. or will provide
 assistance to any competitor of Gaussian, Inc.  The licensee
 of this program is prohibited from giving any competitor of
 Gaussian, Inc. access to this program.  By using this program,
 the user acknowledges that Gaussian, Inc. is engaged in the
 business of creating and licensing software in the field of
 computational chemistry and represents and warrants to the
 licensee that it is not a competitor of Gaussian, Inc. and that
 it will not use this program in any manner prohibited above.
 ---------------------------------------------------------------
  

 Cite this work as:
 Gaussian 16, Revision A.03,
 M. J. Frisch, G. W. Trucks, H. B. Schlegel, G. E. Scuseria, 
 M. A. Robb, J. R. Cheeseman, G. Scalmani, V. Barone, 
 G. A. Petersson, H. Nakatsuji, X. Li, M. Caricato, A. V. Marenich, 
 J. Bloino, B. G. Janesko, R. Gomperts, B. Mennucci, H. P. Hratchian, 
 J. V. Ortiz, A. F. Izmaylov, J. L. Sonnenberg, D. Williams-Young, 
 F. Ding, F. Lipparini, F. Egidi, J. Goings, B. Peng, A. Petrone, 
 T. Henderson, D. Ranasinghe, V. G. Zakrzewski, J. Gao, N. Rega, 
 G. Zheng, W. Liang, M. Hada, M. Ehara, K. Toyota, R. Fukuda, 
 J. Hasegawa, M. Ishida, T. Nakajima, Y. Honda, O. Kitao, H. Nakai, 
 T. Vreven, K. Throssell, J. A. Montgomery, Jr., J. E. Peralta, 
 F. Ogliaro, M. J. Bearpark, J. J. Heyd, E. N. Brothers, K. N. Kudin, 
 V. N. Staroverov, T. A. Keith, R. Kobayashi, J. Normand, 
 K. Raghavachari, A. P. Rendell, J. C. Burant, S. S. Iyengar, 
 J. Tomasi, M. Cossi, J. M. Millam, M. Klene, C. Adamo, R. Cammi, 
 J. W. Ochterski, R. L. Martin, K. Morokuma, O. Farkas, 
 J. B. Foresman, and D. J. Fox, Gaussian, Inc., Wallingford CT, 2016.
 
 ******************************************
 Gaussian 16:  EM64L-G16RevA.03 25-Dec-2016
                22-Apr-2020 
 ******************************************
 %mem=50GB
 %nproc=16
 Will use up to   16 processors via shared memory.
 ----------------------------------------------------------------------
 #P uLC-wHPBE/6-31G iop(3/107=0315400000, 3/108=0315400000) scf=(conver
 =6,fermi,ndamp=35,noincfock,novaracc,vshift=500,xqc)
 ----------------------------------------------------------------------
 1/38=1,172=1/1;
 2/12=2,17=6,18=5,40=1/2;
 3/5=1,6=6,11=2,25=1,30=1,74=-71,107=315400000,108=315400000,116=2/1,2,3;
 4//1;
 5/5=100002,6=6,8=3,10=500,13=1,18=-1,22=13,38=1,93=35/2,8;
 6/7=2,8=2,9=2,10=2,28=1/1;
 99/5=1,9=1/99;
 Leave Link    1 at Wed Apr 22 20:38:14 2020, MaxMem=  6710886400 cpu:               8.5 elap:               0.6
 (Enter /opt/ohpc/pub/libs/gaussian/g16-A.03/sandybridge/g16/l101.exe)
 -----
 H6 C6
 -----
 Symbolic Z-matrix:
 Charge =  1 Multiplicity = 2
 C                     0.        1.39316   0. 
 C                    -1.20651   0.69658   0. 
 C                    -1.20651  -0.69658   0. 
 C                     0.       -1.39316   0. 
 C                     1.20651  -0.69658   0. 
 C                     1.20651   0.69658   0. 
 H                     0.        2.48268   0. 
 H                    -2.15007   1.24134   0. 
 H                    -2.15007  -1.24134   0. 
 H                     0.       -2.48268   0. 
 H                     2.15007  -1.24134   0. 
 H                     2.15007   1.24134   0. 
 
 ITRead=  0  0  0  0  0  0  0  0  0  0  0  0
 MicOpt= -1 -1 -1 -1 -1 -1 -1 -1 -1 -1 -1 -1
 NAtoms=     12 NQM=       12 NQMF=       0 NMMI=      0 NMMIF=      0
                NMic=       0 NMicF=      0.
                    Isotopes and Nuclear Properties:
 (Nuclear quadrupole moments (NQMom) in fm**2, nuclear magnetic moments (NMagM)
  in nuclear magnetons)

  Atom         1           2           3           4           5           6           7           8           9          10
 IAtWgt=          12          12          12          12          12          12           1           1           1           1
 AtmWgt=  12.0000000  12.0000000  12.0000000  12.0000000  12.0000000  12.0000000   1.0078250   1.0078250   1.0078250   1.0078250
 NucSpn=           0           0           0           0           0           0           1           1           1           1
 AtZEff=  -0.0000000  -0.0000000  -0.0000000  -0.0000000  -0.0000000  -0.0000000  -0.0000000  -0.0000000  -0.0000000  -0.0000000
 NQMom=    0.0000000   0.0000000   0.0000000   0.0000000   0.0000000   0.0000000   0.0000000   0.0000000   0.0000000   0.0000000
 NMagM=    0.0000000   0.0000000   0.0000000   0.0000000   0.0000000   0.0000000   2.7928460   2.7928460   2.7928460   2.7928460
 AtZNuc=   6.0000000   6.0000000   6.0000000   6.0000000   6.0000000   6.0000000   1.0000000   1.0000000   1.0000000   1.0000000

  Atom        11          12
 IAtWgt=           1           1
 AtmWgt=   1.0078250   1.0078250
 NucSpn=           1           1
 AtZEff=  -0.0000000  -0.0000000
 NQMom=    0.0000000   0.0000000
 NMagM=    2.7928460   2.7928460
 AtZNuc=   1.0000000   1.0000000
 Leave Link  101 at Wed Apr 22 20:38:14 2020, MaxMem=  6710886400 cpu:               2.3 elap:               0.2
 (Enter /opt/ohpc/pub/libs/gaussian/g16-A.03/sandybridge/g16/l202.exe)
                          Input orientation:                          
 ---------------------------------------------------------------------
 Center     Atomic      Atomic             Coordinates (Angstroms)
 Number     Number       Type             X           Y           Z
 ---------------------------------------------------------------------
      1          6           0        0.000000    1.393160    0.000000
      2          6           0       -1.206512    0.696580    0.000000
      3          6           0       -1.206512   -0.696580    0.000000
      4          6           0        0.000000   -1.393160    0.000000
      5          6           0        1.206512   -0.696580    0.000000
      6          6           0        1.206512    0.696580    0.000000
      7          1           0        0.000000    2.482681    0.000000
      8          1           0       -2.150065    1.241340    0.000000
      9          1           0       -2.150065   -1.241340    0.000000
     10          1           0        0.000000   -2.482681    0.000000
     11          1           0        2.150065   -1.241340    0.000000
     12          1           0        2.150065    1.241340    0.000000
 ---------------------------------------------------------------------
                    Distance matrix (angstroms):
                    1          2          3          4          5
     1  C    0.000000
     2  C    1.393160   0.000000
     3  C    2.413024   1.393160   0.000000
     4  C    2.786320   2.413024   1.393160   0.000000
     5  C    2.413024   2.786320   2.413024   1.393160   0.000000
     6  C    1.393160   2.413024   2.786320   2.413024   1.393160
     7  H    1.089521   2.155418   3.400496   3.875841   3.400496
     8  H    2.155418   1.089521   2.155418   3.400496   3.875841
     9  H    3.400496   2.155418   1.089521   2.155418   3.400496
    10  H    3.875841   3.400496   2.155418   1.089521   2.155418
    11  H    3.400496   3.875841   3.400496   2.155418   1.089521
    12  H    2.155418   3.400496   3.875841   3.400496   2.155418
                    6          7          8          9         10
     6  C    0.000000
     7  H    2.155418   0.000000
     8  H    3.400496   2.482681   0.000000
     9  H    3.875841   4.300129   2.482680   0.000000
    10  H    3.400496   4.965362   4.300129   2.482681   0.000000
    11  H    2.155418   4.300129   4.965362   4.300130   2.482681
    12  H    1.089521   2.482681   4.300130   4.965362   4.300129
                   11         12
    11  H    0.000000
    12  H    2.482680   0.000000
 Stoichiometry    C6H6(1+,2)
 Framework group  D6H[3C2'(HC.CH)]
 Deg. of freedom     2
 Full point group                 D6H     NOp  24
 Largest Abelian subgroup         D2H     NOp   8
 Largest concise Abelian subgroup D2      NOp   4
                         Standard orientation:                         
 ---------------------------------------------------------------------
 Center     Atomic      Atomic             Coordinates (Angstroms)
 Number     Number       Type             X           Y           Z
 ---------------------------------------------------------------------
      1          6           0       -0.000000    1.393160   -0.000000
      2          6           0       -1.206512    0.696580   -0.000000
      3          6           0       -1.206512   -0.696580   -0.000000
      4          6           0       -0.000000   -1.393160   -0.000000
      5          6           0        1.206512   -0.696580   -0.000000
      6          6           0        1.206512    0.696580   -0.000000
      7          1           0        0.000000    2.482681   -0.000000
      8          1           0       -2.150065    1.241341   -0.000000
      9          1           0       -2.150065   -1.241340   -0.000000
     10          1           0       -0.000000   -2.482681   -0.000000
     11          1           0        2.150065   -1.241341   -0.000000
     12          1           0        2.150065    1.241340   -0.000000
 ---------------------------------------------------------------------
 Rotational constants (GHZ):           5.7099798           5.7099798           2.8549899
 Leave Link  202 at Wed Apr 22 20:38:15 2020, MaxMem=  6710886400 cpu:               0.9 elap:               0.1
 (Enter /opt/ohpc/pub/libs/gaussian/g16-A.03/sandybridge/g16/l301.exe)
 Standard basis: 6-31G (6D, 7F)
 Ernie: Thresh=  0.10000D-02 Tol=  0.10000D-05 Strict=F.
 There are    16 symmetry adapted cartesian basis functions of AG  symmetry.
 There are    11 symmetry adapted cartesian basis functions of B1G symmetry.
 There are     2 symmetry adapted cartesian basis functions of B2G symmetry.
 There are     4 symmetry adapted cartesian basis functions of B3G symmetry.
 There are     2 symmetry adapted cartesian basis functions of AU  symmetry.
 There are     4 symmetry adapted cartesian basis functions of B1U symmetry.
 There are    16 symmetry adapted cartesian basis functions of B2U symmetry.
 There are    11 symmetry adapted cartesian basis functions of B3U symmetry.
 There are    16 symmetry adapted basis functions of AG  symmetry.
 There are    11 symmetry adapted basis functions of B1G symmetry.
 There are     2 symmetry adapted basis functions of B2G symmetry.
 There are     4 symmetry adapted basis functions of B3G symmetry.
 There are     2 symmetry adapted basis functions of AU  symmetry.
 There are     4 symmetry adapted basis functions of B1U symmetry.
 There are    16 symmetry adapted basis functions of B2U symmetry.
 There are    11 symmetry adapted basis functions of B3U symmetry.
    66 basis functions,   156 primitive gaussians,    66 cartesian basis functions
    21 alpha electrons       20 beta electrons
       nuclear repulsion energy       203.5439980921 Hartrees.
 IExCor=33909 DFT=T Ex+Corr=LC-wHPBE ExCW=0 ScaHFX=  1.000000
 ScaDFX=  1.000000  1.000000  1.000000  1.000000 ScalE2=  1.000000  1.000000
 IRadAn=      5 IRanWt=     -1 IRanGd=            0 ICorTp=0 IEmpDi=  4
 HFx  wShort=  0.000000 wLong=  0.315400 cFull=  0.000000 cShort=  0.000000 cLong=  1.000000
 DFx  wShort=  0.000000 wLong=  0.315400 cFull=  0.000000 cShort=  1.000000 cLong=  0.000000
 NAtoms=   12 NActive=   12 NUniq=    2 SFac= 4.00D+00 NAtFMM=   60 NAOKFM=F Big=F
 Integral buffers will be    131072 words long.
 Raffenetti 2 integral format.
 Two-electron integral symmetry is turned on.
 Leave Link  301 at Wed Apr 22 20:38:15 2020, MaxMem=  6710886400 cpu:               1.0 elap:               0.1
 (Enter /opt/ohpc/pub/libs/gaussian/g16-A.03/sandybridge/g16/l302.exe)
 NPDir=0 NMtPBC=     1 NCelOv=     1 NCel=       1 NClECP=     1 NCelD=      1
         NCelK=      1 NCelE2=     1 NClLst=     1 CellRange=     0.0.
 One-electron integrals computed using PRISM.
 One-electron integral symmetry used in STVInt
 NBasis=    66 RedAO= T EigKep=  6.87D-04  NBF=    16    11     2     4     2     4    16    11
 NBsUse=    66 1.00D-06 EigRej= -1.00D+00 NBFU=    16    11     2     4     2     4    16    11
 Precomputing XC quadrature grid using
 IXCGrd= 4 IRadAn=           5 IRanWt=          -1 IRanGd=           0 AccXCQ= 0.00D+00.
 Generated NRdTot=       0 NPtTot=           0 NUsed=           0 NTot=          32
 NSgBfM=    66    66    66    66    66 MxSgAt=    12 MxSgA2=    12.
 Leave Link  302 at Wed Apr 22 20:38:15 2020, MaxMem=  6710886400 cpu:               2.2 elap:               0.2
 (Enter /opt/ohpc/pub/libs/gaussian/g16-A.03/sandybridge/g16/l303.exe)
 DipDrv:  MaxL=1.
 Leave Link  303 at Wed Apr 22 20:38:15 2020, MaxMem=  6710886400 cpu:               0.4 elap:               0.0
 (Enter /opt/ohpc/pub/libs/gaussian/g16-A.03/sandybridge/g16/l401.exe)
 ExpMin= 1.61D-01 ExpMax= 3.05D+03 ExpMxC= 4.57D+02 IAcc=3 IRadAn=         5 AccDes= 0.00D+00
 Harris functional with IExCor=33909 and IRadAn=       5 diagonalized for initial guess.
 HarFok:  IExCor=33909 AccDes= 0.00D+00 IRadAn=         5 IDoV= 1 UseB2=F ITyADJ=14
 ICtDFT=  3500011 ScaDFX=  1.000000  1.000000  1.000000  1.000000
 FoFCou: FMM=F IPFlag=           0 FMFlag=      100000 FMFlg1=           0
         NFxFlg=           0 DoJE=T BraDBF=F KetDBF=T FulRan=T
         wScrn=  0.000000 ICntrl=       500 IOpCl=  0 I1Cent=   200000004 NGrid=           0
         NMat0=    1 NMatS0=      1 NMatT0=    0 NMatD0=    1 NMtDS0=    0 NMtDT0=    0
 Petite list used in FoFCou.
 Harris En= -225.081540093093    
 JPrj=0 DoOrth=F DoCkMO=F.
 Initial guess orbital symmetries:
 Alpha Orbitals:
       Occupied  (A1G) (E1U) (E1U) (E2G) (E2G) (B1U) (A1G) (E1U)
                 (E1U) (E2G) (E2G) (A1G) (B2U) (B1U) (E1U) (E1U)
                 (A2U) (E2G) (E2G) (E1G) (E1G)
       Virtual   (E2U) (E2U) (A1G) (B2G) (E1U) (E1U) (E2G) (E2G)
                 (B1U) (E2G) (E2G) (E1U) (E1U) (B2U) (A2U) (B1U)
                 (A2G) (A1G) (E2G) (E2G) (E1G) (E1G) (A1G) (E1U)
                 (E1U) (E2U) (E2U) (B2G) (B1U) (E2G) (E2G) (E1U)
                 (E1U) (A2G) (A1G) (E1U) (E1U) (E2G) (E2G) (E1U)
                 (E1U) (B1U) (E2G) (E2G) (B1U)
 Beta  Orbitals:
       Occupied  (A1G) (E1U) (E1U) (E2G) (E2G) (B1U) (A1G) (E1U)
                 (E1U) (E2G) (E2G) (A1G) (B2U) (B1U) (E1U) (E1U)
                 (A2U) (E2G) (E2G) (E1G)
       Virtual   (E1G) (E2U) (E2U) (A1G) (B2G) (E1U) (E1U) (E2G)
                 (E2G) (B1U) (E2G) (E2G) (E1U) (E1U) (B2U) (A2U)
                 (B1U) (A2G) (A1G) (E2G) (E2G) (E1G) (E1G) (A1G)
                 (E1U) (E1U) (E2U) (E2U) (B2G) (B1U) (E2G) (E2G)
                 (E1U) (E1U) (A2G) (A1G) (E1U) (E1U) (E2G) (E2G)
                 (E1U) (E1U) (B1U) (E2G) (E2G) (B1U)
 Initial guess <Sx>= 0.0000 <Sy>= 0.0000 <Sz>= 0.5000 <S**2>= 0.7500 S= 0.5000
 Leave Link  401 at Wed Apr 22 20:38:15 2020, MaxMem=  6710886400 cpu:               2.9 elap:               0.2
 (Enter /opt/ohpc/pub/libs/gaussian/g16-A.03/sandybridge/g16/l502.exe)
 Keep R1 and R2 ints in memory in symmetry-blocked form, NReq=19109854.
 FoFCou: FMM=F IPFlag=           0 FMFlag=           0 FMFlg1=           0
         NFxFlg=           0 DoJE=F BraDBF=F KetDBF=F FulRan=T
         wScrn=  0.000000 ICntrl=       600 IOpCl=  0 I1Cent=           0 NGrid=           0
         NMat0=    1 NMatS0=   2211 NMatT0=    0 NMatD0=    1 NMtDS0=    0 NMtDT0=    0
 Petite list used in FoFCou.
 UHF open shell SCF:
 Using DIIS extrapolation, IDIIS=    10.
 NGot=  6710886400 LenX=  6710146038 LenY=  6710141241
 Requested convergence on RMS density matrix=1.00D-06 within  32 cycles.
 Requested convergence on MAX density matrix=1.00D-04.
 Requested convergence on             energy=1.00D-04.
 Virtual orbitals will be shifted by   0.500 hartree.
 No special actions if energy rises.
 Dynamic level shift is on during FON iterations.

 Cycle   1  Pass 1  IDiag  1:
 Density matrix breaks symmetry, PCut= 1.00D-04
 Density has only Abelian symmetry.
 E= -231.645088866688    
 DIIS: error= 1.70D-02 at cycle   1 NSaved=   1.
 NSaved= 1 IEnMin= 1 EnMin= -231.645088866688     IErMin= 1 ErrMin= 1.70D-02
 ErrMax= 1.70D-02  0.00D+00 EMaxC= 1.00D+00 BMatC= 7.19D-02 BMatP= 7.19D-02
 IDIUse=1 WtCom= 1.00D+00 WtEn= 0.00D+00
 Coeff-Com:  0.100D+01
 Coeff:      0.100D+01
 Gap=     0.386 Goal=   None    Shift=    0.500
 T= 1154. Gap= 0.887 NK=0 IS=   22 IE=   66 IFin=   21
          NO(<0.9)=   0  NV(>0.1)=   0     21.00e < EF      0.00e >EF  Err=0.0D+00
 Gap=     0.198 Goal=   None    Shift=    0.500
 T= 1154. Gap= 0.698 NK=0 IS=   21 IE=   66 IFin=   20
          NO(<0.9)=   0  NV(>0.1)=   0     20.00e < EF      0.00e >EF  Err=0.0D+00
 GapD=    0.198 DampG=1.000 DampE=0.500 DampFc=0.5000 IDamp=-1.
 Damping current iteration by 5.00D-01
 RMSDP=3.29D-03 MaxDP=2.92D-02              OVMax= 3.49D-02

 Cycle   2  Pass 1  IDiag  1:
 Density matrix breaks symmetry, PCut= 1.00D-04
 Density has only Abelian symmetry.
 E= -231.656597535921     Delta-E=       -0.011508669233 Rises=F Damp=T
 DIIS: error= 9.96D-03 at cycle   2 NSaved=   2.
 NSaved= 2 IEnMin= 2 EnMin= -231.656597535921     IErMin= 2 ErrMin= 9.96D-03
 ErrMax= 9.96D-03  0.00D+00 EMaxC= 1.00D+00 BMatC= 1.75D-02 BMatP= 7.19D-02
 IDIUse=1 WtCom= 1.00D+00 WtEn= 0.00D+00
 Coeff-Com: -0.829D+00 0.183D+01
 Coeff:     -0.829D+00 0.183D+01
 Gap=     0.405 Goal=   None    Shift=    0.500
 T= 1065. Gap= 0.905 NK=0 IS=   22 IE=   66 IFin=   21
          NO(<0.9)=   0  NV(>0.1)=   0     21.00e < EF      0.00e >EF  Err=0.0D+00
 Gap=     0.222 Goal=   None    Shift=    0.500
 T= 1065. Gap= 0.722 NK=0 IS=   21 IE=   66 IFin=   20
          NO(<0.9)=   0  NV(>0.1)=   0     20.00e < EF      0.00e >EF  Err=0.0D+00
 GapD=    0.222 DampG=1.000 DampE=1.000 DampFc=1.0000 IDamp=-1.
 RMSDP=2.37D-03 MaxDP=1.65D-02 DE=-1.15D-02 OVMax= 1.69D-02

 Cycle   3  Pass 1  IDiag  1:
 Density matrix breaks symmetry, PCut= 1.00D-04
 Density has only Abelian symmetry.
 E= -231.666156132904     Delta-E=       -0.009558596983 Rises=F Damp=F
 DIIS: error= 5.47D-03 at cycle   3 NSaved=   3.
 NSaved= 3 IEnMin= 3 EnMin= -231.666156132904     IErMin= 3 ErrMin= 5.47D-03
 ErrMax= 5.47D-03  0.00D+00 EMaxC= 1.00D+00 BMatC= 7.81D-04 BMatP= 1.75D-02
 IDIUse=1 WtCom= 1.00D+00 WtEn= 0.00D+00
 Coeff-Com:  0.153D+00-0.341D+00 0.119D+01
 Coeff:      0.153D+00-0.341D+00 0.119D+01
 Gap=     0.400 Goal=   None    Shift=    0.500
 T=  883. Gap= 0.900 NK=0 IS=   22 IE=   66 IFin=   21
          NO(<0.9)=   0  NV(>0.1)=   0     21.00e < EF      0.00e >EF  Err=0.0D+00
 Gap=     0.222 Goal=   None    Shift=    0.500
 T=  883. Gap= 0.722 NK=0 IS=   21 IE=   66 IFin=   20
          NO(<0.9)=   0  NV(>0.1)=   0     20.00e < EF      0.00e >EF  Err=0.0D+00
 GapD=    0.222 DampG=1.000 DampE=1.000 DampFc=1.0000 IDamp=-1.
 RMSDP=4.10D-04 MaxDP=3.49D-03 DE=-9.56D-03 OVMax= 1.13D-02

 Cycle   4  Pass 1  IDiag  1:
 Density matrix breaks symmetry, PCut= 1.00D-04
 Density has only Abelian symmetry.
 E= -231.666748315658     Delta-E=       -0.000592182754 Rises=F Damp=F
 DIIS: error= 4.31D-03 at cycle   4 NSaved=   4.
 NSaved= 4 IEnMin= 4 EnMin= -231.666748315658     IErMin= 4 ErrMin= 4.31D-03
 ErrMax= 4.31D-03  0.00D+00 EMaxC= 1.00D+00 BMatC= 3.78D-04 BMatP= 7.81D-04
 IDIUse=1 WtCom= 1.00D+00 WtEn= 0.00D+00
 Coeff-Com:  0.125D+00-0.280D+00-0.632D+00 0.179D+01
 Coeff:      0.125D+00-0.280D+00-0.632D+00 0.179D+01
 Gap=     0.398 Goal=   None    Shift=    0.500
 T=  585. Gap= 0.898 NK=0 IS=   22 IE=   66 IFin=   21
          NO(<0.9)=   0  NV(>0.1)=   0     21.00e < EF      0.00e >EF  Err=0.0D+00
 Gap=     0.227 Goal=   None    Shift=    0.500
 T=  585. Gap= 0.727 NK=0 IS=   21 IE=   66 IFin=   20
          NO(<0.9)=   0  NV(>0.1)=   0     20.00e < EF      0.00e >EF  Err=0.0D+00
 GapD=    0.227 DampG=1.000 DampE=1.000 DampFc=1.0000 IDamp=-1.
 RMSDP=2.89D-04 MaxDP=3.61D-03 DE=-5.92D-04 OVMax= 1.17D-02

 Cycle   5  Pass 1  IDiag  1:
 Density matrix breaks symmetry, PCut= 1.00D-04
 Density has only Abelian symmetry.
 E= -231.667138670029     Delta-E=       -0.000390354371 Rises=F Damp=F
 DIIS: error= 2.66D-03 at cycle   5 NSaved=   5.
 NSaved= 5 IEnMin= 5 EnMin= -231.667138670029     IErMin= 5 ErrMin= 2.66D-03
 ErrMax= 2.66D-03  0.00D+00 EMaxC= 1.00D+00 BMatC= 1.58D-04 BMatP= 3.78D-04
 IDIUse=1 WtCom= 1.00D+00 WtEn= 0.00D+00
 Coeff-Com: -0.128D+00 0.279D+00-0.522D+00-0.101D+01 0.238D+01
 Coeff:     -0.128D+00 0.279D+00-0.522D+00-0.101D+01 0.238D+01
 Gap=     0.395 Goal=   None    Shift=    0.500
 T=  308. Gap= 0.895 NK=0 IS=   22 IE=   66 IFin=   21
          NO(<0.9)=   0  NV(>0.1)=   0     21.00e < EF      0.00e >EF  Err=0.0D+00
 Gap=     0.230 Goal=   None    Shift=    0.500
 T=  308. Gap= 0.730 NK=0 IS=   21 IE=   66 IFin=   20
          NO(<0.9)=   0  NV(>0.1)=   0     20.00e < EF      0.00e >EF  Err=0.0D+00
 GapD=    0.230 DampG=1.000 DampE=1.000 DampFc=1.0000 IDamp=-1.
 RMSDP=2.35D-04 MaxDP=3.57D-03 DE=-3.90D-04 OVMax= 1.04D-02

 Cycle   6  Pass 1  IDiag  1:
 Density matrix breaks symmetry, PCut= 1.00D-04
 Density has only Abelian symmetry.
 E= -231.667361193956     Delta-E=       -0.000222523927 Rises=F Damp=F
 DIIS: error= 1.45D-03 at cycle   6 NSaved=   6.
 NSaved= 6 IEnMin= 6 EnMin= -231.667361193956     IErMin= 6 ErrMin= 1.45D-03
 ErrMax= 1.45D-03  0.00D+00 EMaxC= 1.00D+00 BMatC= 4.45D-05 BMatP= 1.58D-04
 IDIUse=1 WtCom= 1.00D+00 WtEn= 0.00D+00
 Coeff-Com:  0.195D-01-0.391D-01 0.181D+00-0.395D-01-0.139D+01 0.227D+01
 Coeff:      0.195D-01-0.391D-01 0.181D+00-0.395D-01-0.139D+01 0.227D+01
 Gap=     0.394 Goal=   None    Shift=    0.500
 T=   74. Gap= 0.894 NK=0 IS=   22 IE=   66 IFin=   21
          NO(<0.9)=   0  NV(>0.1)=   0     21.00e < EF      0.00e >EF  Err=0.0D+00
 Gap=     0.230 Goal=   None    Shift=    0.500
 T=   74. Gap= 0.730 NK=0 IS=   21 IE=   66 IFin=   20
          NO(<0.9)=   0  NV(>0.1)=   0     20.00e < EF      0.00e >EF  Err=0.0D+00
 GapD=    0.230 DampG=1.000 DampE=1.000 DampFc=1.0000 IDamp=-1.
 RMSDP=1.28D-04 MaxDP=2.18D-03 DE=-2.23D-04 OVMax= 5.92D-03

 Cycle   7  Pass 1  IDiag  1:
 Density matrix breaks symmetry, PCut= 1.00D-04
 Density has only Abelian symmetry.
 E= -231.667427458388     Delta-E=       -0.000066264432 Rises=F Damp=F
 DIIS: error= 7.53D-04 at cycle   7 NSaved=   7.
 NSaved= 7 IEnMin= 7 EnMin= -231.667427458388     IErMin= 7 ErrMin= 7.53D-04
 ErrMax= 7.53D-04  0.00D+00 EMaxC= 1.00D+00 BMatC= 1.24D-05 BMatP= 4.45D-05
 IDIUse=1 WtCom= 1.00D+00 WtEn= 0.00D+00
 Coeff-Com: -0.238D-01 0.489D-01-0.189D+00-0.407D-01 0.153D+01-0.396D+01
 Coeff-Com:  0.363D+01
 Coeff:     -0.238D-01 0.489D-01-0.189D+00-0.407D-01 0.153D+01-0.396D+01
 Coeff:      0.363D+01
 Gap=     0.394 Goal=   None    Shift=    0.500
 Gap=     0.230 Goal=   None    Shift=    0.500
 RMSDP=6.57D-05 MaxDP=1.12D-03 DE=-6.63D-05 OVMax= 3.17D-03

 Cycle   8  Pass 1  IDiag  1:
 Density matrix breaks symmetry, PCut= 1.00D-04
 Density has only Abelian symmetry.
 E= -231.667445134299     Delta-E=       -0.000017675911 Rises=F Damp=F
 DIIS: error= 3.83D-04 at cycle   8 NSaved=   8.
 NSaved= 8 IEnMin= 8 EnMin= -231.667445134299     IErMin= 8 ErrMin= 3.83D-04
 ErrMax= 3.83D-04  0.00D+00 EMaxC= 1.00D+00 BMatC= 3.13D-06 BMatP= 1.24D-05
 IDIUse=1 WtCom= 1.00D+00 WtEn= 0.00D+00
 Coeff-Com:  0.594D-02-0.107D-01 0.439D-01-0.244D-01-0.438D+00 0.162D+01
 Coeff-Com: -0.315D+01 0.295D+01
 Coeff:      0.594D-02-0.107D-01 0.439D-01-0.244D-01-0.438D+00 0.162D+01
 Coeff:     -0.315D+01 0.295D+01
 Gap=     0.394 Goal=   None    Shift=    0.500
 Gap=     0.230 Goal=   None    Shift=    0.500
 RMSDP=3.16D-05 MaxDP=5.07D-04 DE=-1.77D-05 OVMax= 1.61D-03

 Cycle   9  Pass 1  IDiag  1:
 Density matrix breaks symmetry, PCut= 1.00D-04
 Density has only Abelian symmetry.
 E= -231.667449370830     Delta-E=       -0.000004236531 Rises=F Damp=F
 DIIS: error= 1.88D-04 at cycle   9 NSaved=   9.
 NSaved= 9 IEnMin= 9 EnMin= -231.667449370830     IErMin= 9 ErrMin= 1.88D-04
 ErrMax= 1.88D-04  0.00D+00 EMaxC= 1.00D+00 BMatC= 7.09D-07 BMatP= 3.13D-06
 IDIUse=1 WtCom= 1.00D+00 WtEn= 0.00D+00
 Coeff-Com: -0.463D-02 0.886D-02-0.283D-01-0.190D-02 0.284D+00-0.994D+00
 Coeff-Com:  0.197D+01-0.321D+01 0.298D+01
 Coeff:     -0.463D-02 0.886D-02-0.283D-01-0.190D-02 0.284D+00-0.994D+00
 Coeff:      0.197D+01-0.321D+01 0.298D+01
 Gap=     0.394 Goal=   None    Shift=    0.500
 Gap=     0.230 Goal=   None    Shift=    0.500
 RMSDP=1.47D-05 MaxDP=2.36D-04 DE=-4.24D-06 OVMax= 7.83D-04

 Cycle  10  Pass 1  IDiag  1:
 Density matrix breaks symmetry, PCut= 1.00D-04
 Density has only Abelian symmetry.
 E= -231.667450322537     Delta-E=       -0.000000951706 Rises=F Damp=F
 DIIS: error= 9.26D-05 at cycle  10 NSaved=  10.
 NSaved=10 IEnMin=10 EnMin= -231.667450322537     IErMin=10 ErrMin= 9.26D-05
 ErrMax= 9.26D-05  0.00D+00 EMaxC= 1.00D+00 BMatC= 1.56D-07 BMatP= 7.09D-07
 IDIUse=1 WtCom= 1.00D+00 WtEn= 0.00D+00
 Coeff-Com:  0.191D-02-0.347D-02 0.106D-01-0.601D-02-0.995D-01 0.395D+00
 Coeff-Com: -0.879D+00 0.161D+01-0.280D+01 0.277D+01
 Coeff:      0.191D-02-0.347D-02 0.106D-01-0.601D-02-0.995D-01 0.395D+00
 Coeff:     -0.879D+00 0.161D+01-0.280D+01 0.277D+01
 Gap=     0.394 Goal=   None    Shift=    0.500
 Gap=     0.230 Goal=   None    Shift=    0.500
 RMSDP=6.81D-06 MaxDP=1.11D-04 DE=-9.52D-07 OVMax= 3.78D-04

 Cycle  11  Pass 1  IDiag  1:
 Density matrix breaks symmetry, PCut= 1.00D-04
 Density has only Abelian symmetry.
 E= -231.667450530782     Delta-E=       -0.000000208245 Rises=F Damp=F
 DIIS: error= 4.52D-05 at cycle  11 NSaved=  11.
 NSaved=11 IEnMin=11 EnMin= -231.667450530782     IErMin=11 ErrMin= 4.52D-05
 ErrMax= 4.52D-05  0.00D+00 EMaxC= 1.00D+00 BMatC= 3.37D-08 BMatP= 1.56D-07
 IDIUse=1 WtCom= 1.00D+00 WtEn= 0.00D+00
 Coeff-Com: -0.545D-03 0.102D-02-0.252D-02 0.573D-03 0.196D-01-0.760D-01
 Coeff-Com:  0.178D+00-0.415D+00 0.974D+00-0.222D+01 0.255D+01
 Coeff:     -0.545D-03 0.102D-02-0.252D-02 0.573D-03 0.196D-01-0.760D-01
 Coeff:      0.178D+00-0.415D+00 0.974D+00-0.222D+01 0.255D+01
 Gap=     0.394 Goal=   None    Shift=    0.500
 Gap=     0.230 Goal=   None    Shift=    0.500
 RMSDP=3.14D-06 MaxDP=5.11D-05 DE=-2.08D-07 OVMax= 1.81D-04

 Cycle  12  Pass 1  IDiag  1:
 Density matrix breaks symmetry, PCut= 1.00D-04
 Density has only Abelian symmetry.
 E= -231.667450575817     Delta-E=       -0.000000045035 Rises=F Damp=F
 DIIS: error= 2.24D-05 at cycle  12 NSaved=  12.
 NSaved=12 IEnMin=12 EnMin= -231.667450575817     IErMin=12 ErrMin= 2.24D-05
 ErrMax= 2.24D-05  0.00D+00 EMaxC= 1.00D+00 BMatC= 7.43D-09 BMatP= 3.37D-08
 IDIUse=1 WtCom= 1.00D+00 WtEn= 0.00D+00
 Coeff-Com: -0.186D-03 0.383D-03-0.124D-02-0.936D-03 0.163D-01-0.538D-01
 Coeff-Com:  0.109D+00-0.166D+00 0.125D+00 0.487D+00-0.231D+01 0.279D+01
 Coeff:     -0.186D-03 0.383D-03-0.124D-02-0.936D-03 0.163D-01-0.538D-01
 Coeff:      0.109D+00-0.166D+00 0.125D+00 0.487D+00-0.231D+01 0.279D+01
 Gap=     0.394 Goal=   None    Shift=    0.500
 Gap=     0.230 Goal=   None    Shift=    0.500
 RMSDP=1.44D-06 MaxDP=2.35D-05 DE=-4.50D-08 OVMax= 8.79D-05

 Cycle  13  Pass 1  IDiag  1:
 Density matrix breaks symmetry, PCut= 1.00D-04
 Density has only Abelian symmetry.
 E= -231.667450585682     Delta-E=       -0.000000009866 Rises=F Damp=F
 DIIS: error= 1.09D-05 at cycle  13 NSaved=  13.
 NSaved=13 IEnMin=13 EnMin= -231.667450585682     IErMin=13 ErrMin= 1.09D-05
 ErrMax= 1.09D-05  0.00D+00 EMaxC= 1.00D+00 BMatC= 1.64D-09 BMatP= 7.43D-09
 IDIUse=1 WtCom= 1.00D+00 WtEn= 0.00D+00
 Coeff-Com:  0.117D-03-0.231D-03 0.741D-03 0.358D-04-0.792D-02 0.272D-01
 Coeff-Com: -0.545D-01 0.836D-01-0.732D-01-0.207D+00 0.126D+01-0.313D+01
 Coeff-Com:  0.310D+01
 Coeff:      0.117D-03-0.231D-03 0.741D-03 0.358D-04-0.792D-02 0.272D-01
 Coeff:     -0.545D-01 0.836D-01-0.732D-01-0.207D+00 0.126D+01-0.313D+01
 Coeff:      0.310D+01
 Gap=     0.394 Goal=   None    Shift=    0.500
 Gap=     0.230 Goal=   None    Shift=    0.500
 RMSDP=6.59D-07 MaxDP=1.08D-05 DE=-9.87D-09 OVMax= 4.24D-05

 Density matrix breaks symmetry, PCut= 1.00D-04
 Density has only Abelian symmetry.
 SCF Done:  E(ULC-wHPBE) =  -231.667450586     A.U. after   13 cycles
            NFock= 13  Conv=0.66D-06     -V/T= 2.0046
 <Sx>= 0.0000 <Sy>= 0.0000 <Sz>= 0.5000 <S**2>= 0.7762 S= 0.5130
 <L.S>= 0.000000000000E+00
 KE= 2.305960463154D+02 PE=-9.349004103786D+02 EE= 2.690929153855D+02
 Annihilation of the first spin contaminant:
 S**2 before annihilation     0.7762,   after     0.7503
 Leave Link  502 at Wed Apr 22 20:38:16 2020, MaxMem=  6710886400 cpu:              17.2 elap:               1.1
 (Enter /opt/ohpc/pub/libs/gaussian/g16-A.03/sandybridge/g16/l508.exe)
 QCSCF skips out because SCF is already converged.
 Leave Link  508 at Wed Apr 22 20:38:16 2020, MaxMem=  6710886400 cpu:               0.3 elap:               0.0
 (Enter /opt/ohpc/pub/libs/gaussian/g16-A.03/sandybridge/g16/l601.exe)
 Copying SCF densities to generalized density rwf, IOpCl= 1 IROHF=0.
 SCF density gives NOpUse=  8 NOpAll= 24.
 Marking SCF density as not fully symmetric.

 **********************************************************************

            Population analysis using the SCF density.

 **********************************************************************

 Orbital symmetries:
 Alpha Orbitals:
       Occupied  (?A) (?A) (?A) (?A) (?A) (?A) (?B) (?B) (?B) (?B)
                 (?B) (?B) (?B) (?B) (?B) (?B) (?C) (?B) (?B) (?C)
                 (?C)
       Virtual   (?C) (?C) (?B) (?C) (?B) (?B) (?B) (?B) (?B) (?B)
                 (?B) (?B) (?B) (?B) (?C) (?B) (?B) (?B) (?C) (?C)
                 (?B) (?B) (?B) (?C) (?B) (?B) (?C) (?C) (?B) (?B)
                 (?B) (?B) (?B) (?B) (?B) (?B) (?B) (?B) (?B) (?B)
                 (?B) (?B) (?B) (?B) (?B)
 Beta  Orbitals:
       Occupied  (?A) (?A) (?A) (?A) (?A) (?A) (?B) (B2G) (B2G)
                 (?B) (?B) (?B) (B2G) (B2G) (B2G) (B2G) (?C) (?B)
                 (?B) (?D)
       Virtual   (?D) (?C) (?C) (?D) (?D) (B2G) (B2G) (?D) (?D)
                 (B2G) (?D) (?D) (B2G) (B2G) (B2G) (?C) (B2G) (?D)
                 (?D) (?D) (?D) (?D) (?D) (?D) (B2G) (B2G) (?C)
                 (?C) (?D) (B2G) (?A) (?A) (B2G) (B2G) (?A) (?D)
                 (B2G) (B2G) (?D) (?D) (B2G) (B2G) (B2G) (E2G)
                 (E2G) (B1U)
 Unable to determine electronic state:  an orbital has unidentified symmetry.
 Alpha  occ. eigenvalues --  -10.33281 -10.33278 -10.33255 -10.33250 -10.29469
 Alpha  occ. eigenvalues --  -10.29465  -1.21729  -1.11177  -1.08525  -0.94317
 Alpha  occ. eigenvalues --   -0.94315  -0.85973  -0.79111  -0.77929  -0.76051
 Alpha  occ. eigenvalues --   -0.73956  -0.72980  -0.66495  -0.66185  -0.61294
 Alpha  occ. eigenvalues --   -0.57276
 Alpha virt. eigenvalues --   -0.17859  -0.14360  -0.00804   0.01795   0.04368
 Alpha virt. eigenvalues --    0.05498   0.07913   0.09001   0.10445   0.17973
 Alpha virt. eigenvalues --    0.18466   0.19251   0.19820   0.37930   0.38765
 Alpha virt. eigenvalues --    0.41244   0.43653   0.44032   0.46880   0.49148
 Alpha virt. eigenvalues --    0.49423   0.49947   0.52786   0.53315   0.53904
 Alpha virt. eigenvalues --    0.54367   0.55337   0.62586   0.72605   0.73949
 Alpha virt. eigenvalues --    0.75347   0.78320   0.80018   0.85697   0.86099
 Alpha virt. eigenvalues --    0.88279   0.88300   1.00309   1.01909   1.06292
 Alpha virt. eigenvalues --    1.07252   1.11566   1.33750   1.34008   1.79190
  Beta  occ. eigenvalues --  -10.32810 -10.32810 -10.32789 -10.32784 -10.29670
  Beta  occ. eigenvalues --  -10.29667  -1.20576  -1.08867  -1.08324  -0.93781
  Beta  occ. eigenvalues --   -0.93355  -0.85666  -0.78637  -0.77481  -0.75508
  Beta  occ. eigenvalues --   -0.73972  -0.67977  -0.66277  -0.65895  -0.57131
  Beta virt. eigenvalues --   -0.34082  -0.12543  -0.12482  -0.00612   0.04097
  Beta virt. eigenvalues --    0.04638   0.05550   0.08711   0.09147   0.10757
  Beta virt. eigenvalues --    0.18583   0.18665   0.19737   0.20187   0.38274
  Beta virt. eigenvalues --    0.40318   0.42318   0.44111   0.44398   0.49517
  Beta virt. eigenvalues --    0.49538   0.50103   0.50519   0.53111   0.54647
  Beta virt. eigenvalues --    0.55106   0.55445   0.55681   0.63544   0.72914
  Beta virt. eigenvalues --    0.74308   0.75430   0.78968   0.80035   0.85929
  Beta virt. eigenvalues --    0.86328   0.88569   0.89271   1.01630   1.02202
  Beta virt. eigenvalues --    1.07168   1.07360   1.12063   1.34277   1.34819
  Beta virt. eigenvalues --    1.79961
          Condensed to atoms (all electrons):
               1          2          3          4          5          6
     1  C    4.912524   0.521461  -0.063643  -0.022930  -0.063643   0.521461
     2  C    0.521461   4.965585   0.412477  -0.063643  -0.023726  -0.049532
     3  C   -0.063643   0.412477   4.965585   0.521461  -0.049532  -0.023726
     4  C   -0.022930  -0.063643   0.521461   4.912524   0.521461  -0.063643
     5  C   -0.063643  -0.023726  -0.049532   0.521461   4.965585   0.412477
     6  C    0.521461  -0.049532  -0.023726  -0.063643   0.412477   4.965585
     7  H    0.371551  -0.024056   0.003250   0.000064   0.003250  -0.024056
     8  H   -0.020330   0.365823  -0.028229   0.002989   0.000062   0.003160
     9  H    0.002989  -0.028229   0.365823  -0.020330   0.003160   0.000062
    10  H    0.000064   0.003250  -0.024056   0.371551  -0.024056   0.003250
    11  H    0.002989   0.000062   0.003160  -0.020330   0.365823  -0.028229
    12  H   -0.020330   0.003160   0.000062   0.002989  -0.028229   0.365823
               7          8          9         10         11         12
     1  C    0.371551  -0.020330   0.002989   0.000064   0.002989  -0.020330
     2  C   -0.024056   0.365823  -0.028229   0.003250   0.000062   0.003160
     3  C    0.003250  -0.028229   0.365823  -0.024056   0.003160   0.000062
     4  C    0.000064   0.002989  -0.020330   0.371551  -0.020330   0.002989
     5  C    0.003250   0.000062   0.003160  -0.024056   0.365823  -0.028229
     6  C   -0.024056   0.003160   0.000062   0.003250  -0.028229   0.365823
     7  H    0.416872  -0.002595  -0.000071   0.000002  -0.000071  -0.002595
     8  H   -0.002595   0.407062  -0.002294  -0.000071   0.000004  -0.000067
     9  H   -0.000071  -0.002294   0.407062  -0.002595  -0.000067   0.000004
    10  H    0.000002  -0.000071  -0.002595   0.416872  -0.002595  -0.000071
    11  H   -0.000071   0.000004  -0.000067  -0.002595   0.407062  -0.002294
    12  H   -0.002595  -0.000067   0.000004  -0.000071  -0.002294   0.407062
          Atomic-Atomic Spin Densities.
               1          2          3          4          5          6
     1  C   -0.183583  -0.007020  -0.007537   0.005929  -0.007537  -0.007020
     2  C   -0.007020   0.356033   0.040386  -0.007537  -0.007265  -0.006002
     3  C   -0.007537   0.040386   0.356033  -0.007020  -0.006002  -0.007265
     4  C    0.005929  -0.007537  -0.007020  -0.183583  -0.007020  -0.007537
     5  C   -0.007537  -0.007265  -0.006002  -0.007020   0.356033   0.040386
     6  C   -0.007020  -0.006002  -0.007265  -0.007537   0.040386   0.356033
     7  H    0.001537  -0.000933   0.000151  -0.000052   0.000151  -0.000933
     8  H    0.000061   0.000377  -0.001802  -0.000009  -0.000055   0.000083
     9  H   -0.000009  -0.001802   0.000377   0.000061   0.000083  -0.000055
    10  H   -0.000052   0.000151  -0.000933   0.001537  -0.000933   0.000151
    11  H   -0.000009  -0.000055   0.000083   0.000061   0.000377  -0.001802
    12  H    0.000061   0.000083  -0.000055  -0.000009  -0.001802   0.000377
               7          8          9         10         11         12
     1  C    0.001537   0.000061  -0.000009  -0.000052  -0.000009   0.000061
     2  C   -0.000933   0.000377  -0.001802   0.000151  -0.000055   0.000083
     3  C    0.000151  -0.001802   0.000377  -0.000933   0.000083  -0.000055
     4  C   -0.000052  -0.000009   0.000061   0.001537   0.000061  -0.000009
     5  C    0.000151  -0.000055   0.000083  -0.000933   0.000377  -0.001802
     6  C   -0.000933   0.000083  -0.000055   0.000151  -0.001802   0.000377
     7  H    0.005103  -0.000003   0.000004  -0.000001   0.000004  -0.000003
     8  H   -0.000003  -0.014952  -0.000048   0.000004  -0.000000   0.000005
     9  H    0.000004  -0.000048  -0.014952  -0.000003   0.000005  -0.000000
    10  H   -0.000001   0.000004  -0.000003   0.005103  -0.000003   0.000004
    11  H    0.000004  -0.000000   0.000005  -0.000003  -0.014952  -0.000048
    12  H   -0.000003   0.000005  -0.000000   0.000004  -0.000048  -0.014952
 Mulliken charges and spin densities:
               1          2
     1  C   -0.142162  -0.205178
     2  C   -0.082631   0.366416
     3  C   -0.082631   0.366416
     4  C   -0.142162  -0.205178
     5  C   -0.082631   0.366416
     6  C   -0.082631   0.366416
     7  H    0.258454   0.005024
     8  H    0.274485  -0.016340
     9  H    0.274485  -0.016340
    10  H    0.258454   0.005024
    11  H    0.274485  -0.016340
    12  H    0.274485  -0.016340
 Sum of Mulliken charges =   1.00000   1.00000
 Mulliken charges and spin densities with hydrogens summed into heavy atoms:
               1          2
     1  C    0.116292  -0.200154
     2  C    0.191854   0.350077
     3  C    0.191854   0.350077
     4  C    0.116292  -0.200154
     5  C    0.191854   0.350077
     6  C    0.191854   0.350077
 Electronic spatial extent (au):  <R**2>=            437.1386
 Charge=              1.0000 electrons
 Dipole moment (field-independent basis, Debye):
    X=             -0.0000    Y=              0.0000    Z=             -0.0000  Tot=              0.0000
 Quadrupole moment (field-independent basis, Debye-Ang):
   XX=            -18.0163   YY=            -21.6897   ZZ=            -35.0166
   XY=             -0.0000   XZ=              0.0000   YZ=              0.0000
 Traceless Quadrupole moment (field-independent basis, Debye-Ang):
   XX=              6.8912   YY=              3.2179   ZZ=            -10.1091
   XY=             -0.0000   XZ=              0.0000   YZ=              0.0000
 Octapole moment (field-independent basis, Debye-Ang**2):
  XXX=              0.0000  YYY=              0.0000  ZZZ=              0.0000  XYY=             -0.0000
  XXY=             -0.0000  XXZ=              0.0000  XZZ=             -0.0000  YZZ=              0.0000
  YYZ=              0.0000  XYZ=              0.0000
 Hexadecapole moment (field-independent basis, Debye-Ang**3):
 XXXX=           -195.6128 YYYY=           -210.0010 ZZZZ=            -34.1320 XXXY=              0.0000
 XXXZ=              0.0000 YYYX=              0.0000 YYYZ=              0.0000 ZZZX=             -0.0000
 ZZZY=             -0.0000 XXYY=            -66.0815 XXZZ=            -51.9776 YYZZ=            -55.2860
 XXYZ=              0.0000 YYXZ=              0.0000 ZZXY=              0.0000
 N-N= 2.035439980921D+02 E-N=-9.349004120873D+02  KE= 2.305960463154D+02
 Symmetry AG   KE= 7.451987149086D+01
 Symmetry B1G  KE= 3.776557640405D+01
 Symmetry B2G  KE= 1.197545570622D+00
 Symmetry B3G  KE= 2.342580997844D+00
 Symmetry AU   KE=-1.450520708229D-16
 Symmetry B1U  KE= 1.958172120250D+00
 Symmetry B2U  KE= 7.220158749075D+01
 Symmetry B3U  KE= 4.061071224101D+01
 Symmetry AG   SP=-1.647498055948D-14
 Symmetry B1G  SP=-1.226229861872D-14
 Symmetry B2G  SP= 1.000000000000D+00
 Symmetry B3G  SP=-8.998878031630D-17
 Symmetry AU   SP=-1.680800290164D-17
 Symmetry B1U  SP= 8.973399280576D-16
 Symmetry B2U  SP= 2.453927970656D-14
 Symmetry B3U  SP= 3.880739046086D-15
                          Isotropic Fermi Contact Couplings
        Atom                 a.u.       MegaHertz       Gauss      10(-4) cm-1
     1  C(13)             -0.03161     -35.53819     -12.68091     -11.85427
     2  C(13)              0.04324      48.61310      17.34636      16.21559
     3  C(13)              0.04324      48.61310      17.34636      16.21559
     4  C(13)             -0.03161     -35.53819     -12.68091     -11.85427
     5  C(13)              0.04324      48.61310      17.34636      16.21559
     6  C(13)              0.04324      48.61310      17.34636      16.21559
     7  H(1)               0.00196       8.76739       3.12842       2.92449
     8  H(1)              -0.00638     -28.50037     -10.16964      -9.50670
     9  H(1)              -0.00638     -28.50037     -10.16964      -9.50670
    10  H(1)               0.00196       8.76739       3.12842       2.92449
    11  H(1)              -0.00638     -28.50037     -10.16964      -9.50670
    12  H(1)              -0.00638     -28.50037     -10.16964      -9.50670
 --------------------------------------------------------
       Center         ----  Spin Dipole Couplings  ----
                      3XX-RR        3YY-RR        3ZZ-RR
 --------------------------------------------------------
     1   Atom        0.070274      0.062483     -0.132757
     2   Atom       -0.187766     -0.180359      0.368125
     3   Atom       -0.187766     -0.180359      0.368125
     4   Atom        0.070274      0.062483     -0.132757
     5   Atom       -0.187766     -0.180359      0.368125
     6   Atom       -0.187766     -0.180359      0.368125
     7   Atom        0.006435     -0.000811     -0.005625
     8   Atom        0.011240     -0.003672     -0.007568
     9   Atom        0.011240     -0.003672     -0.007568
    10   Atom        0.006435     -0.000811     -0.005625
    11   Atom        0.011240     -0.003672     -0.007568
    12   Atom        0.011240     -0.003672     -0.007568
 --------------------------------------------------------
                        XY            XZ            YZ
 --------------------------------------------------------
     1   Atom        0.000000      0.000000      0.000000
     2   Atom       -0.004846     -0.000000     -0.000000
     3   Atom        0.004846     -0.000000      0.000000
     4   Atom       -0.000000      0.000000     -0.000000
     5   Atom       -0.004846      0.000000      0.000000
     6   Atom        0.004846      0.000000     -0.000000
     7   Atom        0.000000     -0.000000     -0.000000
     8   Atom       -0.028415     -0.000000      0.000000
     9   Atom        0.028415     -0.000000     -0.000000
    10   Atom       -0.000000     -0.000000      0.000000
    11   Atom       -0.028415      0.000000     -0.000000
    12   Atom        0.028415      0.000000      0.000000
 --------------------------------------------------------


 ---------------------------------------------------------------------------------
              Anisotropic Spin Dipole Couplings in Principal Axis System
 ---------------------------------------------------------------------------------

       Atom             a.u.   MegaHertz   Gauss  10(-4) cm-1        Axes

              Baa    -0.1328   -17.815    -6.357    -5.942  0.0000  0.0000  1.0000
     1 C(13)  Bbb     0.0625     8.385     2.992     2.797 -0.0000  1.0000 -0.0000
              Bcc     0.0703     9.430     3.365     3.146  1.0000  0.0000 -0.0000
 
              Baa    -0.1902   -25.518    -9.105    -8.512  0.8964  0.4432 -0.0000
     2 C(13)  Bbb    -0.1780   -23.881    -8.521    -7.966 -0.4432  0.8964 -0.0000
              Bcc     0.3681    49.399    17.627    16.478  0.0000  0.0000  1.0000
 
              Baa    -0.1902   -25.518    -9.105    -8.512  0.8964 -0.4432  0.0000
     3 C(13)  Bbb    -0.1780   -23.881    -8.521    -7.966  0.4432  0.8964 -0.0000
              Bcc     0.3681    49.399    17.627    16.478  0.0000  0.0000  1.0000
 
              Baa    -0.1328   -17.815    -6.357    -5.942  0.0000  0.0000  1.0000
     4 C(13)  Bbb     0.0625     8.385     2.992     2.797  0.0000  1.0000  0.0000
              Bcc     0.0703     9.430     3.365     3.146  1.0000 -0.0000  0.0000
 
              Baa    -0.1902   -25.518    -9.105    -8.512  0.8964  0.4432 -0.0000
     5 C(13)  Bbb    -0.1780   -23.881    -8.521    -7.966 -0.4432  0.8964 -0.0000
              Bcc     0.3681    49.399    17.627    16.478  0.0000  0.0000  1.0000
 
              Baa    -0.1902   -25.518    -9.105    -8.512  0.8964 -0.4432  0.0000
     6 C(13)  Bbb    -0.1780   -23.881    -8.521    -7.966  0.4432  0.8964 -0.0000
              Bcc     0.3681    49.399    17.627    16.478  0.0000  0.0000  1.0000
 
              Baa    -0.0056    -3.001    -1.071    -1.001  0.0000  0.0000  1.0000
     7 H(1)   Bbb    -0.0008    -0.432    -0.154    -0.144 -0.0000  1.0000 -0.0000
              Bcc     0.0064     3.434     1.225     1.145  1.0000  0.0000 -0.0000
 
              Baa    -0.0256   -13.655    -4.873    -4.555  0.6108  0.7918  0.0000
     8 H(1)   Bbb    -0.0076    -4.038    -1.441    -1.347  0.0000  0.0000  1.0000
              Bcc     0.0332    17.693     6.313     5.902  0.7918 -0.6108  0.0000
 
              Baa    -0.0256   -13.655    -4.873    -4.555 -0.6108  0.7918  0.0000
     9 H(1)   Bbb    -0.0076    -4.038    -1.441    -1.347  0.0000  0.0000  1.0000
              Bcc     0.0332    17.693     6.313     5.902  0.7918  0.6108 -0.0000
 
              Baa    -0.0056    -3.001    -1.071    -1.001  0.0000  0.0000  1.0000
    10 H(1)   Bbb    -0.0008    -0.432    -0.154    -0.144  0.0000  1.0000  0.0000
              Bcc     0.0064     3.434     1.225     1.145  1.0000 -0.0000  0.0000
 
              Baa    -0.0256   -13.655    -4.873    -4.555  0.6108  0.7918  0.0000
    11 H(1)   Bbb    -0.0076    -4.038    -1.441    -1.347  0.0000  0.0000  1.0000
              Bcc     0.0332    17.693     6.313     5.902  0.7918 -0.6108  0.0000
 
              Baa    -0.0256   -13.655    -4.873    -4.555 -0.6108  0.7918  0.0000
    12 H(1)   Bbb    -0.0076    -4.038    -1.441    -1.347  0.0000  0.0000  1.0000
              Bcc     0.0332    17.693     6.313     5.902  0.7918  0.6108 -0.0000
 

 ---------------------------------------------------------------------------------

 No NMR shielding tensors so no spin-rotation constants.
 Leave Link  601 at Wed Apr 22 20:38:17 2020, MaxMem=  6710886400 cpu:               4.2 elap:               0.3
 (Enter /opt/ohpc/pub/libs/gaussian/g16-A.03/sandybridge/g16/l9999.exe)

 Test job not archived.
 1\1\GINC-CNODE130\SP\ULC-wHPBE\6-31G\C6H6(1+,2)\QAI222\22-Apr-2020\0\\
 #P uLC-wHPBE/6-31G iop(3/107=0315400000, 3/108=0315400000) scf=(conver
 =6,fermi,ndamp=35,noincfock,novaracc,vshift=500,xqc)\\H6 C6\\1,2\C,0,0
 .,1.39316,0.\C,0,-1.206512,0.69658,0.\C,0,-1.206512,-0.69658,0.\C,0,0.
 ,-1.39316,0.\C,0,1.206512,-0.69658,0.\C,0,1.206512,0.69658,0.\H,0,0.,2
 .482681,0.\H,0,-2.150065,1.24134,0.\H,0,-2.150065,-1.24134,0.\H,0,0.,-
 2.482681,0.\H,0,2.150065,-1.24134,0.\H,0,2.150065,1.24134,0.\\Version=
 EM64L-G16RevA.03\HF=-231.6674506\S2=0.776242\S2-1=0.\S2A=0.750331\RMSD
 =6.587e-07\Dipole=0.,0.,0.\Quadrupole=5.1234388,2.392419,-7.5158578,0.
 ,0.,0.\PG=D06H [3C2'(H1C1.C1H1)]\\@


 THERE'S NOTHING WRONG WITH FOLLOWING A TRAIN OF THOUGHT...
 AS LONG AS IT ULTIMATELY PULLS INTO THE STATION.
 Job cpu time:       0 days  0 hours  0 minutes 40.7 seconds.
 Elapsed time:       0 days  0 hours  0 minutes  2.8 seconds.
 File lengths (MBytes):  RWF=    272 Int=      0 D2E=      0 Chk=     32 Scr=     32
 Normal termination of Gaussian 16 at Wed Apr 22 20:38:17 2020.
