 Entering Gaussian System, Link 0=g16
 Input=1b_tune_c3.gjf
 Output=1b_tune_c3.log
 Initial command:
 /opt/ohpc/pub/libs/gaussian/g16-A.03/sandybridge/g16/l1.exe "/scratch/qai222/ocelot_api/tests/wtuning_test/1b/tuning_1b_ocycle0/Gau-111653.inp" -scrdir="/scratch/qai222/ocelot_api/tests/wtuning_test/1b/tuning_1b_ocycle0/"
 Entering Link 1 = /opt/ohpc/pub/libs/gaussian/g16-A.03/sandybridge/g16/l1.exe PID=    111654.
  
 Copyright (c) 1988,1990,1992,1993,1995,1998,2003,2009,2016,
            Gaussian, Inc.  All Rights Reserved.
  
 This is part of the Gaussian(R) 16 program.  It is based on
 the Gaussian(R) 09 system (copyright 2009, Gaussian, Inc.),
 the Gaussian(R) 03 system (copyright 2003, Gaussian, Inc.),
 the Gaussian(R) 98 system (copyright 1998, Gaussian, Inc.),
 the Gaussian(R) 94 system (copyright 1995, Gaussian, Inc.),
 the Gaussian 92(TM) system (copyright 1992, Gaussian, Inc.),
 the Gaussian 90(TM) system (copyright 1990, Gaussian, Inc.),
 the Gaussian 88(TM) system (copyright 1988, Gaussian, Inc.),
 the Gaussian 86(TM) system (copyright 1986, Carnegie Mellon
 University), and the Gaussian 82(TM) system (copyright 1983,
 Carnegie Mellon University). Gaussian is a federally registered
 trademark of Gaussian, Inc.
  
 This software contains proprietary and confidential information,
 including trade secrets, belonging to Gaussian, Inc.
  
 This software is provided under written license and may be
 used, copied, transmitted, or stored only in accord with that
 written license.
  
 The following legend is applicable only to US Government
 contracts under FAR:
  
                    RESTRICTED RIGHTS LEGEND
  
 Use, reproduction and disclosure by the US Government is
 subject to restrictions as set forth in subparagraphs (a)
 and (c) of the Commercial Computer Software - Restricted
 Rights clause in FAR 52.227-19.
  
 Gaussian, Inc.
 340 Quinnipiac St., Bldg. 40, Wallingford CT 06492
  
  
 ---------------------------------------------------------------
 Warning -- This program may not be used in any manner that
 competes with the business of Gaussian, Inc. or will provide
 assistance to any competitor of Gaussian, Inc.  The licensee
 of this program is prohibited from giving any competitor of
 Gaussian, Inc. access to this program.  By using this program,
 the user acknowledges that Gaussian, Inc. is engaged in the
 business of creating and licensing software in the field of
 computational chemistry and represents and warrants to the
 licensee that it is not a competitor of Gaussian, Inc. and that
 it will not use this program in any manner prohibited above.
 ---------------------------------------------------------------
  

 Cite this work as:
 Gaussian 16, Revision A.03,
 M. J. Frisch, G. W. Trucks, H. B. Schlegel, G. E. Scuseria, 
 M. A. Robb, J. R. Cheeseman, G. Scalmani, V. Barone, 
 G. A. Petersson, H. Nakatsuji, X. Li, M. Caricato, A. V. Marenich, 
 J. Bloino, B. G. Janesko, R. Gomperts, B. Mennucci, H. P. Hratchian, 
 J. V. Ortiz, A. F. Izmaylov, J. L. Sonnenberg, D. Williams-Young, 
 F. Ding, F. Lipparini, F. Egidi, J. Goings, B. Peng, A. Petrone, 
 T. Henderson, D. Ranasinghe, V. G. Zakrzewski, J. Gao, N. Rega, 
 G. Zheng, W. Liang, M. Hada, M. Ehara, K. Toyota, R. Fukuda, 
 J. Hasegawa, M. Ishida, T. Nakajima, Y. Honda, O. Kitao, H. Nakai, 
 T. Vreven, K. Throssell, J. A. Montgomery, Jr., J. E. Peralta, 
 F. Ogliaro, M. J. Bearpark, J. J. Heyd, E. N. Brothers, K. N. Kudin, 
 V. N. Staroverov, T. A. Keith, R. Kobayashi, J. Normand, 
 K. Raghavachari, A. P. Rendell, J. C. Burant, S. S. Iyengar, 
 J. Tomasi, M. Cossi, J. M. Millam, M. Klene, C. Adamo, R. Cammi, 
 J. W. Ochterski, R. L. Martin, K. Morokuma, O. Farkas, 
 J. B. Foresman, and D. J. Fox, Gaussian, Inc., Wallingford CT, 2016.
 
 ******************************************
 Gaussian 16:  EM64L-G16RevA.03 25-Dec-2016
                22-Apr-2020 
 ******************************************
 %mem=50GB
 %nproc=16
 Will use up to   16 processors via shared memory.
 ----------------------------------------------------------------------
 #P uLC-wHPBE/6-31G iop(3/107=0321900000, 3/108=0321900000) scf=(conver
 =6,fermi,ndamp=35,noincfock,novaracc,vshift=500,xqc)
 ----------------------------------------------------------------------
 1/38=1,172=1/1;
 2/12=2,17=6,18=5,40=1/2;
 3/5=1,6=6,11=2,25=1,30=1,74=-71,107=321900000,108=321900000,116=2/1,2,3;
 4//1;
 5/5=100002,6=6,8=3,10=500,13=1,18=-1,22=13,38=1,93=35/2,8;
 6/7=2,8=2,9=2,10=2,28=1/1;
 99/5=1,9=1/99;
 Leave Link    1 at Wed Apr 22 16:20:36 2020, MaxMem=  6710886400 cpu:              10.1 elap:               0.7
 (Enter /opt/ohpc/pub/libs/gaussian/g16-A.03/sandybridge/g16/l101.exe)
 -----
 H6 C6
 -----
 Symbolic Z-matrix:
 Charge =  1 Multiplicity = 2
 C                     0.        1.39316   0. 
 C                    -1.20651   0.69658   0. 
 C                    -1.20651  -0.69658   0. 
 C                     0.       -1.39316   0. 
 C                     1.20651  -0.69658   0. 
 C                     1.20651   0.69658   0. 
 H                     0.        2.48268   0. 
 H                    -2.15007   1.24134   0. 
 H                    -2.15007  -1.24134   0. 
 H                     0.       -2.48268   0. 
 H                     2.15007  -1.24134   0. 
 H                     2.15007   1.24134   0. 
 
 ITRead=  0  0  0  0  0  0  0  0  0  0  0  0
 MicOpt= -1 -1 -1 -1 -1 -1 -1 -1 -1 -1 -1 -1
 NAtoms=     12 NQM=       12 NQMF=       0 NMMI=      0 NMMIF=      0
                NMic=       0 NMicF=      0.
                    Isotopes and Nuclear Properties:
 (Nuclear quadrupole moments (NQMom) in fm**2, nuclear magnetic moments (NMagM)
  in nuclear magnetons)

  Atom         1           2           3           4           5           6           7           8           9          10
 IAtWgt=          12          12          12          12          12          12           1           1           1           1
 AtmWgt=  12.0000000  12.0000000  12.0000000  12.0000000  12.0000000  12.0000000   1.0078250   1.0078250   1.0078250   1.0078250
 NucSpn=           0           0           0           0           0           0           1           1           1           1
 AtZEff=  -0.0000000  -0.0000000  -0.0000000  -0.0000000  -0.0000000  -0.0000000  -0.0000000  -0.0000000  -0.0000000  -0.0000000
 NQMom=    0.0000000   0.0000000   0.0000000   0.0000000   0.0000000   0.0000000   0.0000000   0.0000000   0.0000000   0.0000000
 NMagM=    0.0000000   0.0000000   0.0000000   0.0000000   0.0000000   0.0000000   2.7928460   2.7928460   2.7928460   2.7928460
 AtZNuc=   6.0000000   6.0000000   6.0000000   6.0000000   6.0000000   6.0000000   1.0000000   1.0000000   1.0000000   1.0000000

  Atom        11          12
 IAtWgt=           1           1
 AtmWgt=   1.0078250   1.0078250
 NucSpn=           1           1
 AtZEff=  -0.0000000  -0.0000000
 NQMom=    0.0000000   0.0000000
 NMagM=    2.7928460   2.7928460
 AtZNuc=   1.0000000   1.0000000
 Leave Link  101 at Wed Apr 22 16:20:36 2020, MaxMem=  6710886400 cpu:               2.3 elap:               0.2
 (Enter /opt/ohpc/pub/libs/gaussian/g16-A.03/sandybridge/g16/l202.exe)
                          Input orientation:                          
 ---------------------------------------------------------------------
 Center     Atomic      Atomic             Coordinates (Angstroms)
 Number     Number       Type             X           Y           Z
 ---------------------------------------------------------------------
      1          6           0        0.000000    1.393160    0.000000
      2          6           0       -1.206512    0.696580    0.000000
      3          6           0       -1.206512   -0.696580    0.000000
      4          6           0        0.000000   -1.393160    0.000000
      5          6           0        1.206512   -0.696580    0.000000
      6          6           0        1.206512    0.696580    0.000000
      7          1           0        0.000000    2.482681    0.000000
      8          1           0       -2.150065    1.241340    0.000000
      9          1           0       -2.150065   -1.241340    0.000000
     10          1           0        0.000000   -2.482681    0.000000
     11          1           0        2.150065   -1.241340    0.000000
     12          1           0        2.150065    1.241340    0.000000
 ---------------------------------------------------------------------
                    Distance matrix (angstroms):
                    1          2          3          4          5
     1  C    0.000000
     2  C    1.393160   0.000000
     3  C    2.413024   1.393160   0.000000
     4  C    2.786320   2.413024   1.393160   0.000000
     5  C    2.413024   2.786320   2.413024   1.393160   0.000000
     6  C    1.393160   2.413024   2.786320   2.413024   1.393160
     7  H    1.089521   2.155418   3.400496   3.875841   3.400496
     8  H    2.155418   1.089521   2.155418   3.400496   3.875841
     9  H    3.400496   2.155418   1.089521   2.155418   3.400496
    10  H    3.875841   3.400496   2.155418   1.089521   2.155418
    11  H    3.400496   3.875841   3.400496   2.155418   1.089521
    12  H    2.155418   3.400496   3.875841   3.400496   2.155418
                    6          7          8          9         10
     6  C    0.000000
     7  H    2.155418   0.000000
     8  H    3.400496   2.482681   0.000000
     9  H    3.875841   4.300129   2.482680   0.000000
    10  H    3.400496   4.965362   4.300129   2.482681   0.000000
    11  H    2.155418   4.300129   4.965362   4.300130   2.482681
    12  H    1.089521   2.482681   4.300130   4.965362   4.300129
                   11         12
    11  H    0.000000
    12  H    2.482680   0.000000
 Stoichiometry    C6H6(1+,2)
 Framework group  D6H[3C2'(HC.CH)]
 Deg. of freedom     2
 Full point group                 D6H     NOp  24
 Largest Abelian subgroup         D2H     NOp   8
 Largest concise Abelian subgroup D2      NOp   4
                         Standard orientation:                         
 ---------------------------------------------------------------------
 Center     Atomic      Atomic             Coordinates (Angstroms)
 Number     Number       Type             X           Y           Z
 ---------------------------------------------------------------------
      1          6           0       -0.000000    1.393160   -0.000000
      2          6           0       -1.206512    0.696580   -0.000000
      3          6           0       -1.206512   -0.696580   -0.000000
      4          6           0       -0.000000   -1.393160   -0.000000
      5          6           0        1.206512   -0.696580   -0.000000
      6          6           0        1.206512    0.696580   -0.000000
      7          1           0        0.000000    2.482681   -0.000000
      8          1           0       -2.150065    1.241341   -0.000000
      9          1           0       -2.150065   -1.241340   -0.000000
     10          1           0       -0.000000   -2.482681   -0.000000
     11          1           0        2.150065   -1.241341   -0.000000
     12          1           0        2.150065    1.241340   -0.000000
 ---------------------------------------------------------------------
 Rotational constants (GHZ):           5.7099798           5.7099798           2.8549899
 Leave Link  202 at Wed Apr 22 16:20:36 2020, MaxMem=  6710886400 cpu:               1.2 elap:               0.1
 (Enter /opt/ohpc/pub/libs/gaussian/g16-A.03/sandybridge/g16/l301.exe)
 Standard basis: 6-31G (6D, 7F)
 Ernie: Thresh=  0.10000D-02 Tol=  0.10000D-05 Strict=F.
 There are    16 symmetry adapted cartesian basis functions of AG  symmetry.
 There are    11 symmetry adapted cartesian basis functions of B1G symmetry.
 There are     2 symmetry adapted cartesian basis functions of B2G symmetry.
 There are     4 symmetry adapted cartesian basis functions of B3G symmetry.
 There are     2 symmetry adapted cartesian basis functions of AU  symmetry.
 There are     4 symmetry adapted cartesian basis functions of B1U symmetry.
 There are    16 symmetry adapted cartesian basis functions of B2U symmetry.
 There are    11 symmetry adapted cartesian basis functions of B3U symmetry.
 There are    16 symmetry adapted basis functions of AG  symmetry.
 There are    11 symmetry adapted basis functions of B1G symmetry.
 There are     2 symmetry adapted basis functions of B2G symmetry.
 There are     4 symmetry adapted basis functions of B3G symmetry.
 There are     2 symmetry adapted basis functions of AU  symmetry.
 There are     4 symmetry adapted basis functions of B1U symmetry.
 There are    16 symmetry adapted basis functions of B2U symmetry.
 There are    11 symmetry adapted basis functions of B3U symmetry.
    66 basis functions,   156 primitive gaussians,    66 cartesian basis functions
    21 alpha electrons       20 beta electrons
       nuclear repulsion energy       203.5439980921 Hartrees.
 IExCor=33909 DFT=T Ex+Corr=LC-wHPBE ExCW=0 ScaHFX=  1.000000
 ScaDFX=  1.000000  1.000000  1.000000  1.000000 ScalE2=  1.000000  1.000000
 IRadAn=      5 IRanWt=     -1 IRanGd=            0 ICorTp=0 IEmpDi=  4
 HFx  wShort=  0.000000 wLong=  0.321900 cFull=  0.000000 cShort=  0.000000 cLong=  1.000000
 DFx  wShort=  0.000000 wLong=  0.321900 cFull=  0.000000 cShort=  1.000000 cLong=  0.000000
 NAtoms=   12 NActive=   12 NUniq=    2 SFac= 4.00D+00 NAtFMM=   60 NAOKFM=F Big=F
 Integral buffers will be    131072 words long.
 Raffenetti 2 integral format.
 Two-electron integral symmetry is turned on.
 Leave Link  301 at Wed Apr 22 16:20:36 2020, MaxMem=  6710886400 cpu:               1.0 elap:               0.1
 (Enter /opt/ohpc/pub/libs/gaussian/g16-A.03/sandybridge/g16/l302.exe)
 NPDir=0 NMtPBC=     1 NCelOv=     1 NCel=       1 NClECP=     1 NCelD=      1
         NCelK=      1 NCelE2=     1 NClLst=     1 CellRange=     0.0.
 One-electron integrals computed using PRISM.
 One-electron integral symmetry used in STVInt
 NBasis=    66 RedAO= T EigKep=  6.87D-04  NBF=    16    11     2     4     2     4    16    11
 NBsUse=    66 1.00D-06 EigRej= -1.00D+00 NBFU=    16    11     2     4     2     4    16    11
 Precomputing XC quadrature grid using
 IXCGrd= 4 IRadAn=           5 IRanWt=          -1 IRanGd=           0 AccXCQ= 0.00D+00.
 Generated NRdTot=       0 NPtTot=           0 NUsed=           0 NTot=          32
 NSgBfM=    66    66    66    66    66 MxSgAt=    12 MxSgA2=    12.
 Leave Link  302 at Wed Apr 22 16:20:36 2020, MaxMem=  6710886400 cpu:               2.6 elap:               0.2
 (Enter /opt/ohpc/pub/libs/gaussian/g16-A.03/sandybridge/g16/l303.exe)
 DipDrv:  MaxL=1.
 Leave Link  303 at Wed Apr 22 16:20:36 2020, MaxMem=  6710886400 cpu:               0.8 elap:               0.1
 (Enter /opt/ohpc/pub/libs/gaussian/g16-A.03/sandybridge/g16/l401.exe)
 ExpMin= 1.61D-01 ExpMax= 3.05D+03 ExpMxC= 4.57D+02 IAcc=3 IRadAn=         5 AccDes= 0.00D+00
 Harris functional with IExCor=33909 and IRadAn=       5 diagonalized for initial guess.
 HarFok:  IExCor=33909 AccDes= 0.00D+00 IRadAn=         5 IDoV= 1 UseB2=F ITyADJ=14
 ICtDFT=  3500011 ScaDFX=  1.000000  1.000000  1.000000  1.000000
 FoFCou: FMM=F IPFlag=           0 FMFlag=      100000 FMFlg1=           0
         NFxFlg=           0 DoJE=T BraDBF=F KetDBF=T FulRan=T
         wScrn=  0.000000 ICntrl=       500 IOpCl=  0 I1Cent=   200000004 NGrid=           0
         NMat0=    1 NMatS0=      1 NMatT0=    0 NMatD0=    1 NMtDS0=    0 NMtDT0=    0
 Petite list used in FoFCou.
 Harris En= -224.965602046400    
 JPrj=0 DoOrth=F DoCkMO=F.
 Initial guess orbital symmetries:
 Alpha Orbitals:
       Occupied  (A1G) (E1U) (E1U) (E2G) (E2G) (B1U) (A1G) (E1U)
                 (E1U) (E2G) (E2G) (A1G) (B2U) (B1U) (E1U) (E1U)
                 (A2U) (E2G) (E2G) (E1G) (E1G)
       Virtual   (E2U) (E2U) (A1G) (B2G) (E1U) (E1U) (E2G) (E2G)
                 (B1U) (E2G) (E2G) (E1U) (E1U) (B2U) (A2U) (B1U)
                 (A2G) (A1G) (E2G) (E2G) (E1G) (E1G) (A1G) (E1U)
                 (E1U) (E2U) (E2U) (B2G) (B1U) (E2G) (E2G) (E1U)
                 (E1U) (A2G) (A1G) (E1U) (E1U) (E2G) (E2G) (E1U)
                 (E1U) (B1U) (E2G) (E2G) (B1U)
 Beta  Orbitals:
       Occupied  (A1G) (E1U) (E1U) (E2G) (E2G) (B1U) (A1G) (E1U)
                 (E1U) (E2G) (E2G) (A1G) (B2U) (B1U) (E1U) (E1U)
                 (A2U) (E2G) (E2G) (E1G)
       Virtual   (E1G) (E2U) (E2U) (A1G) (B2G) (E1U) (E1U) (E2G)
                 (E2G) (B1U) (E2G) (E2G) (E1U) (E1U) (B2U) (A2U)
                 (B1U) (A2G) (A1G) (E2G) (E2G) (E1G) (E1G) (A1G)
                 (E1U) (E1U) (E2U) (E2U) (B2G) (B1U) (E2G) (E2G)
                 (E1U) (E1U) (A2G) (A1G) (E1U) (E1U) (E2G) (E2G)
                 (E1U) (E1U) (B1U) (E2G) (E2G) (B1U)
 Initial guess <Sx>= 0.0000 <Sy>= 0.0000 <Sz>= 0.5000 <S**2>= 0.7500 S= 0.5000
 Leave Link  401 at Wed Apr 22 16:20:36 2020, MaxMem=  6710886400 cpu:               2.9 elap:               0.2
 (Enter /opt/ohpc/pub/libs/gaussian/g16-A.03/sandybridge/g16/l502.exe)
 Keep R1 and R2 ints in memory in symmetry-blocked form, NReq=19109854.
 FoFCou: FMM=F IPFlag=           0 FMFlag=           0 FMFlg1=           0
         NFxFlg=           0 DoJE=F BraDBF=F KetDBF=F FulRan=T
         wScrn=  0.000000 ICntrl=       600 IOpCl=  0 I1Cent=           0 NGrid=           0
         NMat0=    1 NMatS0=   2211 NMatT0=    0 NMatD0=    1 NMtDS0=    0 NMtDT0=    0
 Petite list used in FoFCou.
 UHF open shell SCF:
 Using DIIS extrapolation, IDIIS=    10.
 NGot=  6710886400 LenX=  6710146038 LenY=  6710141241
 Requested convergence on RMS density matrix=1.00D-06 within  32 cycles.
 Requested convergence on MAX density matrix=1.00D-04.
 Requested convergence on             energy=1.00D-04.
 Virtual orbitals will be shifted by   0.500 hartree.
 No special actions if energy rises.
 Dynamic level shift is on during FON iterations.

 Cycle   1  Pass 1  IDiag  1:
 Density matrix breaks symmetry, PCut= 1.00D-04
 Density has only Abelian symmetry.
 E= -231.646621584568    
 DIIS: error= 1.69D-02 at cycle   1 NSaved=   1.
 NSaved= 1 IEnMin= 1 EnMin= -231.646621584568     IErMin= 1 ErrMin= 1.69D-02
 ErrMax= 1.69D-02  0.00D+00 EMaxC= 1.00D+00 BMatC= 7.03D-02 BMatP= 7.03D-02
 IDIUse=1 WtCom= 1.00D+00 WtEn= 0.00D+00
 Coeff-Com:  0.100D+01
 Coeff:      0.100D+01
 Gap=     0.388 Goal=   None    Shift=    0.500
 T= 1153. Gap= 0.889 NK=0 IS=   22 IE=   66 IFin=   21
          NO(<0.9)=   0  NV(>0.1)=   0     21.00e < EF      0.00e >EF  Err=0.0D+00
 Gap=     0.200 Goal=   None    Shift=    0.500
 T= 1153. Gap= 0.700 NK=0 IS=   21 IE=   66 IFin=   20
          NO(<0.9)=   0  NV(>0.1)=   0     20.00e < EF      0.00e >EF  Err=0.0D+00
 GapD=    0.200 DampG=1.000 DampE=0.500 DampFc=0.5000 IDamp=-1.
 Damping current iteration by 5.00D-01
 RMSDP=3.31D-03 MaxDP=2.88D-02              OVMax= 3.45D-02

 Cycle   2  Pass 1  IDiag  1:
 Density matrix breaks symmetry, PCut= 1.00D-04
 Density has only Abelian symmetry.
 E= -231.657846292856     Delta-E=       -0.011224708288 Rises=F Damp=T
 DIIS: error= 9.99D-03 at cycle   2 NSaved=   2.
 NSaved= 2 IEnMin= 2 EnMin= -231.657846292856     IErMin= 2 ErrMin= 9.99D-03
 ErrMax= 9.99D-03  0.00D+00 EMaxC= 1.00D+00 BMatC= 1.73D-02 BMatP= 7.03D-02
 IDIUse=1 WtCom= 1.00D+00 WtEn= 0.00D+00
 Coeff-Com: -0.834D+00 0.183D+01
 Coeff:     -0.834D+00 0.183D+01
 Gap=     0.407 Goal=   None    Shift=    0.500
 T= 1065. Gap= 0.907 NK=0 IS=   22 IE=   66 IFin=   21
          NO(<0.9)=   0  NV(>0.1)=   0     21.00e < EF      0.00e >EF  Err=0.0D+00
 Gap=     0.224 Goal=   None    Shift=    0.500
 T= 1065. Gap= 0.724 NK=0 IS=   21 IE=   66 IFin=   20
          NO(<0.9)=   0  NV(>0.1)=   0     20.00e < EF      0.00e >EF  Err=0.0D+00
 GapD=    0.224 DampG=1.000 DampE=1.000 DampFc=1.0000 IDamp=-1.
 RMSDP=2.41D-03 MaxDP=1.63D-02 DE=-1.12D-02 OVMax= 1.72D-02

 Cycle   3  Pass 1  IDiag  1:
 Density matrix breaks symmetry, PCut= 1.00D-04
 Density has only Abelian symmetry.
 E= -231.667286972196     Delta-E=       -0.009440679339 Rises=F Damp=F
 DIIS: error= 5.60D-03 at cycle   3 NSaved=   3.
 NSaved= 3 IEnMin= 3 EnMin= -231.667286972196     IErMin= 3 ErrMin= 5.60D-03
 ErrMax= 5.60D-03  0.00D+00 EMaxC= 1.00D+00 BMatC= 8.05D-04 BMatP= 1.73D-02
 IDIUse=1 WtCom= 1.00D+00 WtEn= 0.00D+00
 Coeff-Com:  0.159D+00-0.357D+00 0.120D+01
 Coeff:      0.159D+00-0.357D+00 0.120D+01
 Gap=     0.401 Goal=   None    Shift=    0.500
 T=  885. Gap= 0.901 NK=0 IS=   22 IE=   66 IFin=   21
          NO(<0.9)=   0  NV(>0.1)=   0     21.00e < EF      0.00e >EF  Err=0.0D+00
 Gap=     0.224 Goal=   None    Shift=    0.500
 T=  885. Gap= 0.724 NK=0 IS=   21 IE=   66 IFin=   20
          NO(<0.9)=   0  NV(>0.1)=   0     20.00e < EF      0.00e >EF  Err=0.0D+00
 GapD=    0.224 DampG=1.000 DampE=1.000 DampFc=1.0000 IDamp=-1.
 RMSDP=4.24D-04 MaxDP=3.54D-03 DE=-9.44D-03 OVMax= 1.16D-02

 Cycle   4  Pass 1  IDiag  1:
 Density matrix breaks symmetry, PCut= 1.00D-04
 Density has only Abelian symmetry.
 E= -231.667901325658     Delta-E=       -0.000614353462 Rises=F Damp=F
 DIIS: error= 4.39D-03 at cycle   4 NSaved=   4.
 NSaved= 4 IEnMin= 4 EnMin= -231.667901325658     IErMin= 4 ErrMin= 4.39D-03
 ErrMax= 4.39D-03  0.00D+00 EMaxC= 1.00D+00 BMatC= 3.90D-04 BMatP= 8.05D-04
 IDIUse=1 WtCom= 1.00D+00 WtEn= 0.00D+00
 Coeff-Com:  0.126D+00-0.282D+00-0.652D+00 0.181D+01
 Coeff:      0.126D+00-0.282D+00-0.652D+00 0.181D+01
 Gap=     0.399 Goal=   None    Shift=    0.500
 T=  593. Gap= 0.899 NK=0 IS=   22 IE=   66 IFin=   21
          NO(<0.9)=   0  NV(>0.1)=   0     21.00e < EF      0.00e >EF  Err=0.0D+00
 Gap=     0.229 Goal=   None    Shift=    0.500
 T=  593. Gap= 0.729 NK=0 IS=   21 IE=   66 IFin=   20
          NO(<0.9)=   0  NV(>0.1)=   0     20.00e < EF      0.00e >EF  Err=0.0D+00
 GapD=    0.229 DampG=1.000 DampE=1.000 DampFc=1.0000 IDamp=-1.
 RMSDP=2.97D-04 MaxDP=3.71D-03 DE=-6.14D-04 OVMax= 1.20D-02

 Cycle   5  Pass 1  IDiag  1:
 Density matrix breaks symmetry, PCut= 1.00D-04
 Density has only Abelian symmetry.
 E= -231.668306904335     Delta-E=       -0.000405578677 Rises=F Damp=F
 DIIS: error= 2.71D-03 at cycle   5 NSaved=   5.
 NSaved= 5 IEnMin= 5 EnMin= -231.668306904335     IErMin= 5 ErrMin= 2.71D-03
 ErrMax= 2.71D-03  0.00D+00 EMaxC= 1.00D+00 BMatC= 1.62D-04 BMatP= 3.90D-04
 IDIUse=1 WtCom= 1.00D+00 WtEn= 0.00D+00
 Coeff-Com: -0.128D+00 0.283D+00-0.528D+00-0.994D+00 0.237D+01
 Coeff:     -0.128D+00 0.283D+00-0.528D+00-0.994D+00 0.237D+01
 Gap=     0.396 Goal=   None    Shift=    0.500
 T=  321. Gap= 0.896 NK=0 IS=   22 IE=   66 IFin=   21
          NO(<0.9)=   0  NV(>0.1)=   0     21.00e < EF      0.00e >EF  Err=0.0D+00
 Gap=     0.232 Goal=   None    Shift=    0.500
 T=  321. Gap= 0.732 NK=0 IS=   21 IE=   66 IFin=   20
          NO(<0.9)=   0  NV(>0.1)=   0     20.00e < EF      0.00e >EF  Err=0.0D+00
 GapD=    0.232 DampG=1.000 DampE=1.000 DampFc=1.0000 IDamp=-1.
 RMSDP=2.38D-04 MaxDP=3.64D-03 DE=-4.06D-04 OVMax= 1.06D-02

 Cycle   6  Pass 1  IDiag  1:
 Density matrix breaks symmetry, PCut= 1.00D-04
 Density has only Abelian symmetry.
 E= -231.668535450739     Delta-E=       -0.000228546403 Rises=F Damp=F
 DIIS: error= 1.48D-03 at cycle   6 NSaved=   6.
 NSaved= 6 IEnMin= 6 EnMin= -231.668535450739     IErMin= 6 ErrMin= 1.48D-03
 ErrMax= 1.48D-03  0.00D+00 EMaxC= 1.00D+00 BMatC= 4.57D-05 BMatP= 1.62D-04
 IDIUse=1 WtCom= 1.00D+00 WtEn= 0.00D+00
 Coeff-Com:  0.204D-01-0.410D-01 0.186D+00-0.510D-01-0.138D+01 0.226D+01
 Coeff:      0.204D-01-0.410D-01 0.186D+00-0.510D-01-0.138D+01 0.226D+01
 Gap=     0.396 Goal=   None    Shift=    0.500
 T=   86. Gap= 0.896 NK=0 IS=   22 IE=   66 IFin=   21
          NO(<0.9)=   0  NV(>0.1)=   0     21.00e < EF      0.00e >EF  Err=0.0D+00
 Gap=     0.232 Goal=   None    Shift=    0.500
 T=   86. Gap= 0.732 NK=0 IS=   21 IE=   66 IFin=   20
          NO(<0.9)=   0  NV(>0.1)=   0     20.00e < EF      0.00e >EF  Err=0.0D+00
 GapD=    0.232 DampG=1.000 DampE=1.000 DampFc=1.0000 IDamp=-1.
 RMSDP=1.30D-04 MaxDP=2.22D-03 DE=-2.29D-04 OVMax= 6.03D-03

 Cycle   7  Pass 1  IDiag  1:
 Density matrix breaks symmetry, PCut= 1.00D-04
 Density has only Abelian symmetry.
 E= -231.668603598963     Delta-E=       -0.000068148225 Rises=F Damp=F
 DIIS: error= 7.63D-04 at cycle   7 NSaved=   7.
 NSaved= 7 IEnMin= 7 EnMin= -231.668603598963     IErMin= 7 ErrMin= 7.63D-04
 ErrMax= 7.63D-04  0.00D+00 EMaxC= 1.00D+00 BMatC= 1.26D-05 BMatP= 4.57D-05
 IDIUse=1 WtCom= 1.00D+00 WtEn= 0.00D+00
 Coeff-Com: -0.242D-01 0.498D-01-0.192D+00-0.271D-01 0.152D+01-0.395D+01
 Coeff-Com:  0.363D+01
 Coeff:     -0.242D-01 0.498D-01-0.192D+00-0.271D-01 0.152D+01-0.395D+01
 Coeff:      0.363D+01
 Gap=     0.396 Goal=   None    Shift=    0.500
 Gap=     0.233 Goal=   None    Shift=    0.500
 RMSDP=6.66D-05 MaxDP=1.14D-03 DE=-6.81D-05 OVMax= 3.21D-03

 Cycle   8  Pass 1  IDiag  1:
 Density matrix breaks symmetry, PCut= 1.00D-04
 Density has only Abelian symmetry.
 E= -231.668621673451     Delta-E=       -0.000018074488 Rises=F Damp=F
 DIIS: error= 3.87D-04 at cycle   8 NSaved=   8.
 NSaved= 8 IEnMin= 8 EnMin= -231.668621673451     IErMin= 8 ErrMin= 3.87D-04
 ErrMax= 3.87D-04  0.00D+00 EMaxC= 1.00D+00 BMatC= 3.19D-06 BMatP= 1.26D-05
 IDIUse=1 WtCom= 1.00D+00 WtEn= 0.00D+00
 Coeff-Com:  0.620D-02-0.112D-01 0.455D-01-0.272D-01-0.439D+00 0.163D+01
 Coeff-Com: -0.316D+01 0.295D+01
 Coeff:      0.620D-02-0.112D-01 0.455D-01-0.272D-01-0.439D+00 0.163D+01
 Coeff:     -0.316D+01 0.295D+01
 Gap=     0.396 Goal=   None    Shift=    0.500
 Gap=     0.233 Goal=   None    Shift=    0.500
 RMSDP=3.20D-05 MaxDP=5.13D-04 DE=-1.81D-05 OVMax= 1.63D-03

 Cycle   9  Pass 1  IDiag  1:
 Density matrix breaks symmetry, PCut= 1.00D-04
 Density has only Abelian symmetry.
 E= -231.668625993410     Delta-E=       -0.000004319959 Rises=F Damp=F
 DIIS: error= 1.90D-04 at cycle   9 NSaved=   9.
 NSaved= 9 IEnMin= 9 EnMin= -231.668625993410     IErMin= 9 ErrMin= 1.90D-04
 ErrMax= 1.90D-04  0.00D+00 EMaxC= 1.00D+00 BMatC= 7.22D-07 BMatP= 3.19D-06
 IDIUse=1 WtCom= 1.00D+00 WtEn= 0.00D+00
 Coeff-Com: -0.470D-02 0.899D-02-0.289D-01-0.229D-03 0.281D+00-0.989D+00
 Coeff-Com:  0.197D+01-0.320D+01 0.297D+01
 Coeff:     -0.470D-02 0.899D-02-0.289D-01-0.229D-03 0.281D+00-0.989D+00
 Coeff:      0.197D+01-0.320D+01 0.297D+01
 Gap=     0.396 Goal=   None    Shift=    0.500
 Gap=     0.233 Goal=   None    Shift=    0.500
 RMSDP=1.48D-05 MaxDP=2.39D-04 DE=-4.32D-06 OVMax= 7.92D-04

 Cycle  10  Pass 1  IDiag  1:
 Density matrix breaks symmetry, PCut= 1.00D-04
 Density has only Abelian symmetry.
 E= -231.668626960239     Delta-E=       -0.000000966830 Rises=F Damp=F
 DIIS: error= 9.34D-05 at cycle  10 NSaved=  10.
 NSaved=10 IEnMin=10 EnMin= -231.668626960239     IErMin=10 ErrMin= 9.34D-05
 ErrMax= 9.34D-05  0.00D+00 EMaxC= 1.00D+00 BMatC= 1.58D-07 BMatP= 7.22D-07
 IDIUse=1 WtCom= 1.00D+00 WtEn= 0.00D+00
 Coeff-Com:  0.206D-02-0.377D-02 0.116D-01-0.662D-02-0.106D+00 0.418D+00
 Coeff-Com: -0.926D+00 0.169D+01-0.287D+01 0.279D+01
 Coeff:      0.206D-02-0.377D-02 0.116D-01-0.662D-02-0.106D+00 0.418D+00
 Coeff:     -0.926D+00 0.169D+01-0.287D+01 0.279D+01
 Gap=     0.396 Goal=   None    Shift=    0.500
 Gap=     0.233 Goal=   None    Shift=    0.500
 RMSDP=6.87D-06 MaxDP=1.13D-04 DE=-9.67D-07 OVMax= 3.81D-04

 Cycle  11  Pass 1  IDiag  1:
 Density matrix breaks symmetry, PCut= 1.00D-04
 Density has only Abelian symmetry.
 E= -231.668627170826     Delta-E=       -0.000000210586 Rises=F Damp=F
 DIIS: error= 4.55D-05 at cycle  11 NSaved=  11.
 NSaved=11 IEnMin=11 EnMin= -231.668627170826     IErMin=11 ErrMin= 4.55D-05
 ErrMax= 4.55D-05  0.00D+00 EMaxC= 1.00D+00 BMatC= 3.39D-08 BMatP= 1.58D-07
 IDIUse=1 WtCom= 1.00D+00 WtEn= 0.00D+00
 Coeff-Com: -0.682D-03 0.129D-02-0.335D-02 0.812D-03 0.267D-01-0.102D+00
 Coeff-Com:  0.234D+00-0.510D+00 0.110D+01-0.233D+01 0.258D+01
 Coeff:     -0.682D-03 0.129D-02-0.335D-02 0.812D-03 0.267D-01-0.102D+00
 Coeff:      0.234D+00-0.510D+00 0.110D+01-0.233D+01 0.258D+01
 Gap=     0.396 Goal=   None    Shift=    0.500
 Gap=     0.233 Goal=   None    Shift=    0.500
 RMSDP=3.16D-06 MaxDP=5.15D-05 DE=-2.11D-07 OVMax= 1.82D-04

 Cycle  12  Pass 1  IDiag  1:
 Density matrix breaks symmetry, PCut= 1.00D-04
 Density has only Abelian symmetry.
 E= -231.668627216128     Delta-E=       -0.000000045302 Rises=F Damp=F
 DIIS: error= 2.25D-05 at cycle  12 NSaved=  12.
 NSaved=12 IEnMin=12 EnMin= -231.668627216128     IErMin=12 ErrMin= 2.25D-05
 ErrMax= 2.25D-05  0.00D+00 EMaxC= 1.00D+00 BMatC= 7.46D-09 BMatP= 3.39D-08
 IDIUse=1 WtCom= 1.00D+00 WtEn= 0.00D+00
 Coeff-Com: -0.161D-03 0.337D-03-0.113D-02-0.863D-03 0.148D-01-0.485D-01
 Coeff-Com:  0.973D-01-0.147D+00 0.103D+00 0.488D+00-0.227D+01 0.276D+01
 Coeff:     -0.161D-03 0.337D-03-0.113D-02-0.863D-03 0.148D-01-0.485D-01
 Coeff:      0.973D-01-0.147D+00 0.103D+00 0.488D+00-0.227D+01 0.276D+01
 Gap=     0.396 Goal=   None    Shift=    0.500
 Gap=     0.233 Goal=   None    Shift=    0.500
 RMSDP=1.44D-06 MaxDP=2.36D-05 DE=-4.53D-08 OVMax= 8.82D-05

 Cycle  13  Pass 1  IDiag  1:
 Density matrix breaks symmetry, PCut= 1.00D-04
 Density has only Abelian symmetry.
 E= -231.668627226012     Delta-E=       -0.000000009884 Rises=F Damp=F
 DIIS: error= 1.10D-05 at cycle  13 NSaved=  13.
 NSaved=13 IEnMin=13 EnMin= -231.668627226012     IErMin=13 ErrMin= 1.10D-05
 ErrMax= 1.10D-05  0.00D+00 EMaxC= 1.00D+00 BMatC= 1.64D-09 BMatP= 7.46D-09
 IDIUse=1 WtCom= 1.00D+00 WtEn= 0.00D+00
 Coeff-Com:  0.110D-03-0.219D-03 0.715D-03 0.402D-05-0.747D-02 0.256D-01
 Coeff-Com: -0.508D-01 0.771D-01-0.675D-01-0.196D+00 0.122D+01-0.309D+01
 Coeff-Com:  0.308D+01
 Coeff:      0.110D-03-0.219D-03 0.715D-03 0.402D-05-0.747D-02 0.256D-01
 Coeff:     -0.508D-01 0.771D-01-0.675D-01-0.196D+00 0.122D+01-0.309D+01
 Coeff:      0.308D+01
 Gap=     0.396 Goal=   None    Shift=    0.500
 Gap=     0.233 Goal=   None    Shift=    0.500
 RMSDP=6.59D-07 MaxDP=1.08D-05 DE=-9.88D-09 OVMax= 4.24D-05

 Density matrix breaks symmetry, PCut= 1.00D-04
 Density has only Abelian symmetry.
 SCF Done:  E(ULC-wHPBE) =  -231.668627226     A.U. after   13 cycles
            NFock= 13  Conv=0.66D-06     -V/T= 2.0047
 <Sx>= 0.0000 <Sy>= 0.0000 <Sz>= 0.5000 <S**2>= 0.7771 S= 0.5134
 <L.S>= 0.000000000000E+00
 KE= 2.305922353544D+02 PE=-9.348940121772D+02 EE= 2.690891515047D+02
 Annihilation of the first spin contaminant:
 S**2 before annihilation     0.7771,   after     0.7504
 Leave Link  502 at Wed Apr 22 16:20:38 2020, MaxMem=  6710886400 cpu:              18.0 elap:               1.2
 (Enter /opt/ohpc/pub/libs/gaussian/g16-A.03/sandybridge/g16/l508.exe)
 QCSCF skips out because SCF is already converged.
 Leave Link  508 at Wed Apr 22 16:20:38 2020, MaxMem=  6710886400 cpu:               0.3 elap:               0.2
 (Enter /opt/ohpc/pub/libs/gaussian/g16-A.03/sandybridge/g16/l601.exe)
 Copying SCF densities to generalized density rwf, IOpCl= 1 IROHF=0.
 SCF density gives NOpUse=  8 NOpAll= 24.
 Marking SCF density as not fully symmetric.

 **********************************************************************

            Population analysis using the SCF density.

 **********************************************************************

 Orbital symmetries:
 Alpha Orbitals:
       Occupied  (?A) (?A) (?A) (?A) (?A) (?A) (?B) (?B) (?B) (?B)
                 (?B) (?B) (?B) (?B) (?B) (?B) (?C) (?B) (?B) (?C)
                 (?C)
       Virtual   (?C) (?C) (?B) (?C) (?B) (?B) (?B) (?B) (?B) (?B)
                 (?B) (?B) (?B) (?B) (?C) (?B) (?B) (?B) (?C) (?C)
                 (?B) (?B) (?B) (?C) (?B) (?B) (?C) (?C) (?B) (?B)
                 (?B) (?B) (?B) (?B) (?B) (?B) (?B) (?B) (?B) (?B)
                 (?B) (?B) (?B) (?B) (?B)
 Beta  Orbitals:
       Occupied  (?A) (?A) (?A) (?A) (?A) (?A) (?B) (B2G) (B2G)
                 (?B) (?B) (?B) (B2G) (B2G) (B2G) (B2G) (?C) (?B)
                 (?B) (?D)
       Virtual   (?D) (?C) (?C) (?D) (?D) (B2G) (B2G) (?D) (?D)
                 (B2G) (?D) (?D) (B2G) (B2G) (B2G) (?C) (B2G) (?D)
                 (?D) (?D) (?D) (?D) (?D) (?D) (B2G) (B2G) (?C)
                 (?C) (?D) (B2G) (?A) (?A) (B2G) (B2G) (?A) (?D)
                 (B2G) (B2G) (?D) (?D) (B2G) (B2G) (B2G) (E2G)
                 (E2G) (B1U)
 Unable to determine electronic state:  an orbital has unidentified symmetry.
 Alpha  occ. eigenvalues --  -10.33658 -10.33655 -10.33631 -10.33626 -10.29822
 Alpha  occ. eigenvalues --  -10.29819  -1.22102  -1.11520  -1.08850  -0.94595
 Alpha  occ. eigenvalues --   -0.94592  -0.86222  -0.79332  -0.78156  -0.76272
 Alpha  occ. eigenvalues --   -0.74162  -0.73185  -0.66681  -0.66369  -0.61434
 Alpha  occ. eigenvalues --   -0.57370
 Alpha virt. eigenvalues --   -0.17806  -0.14266  -0.00702   0.01963   0.04475
 Alpha virt. eigenvalues --    0.05611   0.08030   0.09125   0.10568   0.18099
 Alpha virt. eigenvalues --    0.18592   0.19381   0.19953   0.38062   0.38925
 Alpha virt. eigenvalues --    0.41434   0.43793   0.44216   0.47041   0.49323
 Alpha virt. eigenvalues --    0.49613   0.50140   0.52952   0.53491   0.54084
 Alpha virt. eigenvalues --    0.54551   0.55531   0.62770   0.72822   0.74152
 Alpha virt. eigenvalues --    0.75560   0.78517   0.80226   0.85911   0.86318
 Alpha virt. eigenvalues --    0.88478   0.88503   1.00493   1.02101   1.06486
 Alpha virt. eigenvalues --    1.07452   1.11774   1.33962   1.34222   1.79397
  Beta  occ. eigenvalues --  -10.33186 -10.33185 -10.33164 -10.33159 -10.30027
  Beta  occ. eigenvalues --  -10.30023  -1.20937  -1.09182  -1.08654  -0.94055
  Beta  occ. eigenvalues --   -0.93626  -0.85914  -0.78857  -0.77706  -0.75725
  Beta  occ. eigenvalues --   -0.74181  -0.68096  -0.66464  -0.66080  -0.57248
  Beta virt. eigenvalues --   -0.33991  -0.12425  -0.12354  -0.00509   0.04280
  Beta virt. eigenvalues --    0.04747   0.05663   0.08828   0.09269   0.10879
  Beta virt. eigenvalues --    0.18710   0.18791   0.19867   0.20320   0.38405
  Beta virt. eigenvalues --    0.40484   0.42509   0.44249   0.44582   0.49686
  Beta virt. eigenvalues --    0.49712   0.50297   0.50714   0.53276   0.54830
  Beta virt. eigenvalues --    0.55298   0.55627   0.55866   0.63725   0.73133
  Beta virt. eigenvalues --    0.74514   0.75643   0.79166   0.80241   0.86141
  Beta virt. eigenvalues --    0.86547   0.88767   0.89474   1.01812   1.02391
  Beta virt. eigenvalues --    1.07361   1.07558   1.12268   1.34486   1.35029
  Beta virt. eigenvalues --    1.80161
          Condensed to atoms (all electrons):
               1          2          3          4          5          6
     1  C    4.913351   0.521614  -0.063745  -0.022738  -0.063745   0.521614
     2  C    0.521614   4.965965   0.412300  -0.063745  -0.023574  -0.049636
     3  C   -0.063745   0.412300   4.965965   0.521614  -0.049636  -0.023574
     4  C   -0.022738  -0.063745   0.521614   4.913351   0.521614  -0.063745
     5  C   -0.063745  -0.023574  -0.049636   0.521614   4.965965   0.412300
     6  C    0.521614  -0.049636  -0.023574  -0.063745   0.412300   4.965965
     7  H    0.371587  -0.023918   0.003219   0.000064   0.003219  -0.023918
     8  H   -0.020168   0.365832  -0.028093   0.002959   0.000061   0.003130
     9  H    0.002959  -0.028093   0.365832  -0.020168   0.003130   0.000061
    10  H    0.000064   0.003219  -0.023918   0.371587  -0.023918   0.003219
    11  H    0.002959   0.000061   0.003130  -0.020168   0.365832  -0.028093
    12  H   -0.020168   0.003130   0.000061   0.002959  -0.028093   0.365832
               7          8          9         10         11         12
     1  C    0.371587  -0.020168   0.002959   0.000064   0.002959  -0.020168
     2  C   -0.023918   0.365832  -0.028093   0.003219   0.000061   0.003130
     3  C    0.003219  -0.028093   0.365832  -0.023918   0.003130   0.000061
     4  C    0.000064   0.002959  -0.020168   0.371587  -0.020168   0.002959
     5  C    0.003219   0.000061   0.003130  -0.023918   0.365832  -0.028093
     6  C   -0.023918   0.003130   0.000061   0.003219  -0.028093   0.365832
     7  H    0.415756  -0.002554  -0.000070   0.000002  -0.000070  -0.002554
     8  H   -0.002554   0.405888  -0.002253  -0.000070   0.000004  -0.000066
     9  H   -0.000070  -0.002253   0.405888  -0.002554  -0.000066   0.000004
    10  H    0.000002  -0.000070  -0.002554   0.415756  -0.002554  -0.000070
    11  H   -0.000070   0.000004  -0.000066  -0.002554   0.405888  -0.002253
    12  H   -0.002554  -0.000066   0.000004  -0.000070  -0.002253   0.405888
          Atomic-Atomic Spin Densities.
               1          2          3          4          5          6
     1  C   -0.186259  -0.006961  -0.007630   0.005956  -0.007630  -0.006961
     2  C   -0.006961   0.357370   0.040503  -0.007630  -0.007252  -0.006006
     3  C   -0.007630   0.040503   0.357370  -0.006961  -0.006006  -0.007252
     4  C    0.005956  -0.007630  -0.006961  -0.186259  -0.006961  -0.007630
     5  C   -0.007630  -0.007252  -0.006006  -0.006961   0.357370   0.040503
     6  C   -0.006961  -0.006006  -0.007252  -0.007630   0.040503   0.357370
     7  H    0.001536  -0.000926   0.000148  -0.000051   0.000148  -0.000926
     8  H    0.000065   0.000333  -0.001802  -0.000010  -0.000055   0.000083
     9  H   -0.000010  -0.001802   0.000333   0.000065   0.000083  -0.000055
    10  H   -0.000051   0.000148  -0.000926   0.001536  -0.000926   0.000148
    11  H   -0.000010  -0.000055   0.000083   0.000065   0.000333  -0.001802
    12  H    0.000065   0.000083  -0.000055  -0.000010  -0.001802   0.000333
               7          8          9         10         11         12
     1  C    0.001536   0.000065  -0.000010  -0.000051  -0.000010   0.000065
     2  C   -0.000926   0.000333  -0.001802   0.000148  -0.000055   0.000083
     3  C    0.000148  -0.001802   0.000333  -0.000926   0.000083  -0.000055
     4  C   -0.000051  -0.000010   0.000065   0.001536   0.000065  -0.000010
     5  C    0.000148  -0.000055   0.000083  -0.000926   0.000333  -0.001802
     6  C   -0.000926   0.000083  -0.000055   0.000148  -0.001802   0.000333
     7  H    0.005196  -0.000003   0.000004  -0.000001   0.000004  -0.000003
     8  H   -0.000003  -0.014995  -0.000049   0.000004  -0.000000   0.000005
     9  H    0.000004  -0.000049  -0.014995  -0.000003   0.000005  -0.000000
    10  H   -0.000001   0.000004  -0.000003   0.005196  -0.000003   0.000004
    11  H    0.000004  -0.000000   0.000005  -0.000003  -0.014995  -0.000049
    12  H   -0.000003   0.000005  -0.000000   0.000004  -0.000049  -0.014995
 Mulliken charges and spin densities:
               1          2
     1  C   -0.143584  -0.207889
     2  C   -0.083155   0.367806
     3  C   -0.083155   0.367806
     4  C   -0.143584  -0.207889
     5  C   -0.083155   0.367806
     6  C   -0.083155   0.367806
     7  H    0.259235   0.005126
     8  H    0.275329  -0.016424
     9  H    0.275329  -0.016424
    10  H    0.259235   0.005126
    11  H    0.275329  -0.016424
    12  H    0.275329  -0.016424
 Sum of Mulliken charges =   1.00000   1.00000
 Mulliken charges and spin densities with hydrogens summed into heavy atoms:
               1          2
     1  C    0.115652  -0.202763
     2  C    0.192174   0.351382
     3  C    0.192174   0.351382
     4  C    0.115652  -0.202763
     5  C    0.192174   0.351382
     6  C    0.192174   0.351382
 Electronic spatial extent (au):  <R**2>=            437.1323
 Charge=              1.0000 electrons
 Dipole moment (field-independent basis, Debye):
    X=              0.0000    Y=              0.0000    Z=             -0.0000  Tot=              0.0000
 Quadrupole moment (field-independent basis, Debye-Ang):
   XX=            -17.9967   YY=            -21.6933   ZZ=            -35.0242
   XY=             -0.0000   XZ=              0.0000   YZ=              0.0000
 Traceless Quadrupole moment (field-independent basis, Debye-Ang):
   XX=              6.9080   YY=              3.2115   ZZ=            -10.1195
   XY=             -0.0000   XZ=              0.0000   YZ=              0.0000
 Octapole moment (field-independent basis, Debye-Ang**2):
  XXX=              0.0000  YYY=              0.0000  ZZZ=              0.0000  XYY=             -0.0000
  XXY=             -0.0000  XXZ=              0.0000  XZZ=              0.0000  YZZ=              0.0000
  YYZ=              0.0000  XYZ=              0.0000
 Hexadecapole moment (field-independent basis, Debye-Ang**3):
 XXXX=           -195.4675 YYYY=           -209.9564 ZZZZ=            -34.1494 XXXY=              0.0000
 XXXZ=              0.0000 YYYX=              0.0000 YYYZ=              0.0000 ZZZX=             -0.0000
 ZZZY=             -0.0000 XXYY=            -66.0370 XXZZ=            -51.9749 YYZZ=            -55.3047
 XXYZ=              0.0000 YYXZ=              0.0000 ZZXY=              0.0000
 N-N= 2.035439980921D+02 E-N=-9.348940139306D+02  KE= 2.305922353544D+02
 Symmetry AG   KE= 7.451922763631D+01
 Symmetry B1G  KE= 3.776570455130D+01
 Symmetry B2G  KE= 1.197133607967D+00
 Symmetry B3G  KE= 2.341383119544D+00
 Symmetry AU   KE= 6.134307513936D-17
 Symmetry B1U  KE= 1.957621689093D+00
 Symmetry B2U  KE= 7.220050916773D+01
 Symmetry B3U  KE= 4.061065558243D+01
 Symmetry AG   SP= 1.355501404480D-14
 Symmetry B1G  SP=-1.063084794078D-14
 Symmetry B2G  SP= 1.000000000000D+00
 Symmetry B3G  SP=-2.238904591237D-15
 Symmetry AU   SP= 4.100928575565D-17
 Symmetry B1U  SP= 3.969860464664D-15
 Symmetry B2U  SP=-1.266926152746D-14
 Symmetry B3U  SP= 2.002196151929D-15
                          Isotropic Fermi Contact Couplings
        Atom                 a.u.       MegaHertz       Gauss      10(-4) cm-1
     1  C(13)             -0.03199     -35.96103     -12.83179     -11.99531
     2  C(13)              0.04344      48.83778      17.42653      16.29053
     3  C(13)              0.04344      48.83778      17.42653      16.29053
     4  C(13)             -0.03199     -35.96103     -12.83179     -11.99531
     5  C(13)              0.04344      48.83778      17.42653      16.29053
     6  C(13)              0.04344      48.83778      17.42653      16.29053
     7  H(1)               0.00201       8.96464       3.19881       2.99028
     8  H(1)              -0.00641     -28.66723     -10.22918      -9.56236
     9  H(1)              -0.00641     -28.66723     -10.22918      -9.56236
    10  H(1)               0.00201       8.96464       3.19881       2.99028
    11  H(1)              -0.00641     -28.66723     -10.22918      -9.56236
    12  H(1)              -0.00641     -28.66723     -10.22918      -9.56236
 --------------------------------------------------------
       Center         ----  Spin Dipole Couplings  ----
                      3XX-RR        3YY-RR        3ZZ-RR
 --------------------------------------------------------
     1   Atom        0.071300      0.063506     -0.134806
     2   Atom       -0.188257     -0.180893      0.369150
     3   Atom       -0.188257     -0.180893      0.369150
     4   Atom        0.071300      0.063506     -0.134806
     5   Atom       -0.188257     -0.180893      0.369150
     6   Atom       -0.188257     -0.180893      0.369150
     7   Atom        0.006570     -0.000950     -0.005620
     8   Atom        0.011244     -0.003674     -0.007570
     9   Atom        0.011244     -0.003674     -0.007570
    10   Atom        0.006570     -0.000950     -0.005620
    11   Atom        0.011244     -0.003674     -0.007570
    12   Atom        0.011244     -0.003674     -0.007570
 --------------------------------------------------------
                        XY            XZ            YZ
 --------------------------------------------------------
     1   Atom        0.000000      0.000000      0.000000
     2   Atom       -0.004883     -0.000000     -0.000000
     3   Atom        0.004883     -0.000000      0.000000
     4   Atom       -0.000000      0.000000     -0.000000
     5   Atom       -0.004883      0.000000      0.000000
     6   Atom        0.004883      0.000000     -0.000000
     7   Atom        0.000000      0.000000     -0.000000
     8   Atom       -0.028494     -0.000000      0.000000
     9   Atom        0.028494     -0.000000     -0.000000
    10   Atom       -0.000000     -0.000000      0.000000
    11   Atom       -0.028494      0.000000     -0.000000
    12   Atom        0.028494      0.000000      0.000000
 --------------------------------------------------------


 ---------------------------------------------------------------------------------
              Anisotropic Spin Dipole Couplings in Principal Axis System
 ---------------------------------------------------------------------------------

       Atom             a.u.   MegaHertz   Gauss  10(-4) cm-1        Axes

              Baa    -0.1348   -18.090    -6.455    -6.034  0.0000  0.0000  1.0000
     1 C(13)  Bbb     0.0635     8.522     3.041     2.843 -0.0000  1.0000 -0.0000
              Bcc     0.0713     9.568     3.414     3.191  1.0000  0.0000 -0.0000
 
              Baa    -0.1907   -25.589    -9.131    -8.536  0.8950  0.4460 -0.0000
     2 C(13)  Bbb    -0.1785   -23.948    -8.545    -7.988 -0.4460  0.8950 -0.0000
              Bcc     0.3692    49.536    17.676    16.524  0.0000  0.0000  1.0000
 
              Baa    -0.1907   -25.589    -9.131    -8.536  0.8950 -0.4460  0.0000
     3 C(13)  Bbb    -0.1785   -23.948    -8.545    -7.988  0.4460  0.8950 -0.0000
              Bcc     0.3692    49.536    17.676    16.524  0.0000  0.0000  1.0000
 
              Baa    -0.1348   -18.090    -6.455    -6.034  0.0000  0.0000  1.0000
     4 C(13)  Bbb     0.0635     8.522     3.041     2.843  0.0000  1.0000  0.0000
              Bcc     0.0713     9.568     3.414     3.191  1.0000 -0.0000  0.0000
 
              Baa    -0.1907   -25.589    -9.131    -8.536  0.8950  0.4460 -0.0000
     5 C(13)  Bbb    -0.1785   -23.948    -8.545    -7.988 -0.4460  0.8950 -0.0000
              Bcc     0.3692    49.536    17.676    16.524  0.0000  0.0000  1.0000
 
              Baa    -0.1907   -25.589    -9.131    -8.536  0.8950 -0.4460  0.0000
     6 C(13)  Bbb    -0.1785   -23.948    -8.545    -7.988  0.4460  0.8950 -0.0000
              Bcc     0.3692    49.536    17.676    16.524  0.0000  0.0000  1.0000
 
              Baa    -0.0056    -2.998    -1.070    -1.000  0.0000  0.0000  1.0000
     7 H(1)   Bbb    -0.0010    -0.507    -0.181    -0.169 -0.0000  1.0000 -0.0000
              Bcc     0.0066     3.505     1.251     1.169  1.0000  0.0000 -0.0000
 
              Baa    -0.0257   -13.696    -4.887    -4.569  0.6110  0.7916  0.0000
     8 H(1)   Bbb    -0.0076    -4.039    -1.441    -1.347  0.0000  0.0000  1.0000
              Bcc     0.0332    17.735     6.328     5.916  0.7916 -0.6110  0.0000
 
              Baa    -0.0257   -13.696    -4.887    -4.569 -0.6110  0.7916  0.0000
     9 H(1)   Bbb    -0.0076    -4.039    -1.441    -1.347  0.0000  0.0000  1.0000
              Bcc     0.0332    17.735     6.328     5.916  0.7916  0.6110 -0.0000
 
              Baa    -0.0056    -2.998    -1.070    -1.000  0.0000  0.0000  1.0000
    10 H(1)   Bbb    -0.0010    -0.507    -0.181    -0.169  0.0000  1.0000  0.0000
              Bcc     0.0066     3.505     1.251     1.169  1.0000 -0.0000  0.0000
 
              Baa    -0.0257   -13.696    -4.887    -4.569  0.6110  0.7916  0.0000
    11 H(1)   Bbb    -0.0076    -4.039    -1.441    -1.347  0.0000  0.0000  1.0000
              Bcc     0.0332    17.735     6.328     5.916  0.7916 -0.6110  0.0000
 
              Baa    -0.0257   -13.696    -4.887    -4.569 -0.6110  0.7916  0.0000
    12 H(1)   Bbb    -0.0076    -4.039    -1.441    -1.347  0.0000  0.0000  1.0000
              Bcc     0.0332    17.735     6.328     5.916  0.7916  0.6110 -0.0000
 

 ---------------------------------------------------------------------------------

 No NMR shielding tensors so no spin-rotation constants.
 Leave Link  601 at Wed Apr 22 16:20:38 2020, MaxMem=  6710886400 cpu:               3.8 elap:               0.4
 (Enter /opt/ohpc/pub/libs/gaussian/g16-A.03/sandybridge/g16/l9999.exe)

 Test job not archived.
 1\1\GINC-CNODE136\SP\ULC-wHPBE\6-31G\C6H6(1+,2)\QAI222\22-Apr-2020\0\\
 #P uLC-wHPBE/6-31G iop(3/107=0321900000, 3/108=0321900000) scf=(conver
 =6,fermi,ndamp=35,noincfock,novaracc,vshift=500,xqc)\\H6 C6\\1,2\C,0,0
 .,1.39316,0.\C,0,-1.206512,0.69658,0.\C,0,-1.206512,-0.69658,0.\C,0,0.
 ,-1.39316,0.\C,0,1.206512,-0.69658,0.\C,0,1.206512,0.69658,0.\H,0,0.,2
 .482681,0.\H,0,-2.150065,1.24134,0.\H,0,-2.150065,-1.24134,0.\H,0,0.,-
 2.482681,0.\H,0,2.150065,-1.24134,0.\H,0,2.150065,1.24134,0.\\Version=
 EM64L-G16RevA.03\HF=-231.6686272\S2=0.77708\S2-1=0.\S2A=0.750352\RMSD=
 6.590e-07\Dipole=0.,0.,0.\Quadrupole=5.1359635,2.3876491,-7.5236125,0.
 ,0.,0.\PG=D06H [3C2'(H1C1.C1H1)]\\@


 A leading authority is anyone who has guessed right more than once.
 -- Frank A. Clark
 Job cpu time:       0 days  0 hours  0 minutes 43.7 seconds.
 Elapsed time:       0 days  0 hours  0 minutes  3.3 seconds.
 File lengths (MBytes):  RWF=    272 Int=      0 D2E=      0 Chk=     32 Scr=     32
 Normal termination of Gaussian 16 at Wed Apr 22 16:20:38 2020.
