 Entering Gaussian System, Link 0=g16
 Input=1b_tune_n1.gjf
 Output=1b_tune_n1.log
 Initial command:
 /opt/ohpc/pub/libs/gaussian/g16-A.03/haswell/g16/l1.exe "/scratch/smgo234/Ocelot/test/1b/tuning_1b_ocycle0/Gau-32865.inp" -scrdir="/scratch/smgo234/Ocelot/test/1b/tuning_1b_ocycle0/"
 Entering Link 1 = /opt/ohpc/pub/libs/gaussian/g16-A.03/haswell/g16/l1.exe PID=     32866.
  
 Copyright (c) 1988,1990,1992,1993,1995,1998,2003,2009,2016,
            Gaussian, Inc.  All Rights Reserved.
  
 This is part of the Gaussian(R) 16 program.  It is based on
 the Gaussian(R) 09 system (copyright 2009, Gaussian, Inc.),
 the Gaussian(R) 03 system (copyright 2003, Gaussian, Inc.),
 the Gaussian(R) 98 system (copyright 1998, Gaussian, Inc.),
 the Gaussian(R) 94 system (copyright 1995, Gaussian, Inc.),
 the Gaussian 92(TM) system (copyright 1992, Gaussian, Inc.),
 the Gaussian 90(TM) system (copyright 1990, Gaussian, Inc.),
 the Gaussian 88(TM) system (copyright 1988, Gaussian, Inc.),
 the Gaussian 86(TM) system (copyright 1986, Carnegie Mellon
 University), and the Gaussian 82(TM) system (copyright 1983,
 Carnegie Mellon University). Gaussian is a federally registered
 trademark of Gaussian, Inc.
  
 This software contains proprietary and confidential information,
 including trade secrets, belonging to Gaussian, Inc.
  
 This software is provided under written license and may be
 used, copied, transmitted, or stored only in accord with that
 written license.
  
 The following legend is applicable only to US Government
 contracts under FAR:
  
                    RESTRICTED RIGHTS LEGEND
  
 Use, reproduction and disclosure by the US Government is
 subject to restrictions as set forth in subparagraphs (a)
 and (c) of the Commercial Computer Software - Restricted
 Rights clause in FAR 52.227-19.
  
 Gaussian, Inc.
 340 Quinnipiac St., Bldg. 40, Wallingford CT 06492
  
  
 ---------------------------------------------------------------
 Warning -- This program may not be used in any manner that
 competes with the business of Gaussian, Inc. or will provide
 assistance to any competitor of Gaussian, Inc.  The licensee
 of this program is prohibited from giving any competitor of
 Gaussian, Inc. access to this program.  By using this program,
 the user acknowledges that Gaussian, Inc. is engaged in the
 business of creating and licensing software in the field of
 computational chemistry and represents and warrants to the
 licensee that it is not a competitor of Gaussian, Inc. and that
 it will not use this program in any manner prohibited above.
 ---------------------------------------------------------------
  

 Cite this work as:
 Gaussian 16, Revision A.03,
 M. J. Frisch, G. W. Trucks, H. B. Schlegel, G. E. Scuseria, 
 M. A. Robb, J. R. Cheeseman, G. Scalmani, V. Barone, 
 G. A. Petersson, H. Nakatsuji, X. Li, M. Caricato, A. V. Marenich, 
 J. Bloino, B. G. Janesko, R. Gomperts, B. Mennucci, H. P. Hratchian, 
 J. V. Ortiz, A. F. Izmaylov, J. L. Sonnenberg, D. Williams-Young, 
 F. Ding, F. Lipparini, F. Egidi, J. Goings, B. Peng, A. Petrone, 
 T. Henderson, D. Ranasinghe, V. G. Zakrzewski, J. Gao, N. Rega, 
 G. Zheng, W. Liang, M. Hada, M. Ehara, K. Toyota, R. Fukuda, 
 J. Hasegawa, M. Ishida, T. Nakajima, Y. Honda, O. Kitao, H. Nakai, 
 T. Vreven, K. Throssell, J. A. Montgomery, Jr., J. E. Peralta, 
 F. Ogliaro, M. J. Bearpark, J. J. Heyd, E. N. Brothers, K. N. Kudin, 
 V. N. Staroverov, T. A. Keith, R. Kobayashi, J. Normand, 
 K. Raghavachari, A. P. Rendell, J. C. Burant, S. S. Iyengar, 
 J. Tomasi, M. Cossi, J. M. Millam, M. Klene, C. Adamo, R. Cammi, 
 J. W. Ochterski, R. L. Martin, K. Morokuma, O. Farkas, 
 J. B. Foresman, and D. J. Fox, Gaussian, Inc., Wallingford CT, 2016.
 
 ******************************************
 Gaussian 16:  ES64L-G16RevA.03 25-Dec-2016
                25-Feb-2020 
 ******************************************
 %mem=50GB
 %nproc=16
 Will use up to   16 processors via shared memory.
 ----------------------------------------------------------------------
 #P uLC-wHPBE/6-31G iop(3/107=0328100000, 3/108=0328100000) scf=(conver
 =6,fermi,ndamp=35,noincfock,novaracc,vshift=500,xqc)
 ----------------------------------------------------------------------
 1/38=1,172=1/1;
 2/12=2,17=6,18=5,40=1/2;
 3/5=1,6=6,11=2,25=1,30=1,74=-71,107=328100000,108=328100000,116=2/1,2,3;
 4//1;
 5/5=100002,6=6,8=3,10=500,13=1,18=-1,22=13,38=1,93=35/2,8;
 6/7=2,8=2,9=2,10=2,28=1/1;
 99/5=1,9=1/99;
 Leave Link    1 at Tue Feb 25 12:19:28 2020, MaxMem=  6710886400 cpu:               9.9 elap:               0.7
 (Enter /opt/ohpc/pub/libs/gaussian/g16-A.03/haswell/g16/l101.exe)
 -----
 H6 C5
 -----
 Symbolic Z-matrix:
 Charge =  0 Multiplicity = 1
 C                    -1.20651   0.69658   0. 
 C                    -1.20651  -0.69658   0. 
 C                     0.       -1.39316   0. 
 C                     1.20651  -0.69658   0. 
 C                     1.20651   0.69658   0. 
 H                     0.        2.48268   0. 
 H                    -2.15007   1.24134   0. 
 H                    -2.15007  -1.24134   0. 
 H                     0.       -2.48268   0. 
 H                     2.15007  -1.24134   0. 
 H                     2.15007   1.24134   0. 
 
 ITRead=  0  0  0  0  0  0  0  0  0  0  0
 MicOpt= -1 -1 -1 -1 -1 -1 -1 -1 -1 -1 -1
 NAtoms=     11 NQM=       11 NQMF=       0 NMMI=      0 NMMIF=      0
                NMic=       0 NMicF=      0.
                    Isotopes and Nuclear Properties:
 (Nuclear quadrupole moments (NQMom) in fm**2, nuclear magnetic moments (NMagM)
  in nuclear magnetons)

  Atom         1           2           3           4           5           6           7           8           9          10
 IAtWgt=          12          12          12          12          12           1           1           1           1           1
 AtmWgt=  12.0000000  12.0000000  12.0000000  12.0000000  12.0000000   1.0078250   1.0078250   1.0078250   1.0078250   1.0078250
 NucSpn=           0           0           0           0           0           1           1           1           1           1
 AtZEff=  -0.0000000  -0.0000000  -0.0000000  -0.0000000  -0.0000000  -0.0000000  -0.0000000  -0.0000000  -0.0000000  -0.0000000
 NQMom=    0.0000000   0.0000000   0.0000000   0.0000000   0.0000000   0.0000000   0.0000000   0.0000000   0.0000000   0.0000000
 NMagM=    0.0000000   0.0000000   0.0000000   0.0000000   0.0000000   2.7928460   2.7928460   2.7928460   2.7928460   2.7928460
 AtZNuc=   6.0000000   6.0000000   6.0000000   6.0000000   6.0000000   1.0000000   1.0000000   1.0000000   1.0000000   1.0000000

  Atom        11
 IAtWgt=           1
 AtmWgt=   1.0078250
 NucSpn=           1
 AtZEff=  -0.0000000
 NQMom=    0.0000000
 NMagM=    2.7928460
 AtZNuc=   1.0000000
 Leave Link  101 at Tue Feb 25 12:19:28 2020, MaxMem=  6710886400 cpu:               2.2 elap:               0.2
 (Enter /opt/ohpc/pub/libs/gaussian/g16-A.03/haswell/g16/l202.exe)
                          Input orientation:                          
 ---------------------------------------------------------------------
 Center     Atomic      Atomic             Coordinates (Angstroms)
 Number     Number       Type             X           Y           Z
 ---------------------------------------------------------------------
      1          6           0       -1.206512    0.696580    0.000000
      2          6           0       -1.206512   -0.696580    0.000000
      3          6           0        0.000000   -1.393160    0.000000
      4          6           0        1.206512   -0.696580    0.000000
      5          6           0        1.206512    0.696580    0.000000
      6          1           0        0.000000    2.482681    0.000000
      7          1           0       -2.150065    1.241340    0.000000
      8          1           0       -2.150065   -1.241340    0.000000
      9          1           0        0.000000   -2.482681    0.000000
     10          1           0        2.150065   -1.241340    0.000000
     11          1           0        2.150065    1.241340    0.000000
 ---------------------------------------------------------------------
                    Distance matrix (angstroms):
                    1          2          3          4          5
     1  C    0.000000
     2  C    1.393160   0.000000
     3  C    2.413024   1.393160   0.000000
     4  C    2.786320   2.413024   1.393160   0.000000
     5  C    2.413024   2.786320   2.413024   1.393160   0.000000
     6  H    2.155418   3.400496   3.875841   3.400496   2.155418
     7  H    1.089521   2.155418   3.400496   3.875841   3.400496
     8  H    2.155418   1.089521   2.155418   3.400496   3.875841
     9  H    3.400496   2.155418   1.089521   2.155418   3.400496
    10  H    3.875841   3.400496   2.155418   1.089521   2.155418
    11  H    3.400496   3.875841   3.400496   2.155418   1.089521
                    6          7          8          9         10
     6  H    0.000000
     7  H    2.482681   0.000000
     8  H    4.300129   2.482680   0.000000
     9  H    4.965362   4.300129   2.482681   0.000000
    10  H    4.300129   4.965362   4.300130   2.482681   0.000000
    11  H    2.482681   4.300130   4.965362   4.300129   2.482680
                   11
    11  H    0.000000
 Stoichiometry    C5H6
 Framework group  C2V[C2(HCH),SGV(C4H4)]
 Deg. of freedom    10
 Full point group                 C2V     NOp   4
 Largest Abelian subgroup         C2V     NOp   4
 Largest concise Abelian subgroup C2      NOp   2
                         Standard orientation:                         
 ---------------------------------------------------------------------
 Center     Atomic      Atomic             Coordinates (Angstroms)
 Number     Number       Type             X           Y           Z
 ---------------------------------------------------------------------
      1          6           0       -0.000000    1.206512   -0.928773
      2          6           0       -0.000000    1.206512    0.464387
      3          6           0        0.000000    0.000000    1.160967
      4          6           0       -0.000000   -1.206512    0.464387
      5          6           0       -0.000000   -1.206512   -0.928773
      6          1           0       -0.000000   -0.000000   -2.714874
      7          1           0       -0.000000    2.150065   -1.473533
      8          1           0       -0.000000    2.150065    1.009147
      9          1           0        0.000000    0.000000    2.250488
     10          1           0       -0.000000   -2.150065    1.009147
     11          1           0       -0.000000   -2.150065   -1.473533
 ---------------------------------------------------------------------
 Rotational constants (GHZ):           8.2868568           5.7099792           3.3806054
 Leave Link  202 at Tue Feb 25 12:19:28 2020, MaxMem=  6710886400 cpu:               0.2 elap:               0.0
 (Enter /opt/ohpc/pub/libs/gaussian/g16-A.03/haswell/g16/l301.exe)
 Standard basis: 6-31G (6D, 7F)
 Ernie: Thresh=  0.10000D-02 Tol=  0.10000D-05 Strict=F.
 There are    27 symmetry adapted cartesian basis functions of A1  symmetry.
 There are     4 symmetry adapted cartesian basis functions of A2  symmetry.
 There are     6 symmetry adapted cartesian basis functions of B1  symmetry.
 There are    20 symmetry adapted cartesian basis functions of B2  symmetry.
 There are    27 symmetry adapted basis functions of A1  symmetry.
 There are     4 symmetry adapted basis functions of A2  symmetry.
 There are     6 symmetry adapted basis functions of B1  symmetry.
 There are    20 symmetry adapted basis functions of B2  symmetry.
    57 basis functions,   134 primitive gaussians,    57 cartesian basis functions
    18 alpha electrons       18 beta electrons
       nuclear repulsion energy       145.0218997931 Hartrees.
 IExCor=33909 DFT=T Ex+Corr=LC-wHPBE ExCW=0 ScaHFX=  1.000000
 ScaDFX=  1.000000  1.000000  1.000000  1.000000 ScalE2=  1.000000  1.000000
 IRadAn=      5 IRanWt=     -1 IRanGd=            0 ICorTp=0 IEmpDi=  4
 HFx  wShort=  0.000000 wLong=  0.328100 cFull=  0.000000 cShort=  0.000000 cLong=  1.000000
 DFx  wShort=  0.000000 wLong=  0.328100 cFull=  0.000000 cShort=  1.000000 cLong=  0.000000
 NAtoms=   11 NActive=   11 NUniq=    7 SFac= 2.47D+00 NAtFMM=   60 NAOKFM=F Big=F
 Integral buffers will be    131072 words long.
 Raffenetti 2 integral format.
 Two-electron integral symmetry is turned on.
 Leave Link  301 at Tue Feb 25 12:19:28 2020, MaxMem=  6710886400 cpu:               0.8 elap:               0.1
 (Enter /opt/ohpc/pub/libs/gaussian/g16-A.03/haswell/g16/l302.exe)
 NPDir=0 NMtPBC=     1 NCelOv=     1 NCel=       1 NClECP=     1 NCelD=      1
         NCelK=      1 NCelE2=     1 NClLst=     1 CellRange=     0.0.
 One-electron integrals computed using PRISM.
 One-electron integral symmetry used in STVInt
 NBasis=    57 RedAO= T EigKep=  2.88D-03  NBF=    27     4     6    20
 NBsUse=    57 1.00D-06 EigRej= -1.00D+00 NBFU=    27     4     6    20
 Precomputing XC quadrature grid using
 IXCGrd= 4 IRadAn=           5 IRanWt=          -1 IRanGd=           0 AccXCQ= 0.00D+00.
 Generated NRdTot=       0 NPtTot=           0 NUsed=           0 NTot=          32
 NSgBfM=    57    57    57    57    57 MxSgAt=    11 MxSgA2=    11.
 Leave Link  302 at Tue Feb 25 12:19:28 2020, MaxMem=  6710886400 cpu:               3.0 elap:               0.2
 (Enter /opt/ohpc/pub/libs/gaussian/g16-A.03/haswell/g16/l303.exe)
 DipDrv:  MaxL=1.
 Leave Link  303 at Tue Feb 25 12:19:28 2020, MaxMem=  6710886400 cpu:               0.4 elap:               0.0
 (Enter /opt/ohpc/pub/libs/gaussian/g16-A.03/haswell/g16/l401.exe)
 ExpMin= 1.61D-01 ExpMax= 3.05D+03 ExpMxC= 4.57D+02 IAcc=3 IRadAn=         5 AccDes= 0.00D+00
 Harris functional with IExCor=33909 and IRadAn=       5 diagonalized for initial guess.
 HarFok:  IExCor=33909 AccDes= 0.00D+00 IRadAn=         5 IDoV= 1 UseB2=F ITyADJ=14
 ICtDFT=  3500011 ScaDFX=  1.000000  1.000000  1.000000  1.000000
 FoFCou: FMM=F IPFlag=           0 FMFlag=      100000 FMFlg1=           0
         NFxFlg=           0 DoJE=T BraDBF=F KetDBF=T FulRan=T
         wScrn=  0.000000 ICntrl=       500 IOpCl=  0 I1Cent=   200000004 NGrid=           0
         NMat0=    1 NMatS0=      1 NMatT0=    0 NMatD0=    1 NMtDS0=    0 NMtDT0=    0
 Petite list used in FoFCou.
 Harris En= -187.688395699662    
 JPrj=0 DoOrth=F DoCkMO=F.
 Initial guess orbital symmetries:
 Alpha Orbitals:
       Occupied  (A1) (B2) (A1) (B2) (A1) (A1) (B2) (A1) (B2) (A1)
                 (A1) (B2) (B2) (A1) (B1) (A1) (A2) (B1)
       Virtual   (B2) (A1) (A2) (B1) (A1) (B2) (A1) (B2) (A1) (A1)
                 (B2) (A1) (B2) (B1) (B2) (A1) (B1) (A2) (A1) (B2)
                 (A1) (A2) (B1) (B2) (A1) (A1) (B2) (A1) (B2) (A1)
                 (A1) (B2) (A1) (A1) (B2) (B2) (A1) (A1) (B2)
 Beta  Orbitals:
       Occupied  (A1) (B2) (A1) (B2) (A1) (A1) (B2) (A1) (B2) (A1)
                 (A1) (B2) (B2) (A1) (B1) (A1) (A2) (B1)
       Virtual   (B2) (A1) (A2) (B1) (A1) (B2) (A1) (B2) (A1) (A1)
                 (B2) (A1) (B2) (B1) (B2) (A1) (B1) (A2) (A1) (B2)
                 (A1) (A2) (B1) (B2) (A1) (A1) (B2) (A1) (B2) (A1)
                 (A1) (B2) (A1) (A1) (B2) (B2) (A1) (A1) (B2)
 The electronic state of the initial guess is 1-A1.
 Initial guess <Sx>= 0.0000 <Sy>= 0.0000 <Sz>= 0.0000 <S**2>=-0.0000 S=-0.0000
 Leave Link  401 at Tue Feb 25 12:19:29 2020, MaxMem=  6710886400 cpu:               4.2 elap:               0.3
 (Enter /opt/ohpc/pub/libs/gaussian/g16-A.03/haswell/g16/l502.exe)
 Keep R1 and R2 ints in memory in symmetry-blocked form, NReq=16815659.
 FoFCou: FMM=F IPFlag=           0 FMFlag=           0 FMFlg1=           0
         NFxFlg=           0 DoJE=F BraDBF=F KetDBF=F FulRan=T
         wScrn=  0.000000 ICntrl=       600 IOpCl=  0 I1Cent=           0 NGrid=           0
         NMat0=    1 NMatS0=   1653 NMatT0=    0 NMatD0=    1 NMtDS0=    0 NMtDT0=    0
 Petite list used in FoFCou.
 UHF open shell SCF:
 Using DIIS extrapolation, IDIIS=    10.
 NGot=  6710886400 LenX=  6710059583 LenY=  6710055893
 Requested convergence on RMS density matrix=1.00D-06 within  32 cycles.
 Requested convergence on MAX density matrix=1.00D-04.
 Requested convergence on             energy=1.00D-04.
 Virtual orbitals will be shifted by   0.500 hartree.
 No special actions if energy rises.
 Dynamic level shift is on during FON iterations.

 Cycle   1  Pass 1  IDiag  1:
 E= -193.379166950184    
 DIIS: error= 4.53D-02 at cycle   1 NSaved=   1.
 NSaved= 1 IEnMin= 1 EnMin= -193.379166950184     IErMin= 1 ErrMin= 4.53D-02
 ErrMax= 4.53D-02  0.00D+00 EMaxC= 1.00D+00 BMatC= 4.32D-01 BMatP= 4.32D-01
 IDIUse=1 WtCom= 1.00D+00 WtEn= 0.00D+00
 Coeff-Com:  0.100D+01
 Coeff:      0.100D+01
 Gap=     0.007 Goal=   None    Shift=    0.500
 T= 1744. Gap= 0.466 NK=0 IS=   19 IE=   57 IFin=   18
          NO(<0.9)=   0  NV(>0.1)=   0     18.00e < EF      0.00e >EF  Err=0.0D+00
 Gap=     0.007 Goal=   None    Shift=    0.500
 T= 1744. Gap= 0.466 NK=0 IS=   19 IE=   57 IFin=   18
          NO(<0.9)=   0  NV(>0.1)=   0     18.00e < EF      0.00e >EF  Err=0.0D+00
 GapD=    0.007 DampG=0.250 DampE=0.500 DampFc=0.1250 IDamp=-1.
 Damping current iteration by 1.25D-01
 RMSDP=2.26D-02 MaxDP=5.09D-01              OVMax= 1.38D-01

 Cycle   2  Pass 1  IDiag  1:
 E= -193.402279612003     Delta-E=       -0.023112661819 Rises=F Damp=T
 DIIS: error= 3.41D-02 at cycle   2 NSaved=   2.
 NSaved= 2 IEnMin= 2 EnMin= -193.402279612003     IErMin= 2 ErrMin= 3.41D-02
 ErrMax= 3.41D-02  0.00D+00 EMaxC= 1.00D+00 BMatC= 2.44D-01 BMatP= 4.32D-01
 IDIUse=1 WtCom= 1.00D+00 WtEn= 0.00D+00
 Coeff-Com: -0.273D+01 0.373D+01
 Coeff:     -0.273D+01 0.373D+01
 Gap=     0.015 Goal=   None    Shift=    0.500
 T= 1692. Gap= 0.526 NK=0 IS=   19 IE=   57 IFin=   18
          NO(<0.9)=   0  NV(>0.1)=   0     18.00e < EF      0.00e >EF  Err=0.0D+00
 Gap=     0.015 Goal=   None    Shift=    0.500
 T= 1692. Gap= 0.526 NK=0 IS=   19 IE=   57 IFin=   18
          NO(<0.9)=   0  NV(>0.1)=   0     18.00e < EF      0.00e >EF  Err=0.0D+00
 GapD=    0.015 DampG=0.250 DampE=0.500 DampFc=0.1250 IDamp=-1.
 Damping current iteration by 1.25D-01
 RMSDP=7.42D-03 MaxDP=4.94D-02 DE=-2.31D-02 OVMax= 1.06D-01

 Cycle   3  Pass 1  IDiag  1:
 E= -193.421501329740     Delta-E=       -0.019221717737 Rises=F Damp=T
 DIIS: error= 3.01D-02 at cycle   3 NSaved=   3.
 NSaved= 3 IEnMin= 3 EnMin= -193.421501329740     IErMin= 3 ErrMin= 3.01D-02
 ErrMax= 3.01D-02  0.00D+00 EMaxC= 1.00D+00 BMatC= 1.85D-01 BMatP= 2.44D-01
 IDIUse=1 WtCom= 1.00D+00 WtEn= 0.00D+00
 Coeff-Com: -0.126D+01-0.221D+01 0.447D+01
 Coeff:     -0.126D+01-0.221D+01 0.447D+01
 Gap=     0.113 Goal=   None    Shift=    0.500
 T= 1614. Gap= 0.613 NK=0 IS=   19 IE=   57 IFin=   18
          NO(<0.9)=   0  NV(>0.1)=   0     18.00e < EF      0.00e >EF  Err=0.0D+00
 Gap=     0.113 Goal=   None    Shift=    0.500
 T= 1614. Gap= 0.613 NK=0 IS=   19 IE=   57 IFin=   18
          NO(<0.9)=   0  NV(>0.1)=   0     18.00e < EF      0.00e >EF  Err=0.0D+00
 GapD=    0.113 DampG=1.000 DampE=0.500 DampFc=0.5000 IDamp=-1.
 Damping current iteration by 5.00D-01
 RMSDP=6.16D-03 MaxDP=4.22D-02 DE=-1.92D-02 OVMax= 2.64D-02

 Cycle   4  Pass 1  IDiag  1:
 E= -193.484852828930     Delta-E=       -0.063351499190 Rises=F Damp=T
 DIIS: error= 1.83D-02 at cycle   4 NSaved=   4.
 NSaved= 4 IEnMin= 4 EnMin= -193.484852828930     IErMin= 4 ErrMin= 1.83D-02
 ErrMax= 1.83D-02  0.00D+00 EMaxC= 1.00D+00 BMatC= 5.91D-02 BMatP= 1.85D-01
 IDIUse=1 WtCom= 1.00D+00 WtEn= 0.00D+00
 Coeff-Com: -0.760D+00 0.549D+01-0.688D+01 0.315D+01
 Coeff:     -0.760D+00 0.549D+01-0.688D+01 0.315D+01
 Gap=     0.147 Goal=   None    Shift=    0.500
 T= 1444. Gap= 0.647 NK=0 IS=   19 IE=   57 IFin=   18
          NO(<0.9)=   0  NV(>0.1)=   0     18.00e < EF      0.00e >EF  Err=0.0D+00
 Gap=     0.147 Goal=   None    Shift=    0.500
 T= 1444. Gap= 0.647 NK=0 IS=   19 IE=   57 IFin=   18
          NO(<0.9)=   0  NV(>0.1)=   0     18.00e < EF      0.00e >EF  Err=0.0D+00
 GapD=    0.147 DampG=1.000 DampE=0.500 DampFc=0.5000 IDamp=-1.
 Damping current iteration by 5.00D-01
 RMSDP=3.49D-03 MaxDP=2.61D-02 DE=-6.34D-02 OVMax= 9.62D-03

 Cycle   5  Pass 1  IDiag  1:
 E= -193.516880612539     Delta-E=       -0.032027783608 Rises=F Damp=T
 DIIS: error= 1.26D-02 at cycle   5 NSaved=   5.
 NSaved= 5 IEnMin= 5 EnMin= -193.516880612539     IErMin= 5 ErrMin= 1.26D-02
 ErrMax= 1.26D-02  0.00D+00 EMaxC= 1.00D+00 BMatC= 2.25D-02 BMatP= 5.91D-02
 IDIUse=1 WtCom= 1.00D+00 WtEn= 0.00D+00
 Coeff-Com: -0.343D+00-0.631D+00 0.267D+01-0.529D+01 0.459D+01
 Coeff:     -0.343D+00-0.631D+00 0.267D+01-0.529D+01 0.459D+01
 Gap=     0.168 Goal=   None    Shift=    0.500
 T= 1264. Gap= 0.668 NK=0 IS=   19 IE=   57 IFin=   18
          NO(<0.9)=   0  NV(>0.1)=   0     18.00e < EF      0.00e >EF  Err=0.0D+00
 Gap=     0.168 Goal=   None    Shift=    0.500
 T= 1264. Gap= 0.668 NK=0 IS=   19 IE=   57 IFin=   18
          NO(<0.9)=   0  NV(>0.1)=   0     18.00e < EF      0.00e >EF  Err=0.0D+00
 GapD=    0.168 DampG=1.000 DampE=0.500 DampFc=0.5000 IDamp=-1.
 Damping current iteration by 5.00D-01
 RMSDP=2.19D-03 MaxDP=1.67D-02 DE=-3.20D-02 OVMax= 9.35D-03

 Cycle   6  Pass 1  IDiag  1:
 E= -193.533683983818     Delta-E=       -0.016803371280 Rises=F Damp=T
 DIIS: error= 8.78D-03 at cycle   6 NSaved=   6.
 NSaved= 6 IEnMin= 6 EnMin= -193.533683983818     IErMin= 6 ErrMin= 8.78D-03
 ErrMax= 8.78D-03  0.00D+00 EMaxC= 1.00D+00 BMatC= 8.91D-03 BMatP= 2.25D-02
 IDIUse=1 WtCom= 1.00D+00 WtEn= 0.00D+00
 Coeff-Com: -0.176D+00-0.158D+01 0.302D+01-0.223D+01-0.735D+00 0.270D+01
 Coeff:     -0.176D+00-0.158D+01 0.302D+01-0.223D+01-0.735D+00 0.270D+01
 Gap=     0.176 Goal=   None    Shift=    0.500
 T= 1006. Gap= 0.676 NK=0 IS=   19 IE=   57 IFin=   18
          NO(<0.9)=   0  NV(>0.1)=   0     18.00e < EF      0.00e >EF  Err=0.0D+00
 Gap=     0.176 Goal=   None    Shift=    0.500
 T= 1006. Gap= 0.676 NK=0 IS=   19 IE=   57 IFin=   18
          NO(<0.9)=   0  NV(>0.1)=   0     18.00e < EF      0.00e >EF  Err=0.0D+00
 GapD=    0.176 DampG=1.000 DampE=1.000 DampFc=1.0000 IDamp=-1.
 RMSDP=1.38D-03 MaxDP=1.03D-02 DE=-1.68D-02 OVMax= 7.57D-03

 Cycle   7  Pass 1  IDiag  1:
 E= -193.551179426330     Delta-E=       -0.017495442511 Rises=F Damp=F
 DIIS: error= 3.38D-03 at cycle   7 NSaved=   7.
 NSaved= 7 IEnMin= 7 EnMin= -193.551179426330     IErMin= 7 ErrMin= 3.38D-03
 ErrMax= 3.38D-03  0.00D+00 EMaxC= 1.00D+00 BMatC= 7.23D-04 BMatP= 8.91D-03
 IDIUse=1 WtCom= 1.00D+00 WtEn= 0.00D+00
 Coeff-Com: -0.474D-01 0.783D+00-0.130D+01 0.112D+01 0.201D+01-0.474D+01
 Coeff-Com:  0.318D+01
 Coeff:     -0.474D-01 0.783D+00-0.130D+01 0.112D+01 0.201D+01-0.474D+01
 Coeff:      0.318D+01
 Gap=     0.186 Goal=   None    Shift=    0.500
 T=  722. Gap= 0.686 NK=0 IS=   19 IE=   57 IFin=   18
          NO(<0.9)=   0  NV(>0.1)=   0     18.00e < EF      0.00e >EF  Err=0.0D+00
 Gap=     0.186 Goal=   None    Shift=    0.500
 T=  722. Gap= 0.686 NK=0 IS=   19 IE=   57 IFin=   18
          NO(<0.9)=   0  NV(>0.1)=   0     18.00e < EF      0.00e >EF  Err=0.0D+00
 GapD=    0.186 DampG=1.000 DampE=1.000 DampFc=1.0000 IDamp=-1.
 RMSDP=2.23D-04 MaxDP=3.65D-03 DE=-1.75D-02 OVMax= 7.47D-03

 Cycle   8  Pass 1  IDiag  1:
 E= -193.551552333886     Delta-E=       -0.000372907557 Rises=F Damp=F
 DIIS: error= 2.07D-03 at cycle   8 NSaved=   8.
 NSaved= 8 IEnMin= 8 EnMin= -193.551552333886     IErMin= 8 ErrMin= 2.07D-03
 ErrMax= 2.07D-03  0.00D+00 EMaxC= 1.00D+00 BMatC= 2.55D-04 BMatP= 7.23D-04
 IDIUse=1 WtCom= 1.00D+00 WtEn= 0.00D+00
 Coeff-Com: -0.300D-01 0.760D+00-0.121D+01 0.563D+00 0.244D+01-0.413D+01
 Coeff-Com:  0.125D+01 0.136D+01
 Coeff:     -0.300D-01 0.760D+00-0.121D+01 0.563D+00 0.244D+01-0.413D+01
 Coeff:      0.125D+01 0.136D+01
 Gap=     0.188 Goal=   None    Shift=    0.500
 T=  389. Gap= 0.688 NK=0 IS=   19 IE=   57 IFin=   18
          NO(<0.9)=   0  NV(>0.1)=   0     18.00e < EF      0.00e >EF  Err=0.0D+00
 Gap=     0.188 Goal=   None    Shift=    0.500
 T=  389. Gap= 0.688 NK=0 IS=   19 IE=   57 IFin=   18
          NO(<0.9)=   0  NV(>0.1)=   0     18.00e < EF      0.00e >EF  Err=0.0D+00
 GapD=    0.188 DampG=1.000 DampE=1.000 DampFc=1.0000 IDamp=-1.
 RMSDP=1.30D-04 MaxDP=2.45D-03 DE=-3.73D-04 OVMax= 4.48D-03

 Cycle   9  Pass 1  IDiag  1:
 E= -193.551685652158     Delta-E=       -0.000133318272 Rises=F Damp=F
 DIIS: error= 1.34D-03 at cycle   9 NSaved=   9.
 NSaved= 9 IEnMin= 9 EnMin= -193.551685652158     IErMin= 9 ErrMin= 1.34D-03
 ErrMax= 1.34D-03  0.00D+00 EMaxC= 1.00D+00 BMatC= 8.91D-05 BMatP= 2.55D-04
 IDIUse=1 WtCom= 1.00D+00 WtEn= 0.00D+00
 Coeff-Com: -0.105D-01-0.502D-01 0.141D+00-0.415D+00 0.916D+00-0.743D+00
 Coeff-Com: -0.151D+00-0.515D+00 0.183D+01
 Coeff:     -0.105D-01-0.502D-01 0.141D+00-0.415D+00 0.916D+00-0.743D+00
 Coeff:     -0.151D+00-0.515D+00 0.183D+01
 Gap=     0.189 Goal=   None    Shift=    0.500
 Gap=     0.189 Goal=   None    Shift=    0.500
 GapD=    0.189 DampG=1.000 DampE=1.000 DampFc=1.0000 IDamp=-1.
 RMSDP=8.06D-05 MaxDP=1.55D-03 DE=-1.33D-04 OVMax= 3.04D-03

 Cycle  10  Pass 1  IDiag  1:
 E= -193.551735129922     Delta-E=       -0.000049477764 Rises=F Damp=F
 DIIS: error= 8.19D-04 at cycle  10 NSaved=  10.
 NSaved=10 IEnMin=10 EnMin= -193.551735129922     IErMin=10 ErrMin= 8.19D-04
 ErrMax= 8.19D-04  0.00D+00 EMaxC= 1.00D+00 BMatC= 3.05D-05 BMatP= 8.91D-05
 IDIUse=1 WtCom= 1.00D+00 WtEn= 0.00D+00
 Coeff-Com: -0.665D-02 0.936D-01-0.132D+00 0.567D-01 0.186D+00-0.337D+00
 Coeff-Com:  0.325D+00 0.458D+00-0.313D+01 0.349D+01
 Coeff:     -0.665D-02 0.936D-01-0.132D+00 0.567D-01 0.186D+00-0.337D+00
 Coeff:      0.325D+00 0.458D+00-0.313D+01 0.349D+01
 Gap=     0.189 Goal=   None    Shift=    0.500
 Gap=     0.189 Goal=   None    Shift=    0.500
 RMSDP=4.74D-05 MaxDP=8.60D-04 DE=-4.95D-05 OVMax= 1.80D-03

 Cycle  11  Pass 1  IDiag  1:
 E= -193.551751782431     Delta-E=       -0.000016652509 Rises=F Damp=F
 DIIS: error= 5.01D-04 at cycle  11 NSaved=  11.
 NSaved=11 IEnMin=11 EnMin= -193.551751782431     IErMin=11 ErrMin= 5.01D-04
 ErrMax= 5.01D-04  0.00D+00 EMaxC= 1.00D+00 BMatC= 1.06D-05 BMatP= 3.05D-05
 IDIUse=1 WtCom= 1.00D+00 WtEn= 0.00D+00
 Coeff-Com: -0.407D-02 0.504D-01-0.822D-01 0.731D-01 0.693D-01-0.191D+00
 Coeff-Com:  0.883D-01 0.374D+00-0.853D+00-0.817D+00 0.229D+01
 Coeff:     -0.407D-02 0.504D-01-0.822D-01 0.731D-01 0.693D-01-0.191D+00
 Coeff:      0.883D-01 0.374D+00-0.853D+00-0.817D+00 0.229D+01
 Gap=     0.189 Goal=   None    Shift=    0.500
 Gap=     0.189 Goal=   None    Shift=    0.500
 RMSDP=2.66D-05 MaxDP=5.06D-04 DE=-1.67D-05 OVMax= 1.08D-03

 Cycle  12  Pass 1  IDiag  1:
 E= -193.551757463670     Delta-E=       -0.000005681239 Rises=F Damp=F
 DIIS: error= 3.06D-04 at cycle  12 NSaved=  12.
 NSaved=12 IEnMin=12 EnMin= -193.551757463670     IErMin=12 ErrMin= 3.06D-04
 ErrMax= 3.06D-04  0.00D+00 EMaxC= 1.00D+00 BMatC= 3.81D-06 BMatP= 1.06D-05
 IDIUse=1 WtCom= 1.00D+00 WtEn= 0.00D+00
 Coeff-Com: -0.183D-02 0.455D-02 0.171D-02-0.198D-01 0.309D-01-0.202D-01
 Coeff-Com: -0.212D-03-0.764D-01 0.264D+00 0.646D+00-0.370D+01 0.387D+01
 Coeff:     -0.183D-02 0.455D-02 0.171D-02-0.198D-01 0.309D-01-0.202D-01
 Coeff:     -0.212D-03-0.764D-01 0.264D+00 0.646D+00-0.370D+01 0.387D+01
 Gap=     0.189 Goal=   None    Shift=    0.500
 Gap=     0.189 Goal=   None    Shift=    0.500
 RMSDP=1.58D-05 MaxDP=3.10D-04 DE=-5.68D-06 OVMax= 6.76D-04

 Cycle  13  Pass 1  IDiag  1:
 E= -193.551759526466     Delta-E=       -0.000002062796 Rises=F Damp=F
 DIIS: error= 1.82D-04 at cycle  13 NSaved=  13.
 NSaved=13 IEnMin=13 EnMin= -193.551759526466     IErMin=13 ErrMin= 1.82D-04
 ErrMax= 1.82D-04  0.00D+00 EMaxC= 1.00D+00 BMatC= 1.28D-06 BMatP= 3.81D-06
 IDIUse=1 WtCom= 1.00D+00 WtEn= 0.00D+00
 Coeff-Com: -0.361D-03 0.722D-02-0.928D-02-0.836D-03 0.810D-02-0.102D-02
 Coeff-Com:  0.168D-01 0.107D+00-0.608D+00 0.418D+00 0.183D+01-0.486D+01
 Coeff-Com:  0.409D+01
 Coeff:     -0.361D-03 0.722D-02-0.928D-02-0.836D-03 0.810D-02-0.102D-02
 Coeff:      0.168D-01 0.107D+00-0.608D+00 0.418D+00 0.183D+01-0.486D+01
 Coeff:      0.409D+01
 Gap=     0.189 Goal=   None    Shift=    0.500
 Gap=     0.189 Goal=   None    Shift=    0.500
 RMSDP=9.37D-06 MaxDP=1.94D-04 DE=-2.06D-06 OVMax= 4.12D-04

 Cycle  14  Pass 1  IDiag  1:
 E= -193.551760234364     Delta-E=       -0.000000707898 Rises=F Damp=F
 DIIS: error= 1.06D-04 at cycle  14 NSaved=  14.
 NSaved=14 IEnMin=14 EnMin= -193.551760234364     IErMin=14 ErrMin= 1.06D-04
 ErrMax= 1.06D-04  0.00D+00 EMaxC= 1.00D+00 BMatC= 4.06D-07 BMatP= 1.28D-06
 IDIUse=1 WtCom= 1.00D+00 WtEn= 0.00D+00
 Coeff-Com:  0.568D-04 0.347D-02-0.555D-02 0.347D-02 0.273D-02-0.714D-02
 Coeff-Com:  0.467D-02 0.570D-01-0.202D+00 0.310D+00-0.341D+00 0.511D+00
 Coeff-Com: -0.214D+01 0.280D+01
 Coeff:      0.568D-04 0.347D-02-0.555D-02 0.347D-02 0.273D-02-0.714D-02
 Coeff:      0.467D-02 0.570D-01-0.202D+00 0.310D+00-0.341D+00 0.511D+00
 Coeff:     -0.214D+01 0.280D+01
 Gap=     0.189 Goal=   None    Shift=    0.500
 Gap=     0.189 Goal=   None    Shift=    0.500
 RMSDP=5.38D-06 MaxDP=1.14D-04 DE=-7.08D-07 OVMax= 2.46D-04

 Cycle  15  Pass 1  IDiag  1:
 E= -193.551760467741     Delta-E=       -0.000000233377 Rises=F Damp=F
 DIIS: error= 6.10D-05 at cycle  15 NSaved=  15.
 NSaved=15 IEnMin=15 EnMin= -193.551760467741     IErMin=15 ErrMin= 6.10D-05
 ErrMax= 6.10D-05  0.00D+00 EMaxC= 1.00D+00 BMatC= 1.26D-07 BMatP= 4.06D-07
 IDIUse=1 WtCom= 1.00D+00 WtEn= 0.00D+00
 Coeff-Com:  0.241D-04 0.255D-02-0.382D-02 0.727D-03 0.301D-02-0.206D-02
 Coeff-Com:  0.647D-02 0.192D-01-0.133D+00-0.890D-02 0.817D+00-0.165D+01
 Coeff-Com:  0.243D+01-0.436D+01 0.388D+01
 Coeff:      0.241D-04 0.255D-02-0.382D-02 0.727D-03 0.301D-02-0.206D-02
 Coeff:      0.647D-02 0.192D-01-0.133D+00-0.890D-02 0.817D+00-0.165D+01
 Coeff:      0.243D+01-0.436D+01 0.388D+01
 Gap=     0.189 Goal=   None    Shift=    0.500
 Gap=     0.189 Goal=   None    Shift=    0.500
 RMSDP=2.98D-06 MaxDP=6.55D-05 DE=-2.33D-07 OVMax= 1.40D-04

 Cycle  16  Pass 1  IDiag  1:
 E= -193.551760541176     Delta-E=       -0.000000073435 Rises=F Damp=F
 DIIS: error= 3.52D-05 at cycle  16 NSaved=  16.
 NSaved=16 IEnMin=16 EnMin= -193.551760541176     IErMin=16 ErrMin= 3.52D-05
 ErrMax= 3.52D-05  0.00D+00 EMaxC= 1.00D+00 BMatC= 3.97D-08 BMatP= 1.26D-07
 IDIUse=1 WtCom= 1.00D+00 WtEn= 0.00D+00
 Coeff-Com:  0.727D-05 0.640D-03-0.659D-03-0.113D-02 0.827D-03 0.219D-02
 Coeff-Com: -0.592D-03 0.151D-01-0.768D-01 0.913D-02 0.431D+00-0.997D+00
 Coeff-Com:  0.133D+01-0.953D+00-0.149D+01 0.273D+01
 Coeff:      0.727D-05 0.640D-03-0.659D-03-0.113D-02 0.827D-03 0.219D-02
 Coeff:     -0.592D-03 0.151D-01-0.768D-01 0.913D-02 0.431D+00-0.997D+00
 Coeff:      0.133D+01-0.953D+00-0.149D+01 0.273D+01
 Gap=     0.189 Goal=   None    Shift=    0.500
 Gap=     0.189 Goal=   None    Shift=    0.500
 RMSDP=1.66D-06 MaxDP=3.74D-05 DE=-7.34D-08 OVMax= 8.02D-05

 Cycle  17  Pass 1  IDiag  1:
 E= -193.551760564599     Delta-E=       -0.000000023422 Rises=F Damp=F
 DIIS: error= 2.02D-05 at cycle  17 NSaved=  17.
 NSaved=17 IEnMin=17 EnMin= -193.551760564599     IErMin=17 ErrMin= 2.02D-05
 ErrMax= 2.02D-05  0.00D+00 EMaxC= 1.00D+00 BMatC= 1.27D-08 BMatP= 3.97D-08
 IDIUse=1 WtCom= 1.00D+00 WtEn= 0.00D+00
 Coeff-Com:  0.353D-05 0.189D-03-0.369D-03 0.663D-03-0.935D-03 0.399D-03
 Coeff-Com:  0.888D-03-0.137D-02-0.110D-02 0.100D-01-0.329D-01 0.129D+00
 Coeff-Com: -0.222D+00-0.231D+00 0.210D+01-0.519D+01 0.444D+01
 Coeff:      0.353D-05 0.189D-03-0.369D-03 0.663D-03-0.935D-03 0.399D-03
 Coeff:      0.888D-03-0.137D-02-0.110D-02 0.100D-01-0.329D-01 0.129D+00
 Coeff:     -0.222D+00-0.231D+00 0.210D+01-0.519D+01 0.444D+01
 Gap=     0.189 Goal=   None    Shift=    0.500
 Gap=     0.189 Goal=   None    Shift=    0.500
 RMSDP=9.36D-07 MaxDP=2.17D-05 DE=-2.34D-08 OVMax= 4.62D-05

 SCF Done:  E(ULC-wHPBE) =  -193.551760565     A.U. after   17 cycles
            NFock= 17  Conv=0.94D-06     -V/T= 2.0089
 <Sx>= 0.0000 <Sy>= 0.0000 <Sz>= 0.0000 <S**2>=-0.0000 S=-0.0000
 <L.S>= 0.000000000000E+00
 KE= 1.918488967102D+02 PE=-7.383536173383D+02 EE= 2.079310602704D+02
 Annihilation of the first spin contaminant:
 S**2 before annihilation    -0.0000,   after    -0.0000
 Leave Link  502 at Tue Feb 25 12:19:30 2020, MaxMem=  6710886400 cpu:              23.5 elap:               1.5
 (Enter /opt/ohpc/pub/libs/gaussian/g16-A.03/haswell/g16/l508.exe)
 QCSCF skips out because SCF is already converged.
 Leave Link  508 at Tue Feb 25 12:19:30 2020, MaxMem=  6710886400 cpu:               0.0 elap:               0.0
 (Enter /opt/ohpc/pub/libs/gaussian/g16-A.03/haswell/g16/l601.exe)
 Copying SCF densities to generalized density rwf, IOpCl= 1 IROHF=0.

 **********************************************************************

            Population analysis using the SCF density.

 **********************************************************************

 Orbital symmetries:
 Alpha Orbitals:
       Occupied  (B2) (A1) (B2) (A1) (A1) (A1) (B2) (A1) (B2) (A1)
                 (A1) (B2) (B2) (A1) (B1) (A1) (A2) (B1)
       Virtual   (A1) (B2) (A2) (A1) (B1) (B2) (A1) (B2) (A1) (A1)
                 (B2) (A1) (B2) (B2) (B1) (A2) (B1) (A1) (A1) (B2)
                 (A1) (A2) (A1) (B1) (B2) (A1) (B2) (A1) (B2) (A1)
                 (A1) (A1) (B2) (A1) (B2) (B2) (A1) (A1) (B2)
 Beta  Orbitals:
       Occupied  (B2) (A1) (B2) (A1) (A1) (A1) (B2) (A1) (B2) (A1)
                 (A1) (B2) (B2) (A1) (B1) (A1) (A2) (B1)
       Virtual   (A1) (B2) (A2) (A1) (B1) (B2) (A1) (B2) (A1) (A1)
                 (B2) (A1) (B2) (B2) (B1) (A2) (B1) (A1) (A1) (B2)
                 (A1) (A2) (A1) (B1) (B2) (A1) (B2) (A1) (B2) (A1)
                 (A1) (A1) (B2) (A1) (B2) (B2) (A1) (A1) (B2)
 The electronic state is 1-A1.
 Alpha  occ. eigenvalues --  -10.13772 -10.13771 -10.09209 -10.09208 -10.03536
 Alpha  occ. eigenvalues --   -0.93026  -0.85058  -0.77056  -0.67750  -0.61929
 Alpha  occ. eigenvalues --   -0.60206  -0.53184  -0.48523  -0.45598  -0.44492
 Alpha  occ. eigenvalues --   -0.42663  -0.34899  -0.24632
 Alpha virt. eigenvalues --   -0.05690  -0.01234   0.09000   0.19551   0.20397
 Alpha virt. eigenvalues --    0.23380   0.27290   0.28205   0.29872   0.40783
 Alpha virt. eigenvalues --    0.42051   0.50019   0.51249   0.62267   0.62572
 Alpha virt. eigenvalues --    0.71314   0.71615   0.72303   0.73483   0.75331
 Alpha virt. eigenvalues --    0.75754   0.77324   0.80623   0.81011   0.82090
 Alpha virt. eigenvalues --    0.88955   0.94567   0.96701   0.99057   1.01039
 Alpha virt. eigenvalues --    1.05741   1.08398   1.10650   1.16494   1.22752
 Alpha virt. eigenvalues --    1.28158   1.32291   1.56043   1.56743
  Beta  occ. eigenvalues --  -10.13772 -10.13771 -10.09209 -10.09208 -10.03536
  Beta  occ. eigenvalues --   -0.93026  -0.85058  -0.77056  -0.67750  -0.61929
  Beta  occ. eigenvalues --   -0.60206  -0.53184  -0.48523  -0.45598  -0.44492
  Beta  occ. eigenvalues --   -0.42663  -0.34899  -0.24632
  Beta virt. eigenvalues --   -0.05690  -0.01234   0.09000   0.19551   0.20397
  Beta virt. eigenvalues --    0.23380   0.27290   0.28205   0.29872   0.40783
  Beta virt. eigenvalues --    0.42051   0.50019   0.51249   0.62267   0.62572
  Beta virt. eigenvalues --    0.71314   0.71615   0.72303   0.73483   0.75331
  Beta virt. eigenvalues --    0.75754   0.77324   0.80623   0.81011   0.82090
  Beta virt. eigenvalues --    0.88955   0.94567   0.96701   0.99057   1.01039
  Beta virt. eigenvalues --    1.05741   1.08398   1.10650   1.16494   1.22752
  Beta virt. eigenvalues --    1.28158   1.32291   1.56043   1.56743
          Condensed to atoms (all electrons):
               1          2          3          4          5          6
     1  C    5.288391   0.515753  -0.079445  -0.041780   0.149348   0.117474
     2  C    0.515753   4.896757   0.547122  -0.052750  -0.041780  -0.002925
     3  C   -0.079445   0.547122   4.891255   0.547122  -0.079445  -0.000246
     4  C   -0.041780  -0.052750   0.547122   4.896757   0.515753  -0.002925
     5  C    0.149348  -0.041780  -0.079445   0.515753   5.288391   0.117474
     6  H    0.117474  -0.002925  -0.000246  -0.002925   0.117474   0.655782
     7  H    0.355523  -0.036505   0.002817   0.000888  -0.003709  -0.008416
     8  H   -0.034352   0.359326  -0.013208   0.004279   0.000483   0.000188
     9  H    0.005479  -0.039371   0.373995  -0.039371   0.005479  -0.000003
    10  H    0.000483   0.004279  -0.013208   0.359326  -0.034352   0.000188
    11  H   -0.003709   0.000888   0.002817  -0.036505   0.355523  -0.008416
               7          8          9         10         11
     1  C    0.355523  -0.034352   0.005479   0.000483  -0.003709
     2  C   -0.036505   0.359326  -0.039371   0.004279   0.000888
     3  C    0.002817  -0.013208   0.373995  -0.013208   0.002817
     4  C    0.000888   0.004279  -0.039371   0.359326  -0.036505
     5  C   -0.003709   0.000483   0.005479  -0.034352   0.355523
     6  H   -0.008416   0.000188  -0.000003   0.000188  -0.008416
     7  H    0.504572   0.000946  -0.000149  -0.000011   0.000039
     8  H    0.000946   0.484681  -0.004036  -0.000098  -0.000011
     9  H   -0.000149  -0.004036   0.578114  -0.004036  -0.000149
    10  H   -0.000011  -0.000098  -0.004036   0.484681   0.000946
    11  H    0.000039  -0.000011  -0.000149   0.000946   0.504572
          Atomic-Atomic Spin Densities.
               1          2          3          4          5          6
     1  C    0.000000   0.000000   0.000000   0.000000   0.000000   0.000000
     2  C    0.000000   0.000000   0.000000   0.000000   0.000000   0.000000
     3  C    0.000000   0.000000   0.000000   0.000000   0.000000   0.000000
     4  C    0.000000   0.000000   0.000000   0.000000   0.000000   0.000000
     5  C    0.000000   0.000000   0.000000   0.000000   0.000000   0.000000
     6  H    0.000000   0.000000   0.000000   0.000000   0.000000   0.000000
     7  H    0.000000   0.000000   0.000000   0.000000   0.000000   0.000000
     8  H    0.000000   0.000000   0.000000   0.000000   0.000000   0.000000
     9  H    0.000000   0.000000   0.000000   0.000000   0.000000   0.000000
    10  H    0.000000   0.000000   0.000000   0.000000   0.000000   0.000000
    11  H    0.000000   0.000000   0.000000   0.000000   0.000000   0.000000
               7          8          9         10         11
     1  C    0.000000   0.000000   0.000000   0.000000   0.000000
     2  C    0.000000   0.000000   0.000000   0.000000   0.000000
     3  C    0.000000   0.000000   0.000000   0.000000   0.000000
     4  C    0.000000   0.000000   0.000000   0.000000   0.000000
     5  C    0.000000   0.000000   0.000000   0.000000   0.000000
     6  H    0.000000   0.000000   0.000000   0.000000   0.000000
     7  H    0.000000   0.000000   0.000000   0.000000   0.000000
     8  H    0.000000   0.000000   0.000000   0.000000   0.000000
     9  H    0.000000   0.000000   0.000000   0.000000   0.000000
    10  H    0.000000   0.000000   0.000000   0.000000   0.000000
    11  H    0.000000   0.000000   0.000000   0.000000   0.000000
 Mulliken charges and spin densities:
               1          2
     1  C   -0.273164   0.000000
     2  C   -0.150793   0.000000
     3  C   -0.179577   0.000000
     4  C   -0.150793   0.000000
     5  C   -0.273164   0.000000
     6  H    0.131825   0.000000
     7  H    0.184005   0.000000
     8  H    0.201803   0.000000
     9  H    0.124050   0.000000
    10  H    0.201803   0.000000
    11  H    0.184005   0.000000
 Sum of Mulliken charges =  -0.00000   0.00000
 Mulliken charges and spin densities with hydrogens summed into heavy atoms:
               1          2
     1  C    0.042666   0.000000
     2  C    0.051010   0.000000
     3  C   -0.055528   0.000000
     4  C    0.051010   0.000000
     5  C   -0.089159   0.000000
 Electronic spatial extent (au):  <R**2>=            395.7011
 Charge=             -0.0000 electrons
 Dipole moment (field-independent basis, Debye):
    X=             -0.0000    Y=             -0.0000    Z=             -1.2352  Tot=              1.2352
 Quadrupole moment (field-independent basis, Debye-Ang):
   XX=            -36.7080   YY=            -23.3640   ZZ=            -24.1734
   XY=              0.0000   XZ=             -0.0000   YZ=             -0.0000
 Traceless Quadrupole moment (field-independent basis, Debye-Ang):
   XX=             -8.6262   YY=              4.7178   ZZ=              3.9084
   XY=              0.0000   XZ=             -0.0000   YZ=             -0.0000
 Octapole moment (field-independent basis, Debye-Ang**2):
  XXX=              0.0000  YYY=             -0.0000  ZZZ=            -11.7406  XYY=              0.0000
  XXY=             -0.0000  XXZ=              2.6879  XZZ=              0.0000  YZZ=              0.0000
  YYZ=              1.6501  XYZ=             -0.0000
 Hexadecapole moment (field-independent basis, Debye-Ang**3):
 XXXX=            -40.0841 YYYY=           -234.8573 ZZZZ=           -178.2547 XXXY=             -0.0000
 XXXZ=             -0.0000 YYYX=             -0.0000 YYYZ=             -0.0000 ZZZX=             -0.0000
 ZZZY=              0.0000 XXYY=            -62.1034 XXZZ=            -52.9234 YYZZ=            -71.7672
 XXYZ=              0.0000 YYXZ=             -0.0000 ZZXY=             -0.0000
 N-N= 1.450218997931D+02 E-N=-7.383532703399D+02  KE= 1.918488967102D+02
 Symmetry A1   KE= 1.102133340254D+02
 Symmetry A2   KE= 2.313834526455D+00
 Symmetry B1   KE= 4.304612413239D+00
 Symmetry B2   KE= 7.501711574509D+01
 Symmetry A1   SP= 0.000000000000D+00
 Symmetry A2   SP= 0.000000000000D+00
 Symmetry B1   SP= 0.000000000000D+00
 Symmetry B2   SP= 0.000000000000D+00
                          Isotropic Fermi Contact Couplings
        Atom                 a.u.       MegaHertz       Gauss      10(-4) cm-1
     1  C(13)              0.00000       0.00000       0.00000       0.00000
     2  C(13)              0.00000       0.00000       0.00000       0.00000
     3  C(13)              0.00000       0.00000       0.00000       0.00000
     4  C(13)              0.00000       0.00000       0.00000       0.00000
     5  C(13)              0.00000       0.00000       0.00000       0.00000
     6  H(1)               0.00000       0.00000       0.00000       0.00000
     7  H(1)               0.00000       0.00000       0.00000       0.00000
     8  H(1)               0.00000       0.00000       0.00000       0.00000
     9  H(1)               0.00000       0.00000       0.00000       0.00000
    10  H(1)               0.00000       0.00000       0.00000       0.00000
    11  H(1)               0.00000       0.00000       0.00000       0.00000
 --------------------------------------------------------
       Center         ----  Spin Dipole Couplings  ----
                      3XX-RR        3YY-RR        3ZZ-RR
 --------------------------------------------------------
     1   Atom        0.000000      0.000000      0.000000
     2   Atom        0.000000      0.000000      0.000000
     3   Atom        0.000000      0.000000      0.000000
     4   Atom        0.000000      0.000000      0.000000
     5   Atom        0.000000      0.000000      0.000000
     6   Atom        0.000000      0.000000      0.000000
     7   Atom        0.000000      0.000000      0.000000
     8   Atom        0.000000      0.000000      0.000000
     9   Atom        0.000000      0.000000      0.000000
    10   Atom        0.000000      0.000000      0.000000
    11   Atom        0.000000      0.000000      0.000000
 --------------------------------------------------------
                        XY            XZ            YZ
 --------------------------------------------------------
     1   Atom        0.000000      0.000000      0.000000
     2   Atom        0.000000      0.000000      0.000000
     3   Atom        0.000000      0.000000      0.000000
     4   Atom        0.000000      0.000000      0.000000
     5   Atom        0.000000      0.000000      0.000000
     6   Atom        0.000000      0.000000      0.000000
     7   Atom        0.000000      0.000000      0.000000
     8   Atom        0.000000      0.000000      0.000000
     9   Atom        0.000000      0.000000      0.000000
    10   Atom        0.000000      0.000000      0.000000
    11   Atom        0.000000      0.000000      0.000000
 --------------------------------------------------------


 ---------------------------------------------------------------------------------
              Anisotropic Spin Dipole Couplings in Principal Axis System
 ---------------------------------------------------------------------------------

       Atom             a.u.   MegaHertz   Gauss  10(-4) cm-1        Axes

              Baa     0.0000     0.000     0.000     0.000  1.0000  0.0000  0.0000
     1 C(13)  Bbb     0.0000     0.000     0.000     0.000 -0.0000  1.0000  0.0000
              Bcc     0.0000     0.000     0.000     0.000  0.0000  0.0000  1.0000
 
              Baa     0.0000     0.000     0.000     0.000  1.0000  0.0000  0.0000
     2 C(13)  Bbb     0.0000     0.000     0.000     0.000 -0.0000  1.0000  0.0000
              Bcc     0.0000     0.000     0.000     0.000  0.0000  0.0000  1.0000
 
              Baa     0.0000     0.000     0.000     0.000  1.0000  0.0000  0.0000
     3 C(13)  Bbb     0.0000     0.000     0.000     0.000 -0.0000  1.0000  0.0000
              Bcc     0.0000     0.000     0.000     0.000  0.0000  0.0000  1.0000
 
              Baa     0.0000     0.000     0.000     0.000  1.0000  0.0000  0.0000
     4 C(13)  Bbb     0.0000     0.000     0.000     0.000 -0.0000  1.0000  0.0000
              Bcc     0.0000     0.000     0.000     0.000  0.0000  0.0000  1.0000
 
              Baa     0.0000     0.000     0.000     0.000  1.0000  0.0000  0.0000
     5 C(13)  Bbb     0.0000     0.000     0.000     0.000 -0.0000  1.0000  0.0000
              Bcc     0.0000     0.000     0.000     0.000  0.0000  0.0000  1.0000
 
              Baa     0.0000     0.000     0.000     0.000  1.0000  0.0000  0.0000
     6 H(1)   Bbb     0.0000     0.000     0.000     0.000 -0.0000  1.0000  0.0000
              Bcc     0.0000     0.000     0.000     0.000  0.0000  0.0000  1.0000
 
              Baa     0.0000     0.000     0.000     0.000  1.0000  0.0000  0.0000
     7 H(1)   Bbb     0.0000     0.000     0.000     0.000 -0.0000  1.0000  0.0000
              Bcc     0.0000     0.000     0.000     0.000  0.0000  0.0000  1.0000
 
              Baa     0.0000     0.000     0.000     0.000  1.0000  0.0000  0.0000
     8 H(1)   Bbb     0.0000     0.000     0.000     0.000 -0.0000  1.0000  0.0000
              Bcc     0.0000     0.000     0.000     0.000  0.0000  0.0000  1.0000
 
              Baa     0.0000     0.000     0.000     0.000  1.0000  0.0000  0.0000
     9 H(1)   Bbb     0.0000     0.000     0.000     0.000 -0.0000  1.0000  0.0000
              Bcc     0.0000     0.000     0.000     0.000  0.0000  0.0000  1.0000
 
              Baa     0.0000     0.000     0.000     0.000  1.0000  0.0000  0.0000
    10 H(1)   Bbb     0.0000     0.000     0.000     0.000 -0.0000  1.0000  0.0000
              Bcc     0.0000     0.000     0.000     0.000  0.0000  0.0000  1.0000
 
              Baa     0.0000     0.000     0.000     0.000  1.0000  0.0000  0.0000
    11 H(1)   Bbb     0.0000     0.000     0.000     0.000 -0.0000  1.0000  0.0000
              Bcc     0.0000     0.000     0.000     0.000  0.0000  0.0000  1.0000
 

 ---------------------------------------------------------------------------------

 No NMR shielding tensors so no spin-rotation constants.
 Leave Link  601 at Tue Feb 25 12:19:31 2020, MaxMem=  6710886400 cpu:               5.3 elap:               0.4
 (Enter /opt/ohpc/pub/libs/gaussian/g16-A.03/haswell/g16/l9999.exe)

 Test job not archived.
 1\1\GINC-HASWELL008\SP\ULC-wHPBE\6-31G\C5H6\SMGO234\25-Feb-2020\0\\#P 
 uLC-wHPBE/6-31G iop(3/107=0328100000, 3/108=0328100000) scf=(conver=6,
 fermi,ndamp=35,noincfock,novaracc,vshift=500,xqc)\\H6 C5\\0,1\C,0,-1.2
 06512,0.69658,0.\C,0,-1.206512,-0.69658,0.\C,0,0.,-1.39316,0.\C,0,1.20
 6512,-0.69658,0.\C,0,1.206512,0.69658,0.\H,0,0.,2.482681,0.\H,0,-2.150
 065,1.24134,0.\H,0,-2.150065,-1.24134,0.\H,0,0.,-2.482681,0.\H,0,2.150
 065,-1.24134,0.\H,0,2.150065,1.24134,0.\\Version=ES64L-G16RevA.03\Stat
 e=1-A1\HF=-193.5517606\S2=0.\S2-1=0.\S2A=0.\RMSD=9.363e-07\Dipole=0.,0
 .4859758,0.\Quadrupole=3.5075541,2.905806,-6.4133601,0.,0.,0.\PG=C02V 
 [C2(H1C1H1),SGV(C4H4)]\\@


 TIME IS IN FACT THE HERO OF THE PLOT. THE TIME
 WITH WHICH WE HAVE TO DEAL IS OF THE ORDER OF TWO
 BILLION YEARS...GIVEN SO MUCH TIME, THE "IMPOSSIBLE"
 BECOMES POSSIBLE, THE POSSIBLE PROBABLE, THE PROBABLE
 VIRTUALLY CERTAIN.  ONE HAS ONLY TO WAIT, TIME
 ITSELF PERFORMS THE MIRACLES.
 "ORIGIN OF LIFE" LECTURES, GEORGE WALD, 1954
 Job cpu time:       0 days  0 hours  0 minutes 50.1 seconds.
 Elapsed time:       0 days  0 hours  0 minutes  3.4 seconds.
 File lengths (MBytes):  RWF=    272 Int=      0 D2E=      0 Chk=     32 Scr=     32
 Normal termination of Gaussian 16 at Tue Feb 25 12:19:31 2020.
