 Entering Gaussian System, Link 0=g16
 Input=1b_tune_n9.gjf
 Output=1b_tune_n9.log
 Initial command:
 /opt/ohpc/pub/libs/gaussian/g16-A.03/sandybridge/g16/l1.exe "/scratch/qai222/ocelot_api/tests/wtuning_test/1b/tuning_1b_ocycle0/Gau-113519.inp" -scrdir="/scratch/qai222/ocelot_api/tests/wtuning_test/1b/tuning_1b_ocycle0/"
 Entering Link 1 = /opt/ohpc/pub/libs/gaussian/g16-A.03/sandybridge/g16/l1.exe PID=    113520.
  
 Copyright (c) 1988,1990,1992,1993,1995,1998,2003,2009,2016,
            Gaussian, Inc.  All Rights Reserved.
  
 This is part of the Gaussian(R) 16 program.  It is based on
 the Gaussian(R) 09 system (copyright 2009, Gaussian, Inc.),
 the Gaussian(R) 03 system (copyright 2003, Gaussian, Inc.),
 the Gaussian(R) 98 system (copyright 1998, Gaussian, Inc.),
 the Gaussian(R) 94 system (copyright 1995, Gaussian, Inc.),
 the Gaussian 92(TM) system (copyright 1992, Gaussian, Inc.),
 the Gaussian 90(TM) system (copyright 1990, Gaussian, Inc.),
 the Gaussian 88(TM) system (copyright 1988, Gaussian, Inc.),
 the Gaussian 86(TM) system (copyright 1986, Carnegie Mellon
 University), and the Gaussian 82(TM) system (copyright 1983,
 Carnegie Mellon University). Gaussian is a federally registered
 trademark of Gaussian, Inc.
  
 This software contains proprietary and confidential information,
 including trade secrets, belonging to Gaussian, Inc.
  
 This software is provided under written license and may be
 used, copied, transmitted, or stored only in accord with that
 written license.
  
 The following legend is applicable only to US Government
 contracts under FAR:
  
                    RESTRICTED RIGHTS LEGEND
  
 Use, reproduction and disclosure by the US Government is
 subject to restrictions as set forth in subparagraphs (a)
 and (c) of the Commercial Computer Software - Restricted
 Rights clause in FAR 52.227-19.
  
 Gaussian, Inc.
 340 Quinnipiac St., Bldg. 40, Wallingford CT 06492
  
  
 ---------------------------------------------------------------
 Warning -- This program may not be used in any manner that
 competes with the business of Gaussian, Inc. or will provide
 assistance to any competitor of Gaussian, Inc.  The licensee
 of this program is prohibited from giving any competitor of
 Gaussian, Inc. access to this program.  By using this program,
 the user acknowledges that Gaussian, Inc. is engaged in the
 business of creating and licensing software in the field of
 computational chemistry and represents and warrants to the
 licensee that it is not a competitor of Gaussian, Inc. and that
 it will not use this program in any manner prohibited above.
 ---------------------------------------------------------------
  

 Cite this work as:
 Gaussian 16, Revision A.03,
 M. J. Frisch, G. W. Trucks, H. B. Schlegel, G. E. Scuseria, 
 M. A. Robb, J. R. Cheeseman, G. Scalmani, V. Barone, 
 G. A. Petersson, H. Nakatsuji, X. Li, M. Caricato, A. V. Marenich, 
 J. Bloino, B. G. Janesko, R. Gomperts, B. Mennucci, H. P. Hratchian, 
 J. V. Ortiz, A. F. Izmaylov, J. L. Sonnenberg, D. Williams-Young, 
 F. Ding, F. Lipparini, F. Egidi, J. Goings, B. Peng, A. Petrone, 
 T. Henderson, D. Ranasinghe, V. G. Zakrzewski, J. Gao, N. Rega, 
 G. Zheng, W. Liang, M. Hada, M. Ehara, K. Toyota, R. Fukuda, 
 J. Hasegawa, M. Ishida, T. Nakajima, Y. Honda, O. Kitao, H. Nakai, 
 T. Vreven, K. Throssell, J. A. Montgomery, Jr., J. E. Peralta, 
 F. Ogliaro, M. J. Bearpark, J. J. Heyd, E. N. Brothers, K. N. Kudin, 
 V. N. Staroverov, T. A. Keith, R. Kobayashi, J. Normand, 
 K. Raghavachari, A. P. Rendell, J. C. Burant, S. S. Iyengar, 
 J. Tomasi, M. Cossi, J. M. Millam, M. Klene, C. Adamo, R. Cammi, 
 J. W. Ochterski, R. L. Martin, K. Morokuma, O. Farkas, 
 J. B. Foresman, and D. J. Fox, Gaussian, Inc., Wallingford CT, 2016.
 
 ******************************************
 Gaussian 16:  EM64L-G16RevA.03 25-Dec-2016
                22-Apr-2020 
 ******************************************
 %mem=50GB
 %nproc=16
 Will use up to   16 processors via shared memory.
 ----------------------------------------------------------------------
 #P uLC-wHPBE/6-31G iop(3/107=0313700000, 3/108=0313700000) scf=(conver
 =6,fermi,ndamp=35,noincfock,novaracc,vshift=500,xqc)
 ----------------------------------------------------------------------
 1/38=1,172=1/1;
 2/12=2,17=6,18=5,40=1/2;
 3/5=1,6=6,11=2,25=1,30=1,74=-71,107=313700000,108=313700000,116=2/1,2,3;
 4//1;
 5/5=100002,6=6,8=3,10=500,13=1,18=-1,22=13,38=1,93=35/2,8;
 6/7=2,8=2,9=2,10=2,28=1/1;
 99/5=1,9=1/99;
 Leave Link    1 at Wed Apr 22 16:21:08 2020, MaxMem=  6710886400 cpu:              11.3 elap:               0.8
 (Enter /opt/ohpc/pub/libs/gaussian/g16-A.03/sandybridge/g16/l101.exe)
 -----
 H6 C6
 -----
 Symbolic Z-matrix:
 Charge =  0 Multiplicity = 1
 C                     0.        1.39316   0. 
 C                    -1.20651   0.69658   0. 
 C                    -1.20651  -0.69658   0. 
 C                     0.       -1.39316   0. 
 C                     1.20651  -0.69658   0. 
 C                     1.20651   0.69658   0. 
 H                     0.        2.48268   0. 
 H                    -2.15007   1.24134   0. 
 H                    -2.15007  -1.24134   0. 
 H                     0.       -2.48268   0. 
 H                     2.15007  -1.24134   0. 
 H                     2.15007   1.24134   0. 
 
 ITRead=  0  0  0  0  0  0  0  0  0  0  0  0
 MicOpt= -1 -1 -1 -1 -1 -1 -1 -1 -1 -1 -1 -1
 NAtoms=     12 NQM=       12 NQMF=       0 NMMI=      0 NMMIF=      0
                NMic=       0 NMicF=      0.
                    Isotopes and Nuclear Properties:
 (Nuclear quadrupole moments (NQMom) in fm**2, nuclear magnetic moments (NMagM)
  in nuclear magnetons)

  Atom         1           2           3           4           5           6           7           8           9          10
 IAtWgt=          12          12          12          12          12          12           1           1           1           1
 AtmWgt=  12.0000000  12.0000000  12.0000000  12.0000000  12.0000000  12.0000000   1.0078250   1.0078250   1.0078250   1.0078250
 NucSpn=           0           0           0           0           0           0           1           1           1           1
 AtZEff=  -0.0000000  -0.0000000  -0.0000000  -0.0000000  -0.0000000  -0.0000000  -0.0000000  -0.0000000  -0.0000000  -0.0000000
 NQMom=    0.0000000   0.0000000   0.0000000   0.0000000   0.0000000   0.0000000   0.0000000   0.0000000   0.0000000   0.0000000
 NMagM=    0.0000000   0.0000000   0.0000000   0.0000000   0.0000000   0.0000000   2.7928460   2.7928460   2.7928460   2.7928460
 AtZNuc=   6.0000000   6.0000000   6.0000000   6.0000000   6.0000000   6.0000000   1.0000000   1.0000000   1.0000000   1.0000000

  Atom        11          12
 IAtWgt=           1           1
 AtmWgt=   1.0078250   1.0078250
 NucSpn=           1           1
 AtZEff=  -0.0000000  -0.0000000
 NQMom=    0.0000000   0.0000000
 NMagM=    2.7928460   2.7928460
 AtZNuc=   1.0000000   1.0000000
 Leave Link  101 at Wed Apr 22 16:21:08 2020, MaxMem=  6710886400 cpu:               2.6 elap:               0.2
 (Enter /opt/ohpc/pub/libs/gaussian/g16-A.03/sandybridge/g16/l202.exe)
                          Input orientation:                          
 ---------------------------------------------------------------------
 Center     Atomic      Atomic             Coordinates (Angstroms)
 Number     Number       Type             X           Y           Z
 ---------------------------------------------------------------------
      1          6           0        0.000000    1.393160    0.000000
      2          6           0       -1.206512    0.696580    0.000000
      3          6           0       -1.206512   -0.696580    0.000000
      4          6           0        0.000000   -1.393160    0.000000
      5          6           0        1.206512   -0.696580    0.000000
      6          6           0        1.206512    0.696580    0.000000
      7          1           0        0.000000    2.482681    0.000000
      8          1           0       -2.150065    1.241340    0.000000
      9          1           0       -2.150065   -1.241340    0.000000
     10          1           0        0.000000   -2.482681    0.000000
     11          1           0        2.150065   -1.241340    0.000000
     12          1           0        2.150065    1.241340    0.000000
 ---------------------------------------------------------------------
                    Distance matrix (angstroms):
                    1          2          3          4          5
     1  C    0.000000
     2  C    1.393160   0.000000
     3  C    2.413024   1.393160   0.000000
     4  C    2.786320   2.413024   1.393160   0.000000
     5  C    2.413024   2.786320   2.413024   1.393160   0.000000
     6  C    1.393160   2.413024   2.786320   2.413024   1.393160
     7  H    1.089521   2.155418   3.400496   3.875841   3.400496
     8  H    2.155418   1.089521   2.155418   3.400496   3.875841
     9  H    3.400496   2.155418   1.089521   2.155418   3.400496
    10  H    3.875841   3.400496   2.155418   1.089521   2.155418
    11  H    3.400496   3.875841   3.400496   2.155418   1.089521
    12  H    2.155418   3.400496   3.875841   3.400496   2.155418
                    6          7          8          9         10
     6  C    0.000000
     7  H    2.155418   0.000000
     8  H    3.400496   2.482681   0.000000
     9  H    3.875841   4.300129   2.482680   0.000000
    10  H    3.400496   4.965362   4.300129   2.482681   0.000000
    11  H    2.155418   4.300129   4.965362   4.300130   2.482681
    12  H    1.089521   2.482681   4.300130   4.965362   4.300129
                   11         12
    11  H    0.000000
    12  H    2.482680   0.000000
 Stoichiometry    C6H6
 Framework group  D6H[3C2'(HC.CH)]
 Deg. of freedom     2
 Full point group                 D6H     NOp  24
 Largest Abelian subgroup         D2H     NOp   8
 Largest concise Abelian subgroup D2      NOp   4
                         Standard orientation:                         
 ---------------------------------------------------------------------
 Center     Atomic      Atomic             Coordinates (Angstroms)
 Number     Number       Type             X           Y           Z
 ---------------------------------------------------------------------
      1          6           0       -0.000000    1.393160   -0.000000
      2          6           0       -1.206512    0.696580   -0.000000
      3          6           0       -1.206512   -0.696580   -0.000000
      4          6           0       -0.000000   -1.393160   -0.000000
      5          6           0        1.206512   -0.696580   -0.000000
      6          6           0        1.206512    0.696580   -0.000000
      7          1           0        0.000000    2.482681   -0.000000
      8          1           0       -2.150065    1.241341   -0.000000
      9          1           0       -2.150065   -1.241340   -0.000000
     10          1           0       -0.000000   -2.482681   -0.000000
     11          1           0        2.150065   -1.241341   -0.000000
     12          1           0        2.150065    1.241340   -0.000000
 ---------------------------------------------------------------------
 Rotational constants (GHZ):           5.7099798           5.7099798           2.8549899
 Leave Link  202 at Wed Apr 22 16:21:08 2020, MaxMem=  6710886400 cpu:               0.4 elap:               0.0
 (Enter /opt/ohpc/pub/libs/gaussian/g16-A.03/sandybridge/g16/l301.exe)
 Standard basis: 6-31G (6D, 7F)
 Ernie: Thresh=  0.10000D-02 Tol=  0.10000D-05 Strict=F.
 There are    16 symmetry adapted cartesian basis functions of AG  symmetry.
 There are    11 symmetry adapted cartesian basis functions of B1G symmetry.
 There are     2 symmetry adapted cartesian basis functions of B2G symmetry.
 There are     4 symmetry adapted cartesian basis functions of B3G symmetry.
 There are     2 symmetry adapted cartesian basis functions of AU  symmetry.
 There are     4 symmetry adapted cartesian basis functions of B1U symmetry.
 There are    16 symmetry adapted cartesian basis functions of B2U symmetry.
 There are    11 symmetry adapted cartesian basis functions of B3U symmetry.
 There are    16 symmetry adapted basis functions of AG  symmetry.
 There are    11 symmetry adapted basis functions of B1G symmetry.
 There are     2 symmetry adapted basis functions of B2G symmetry.
 There are     4 symmetry adapted basis functions of B3G symmetry.
 There are     2 symmetry adapted basis functions of AU  symmetry.
 There are     4 symmetry adapted basis functions of B1U symmetry.
 There are    16 symmetry adapted basis functions of B2U symmetry.
 There are    11 symmetry adapted basis functions of B3U symmetry.
    66 basis functions,   156 primitive gaussians,    66 cartesian basis functions
    21 alpha electrons       21 beta electrons
       nuclear repulsion energy       203.5439980921 Hartrees.
 IExCor=33909 DFT=T Ex+Corr=LC-wHPBE ExCW=0 ScaHFX=  1.000000
 ScaDFX=  1.000000  1.000000  1.000000  1.000000 ScalE2=  1.000000  1.000000
 IRadAn=      5 IRanWt=     -1 IRanGd=            0 ICorTp=0 IEmpDi=  4
 HFx  wShort=  0.000000 wLong=  0.313700 cFull=  0.000000 cShort=  0.000000 cLong=  1.000000
 DFx  wShort=  0.000000 wLong=  0.313700 cFull=  0.000000 cShort=  1.000000 cLong=  0.000000
 NAtoms=   12 NActive=   12 NUniq=    2 SFac= 4.00D+00 NAtFMM=   60 NAOKFM=F Big=F
 Integral buffers will be    131072 words long.
 Raffenetti 2 integral format.
 Two-electron integral symmetry is turned on.
 Leave Link  301 at Wed Apr 22 16:21:09 2020, MaxMem=  6710886400 cpu:               1.0 elap:               0.1
 (Enter /opt/ohpc/pub/libs/gaussian/g16-A.03/sandybridge/g16/l302.exe)
 NPDir=0 NMtPBC=     1 NCelOv=     1 NCel=       1 NClECP=     1 NCelD=      1
         NCelK=      1 NCelE2=     1 NClLst=     1 CellRange=     0.0.
 One-electron integrals computed using PRISM.
 One-electron integral symmetry used in STVInt
 NBasis=    66 RedAO= T EigKep=  6.87D-04  NBF=    16    11     2     4     2     4    16    11
 NBsUse=    66 1.00D-06 EigRej= -1.00D+00 NBFU=    16    11     2     4     2     4    16    11
 Precomputing XC quadrature grid using
 IXCGrd= 4 IRadAn=           5 IRanWt=          -1 IRanGd=           0 AccXCQ= 0.00D+00.
 Generated NRdTot=       0 NPtTot=           0 NUsed=           0 NTot=          32
 NSgBfM=    66    66    66    66    66 MxSgAt=    12 MxSgA2=    12.
 Leave Link  302 at Wed Apr 22 16:21:09 2020, MaxMem=  6710886400 cpu:               2.2 elap:               0.2
 (Enter /opt/ohpc/pub/libs/gaussian/g16-A.03/sandybridge/g16/l303.exe)
 DipDrv:  MaxL=1.
 Leave Link  303 at Wed Apr 22 16:21:09 2020, MaxMem=  6710886400 cpu:               0.8 elap:               0.1
 (Enter /opt/ohpc/pub/libs/gaussian/g16-A.03/sandybridge/g16/l401.exe)
 ExpMin= 1.61D-01 ExpMax= 3.05D+03 ExpMxC= 4.57D+02 IAcc=3 IRadAn=         5 AccDes= 0.00D+00
 Harris functional with IExCor=33909 and IRadAn=       5 diagonalized for initial guess.
 HarFok:  IExCor=33909 AccDes= 0.00D+00 IRadAn=         5 IDoV= 1 UseB2=F ITyADJ=14
 ICtDFT=  3500011 ScaDFX=  1.000000  1.000000  1.000000  1.000000
 FoFCou: FMM=F IPFlag=           0 FMFlag=      100000 FMFlg1=           0
         NFxFlg=           0 DoJE=T BraDBF=F KetDBF=T FulRan=T
         wScrn=  0.000000 ICntrl=       500 IOpCl=  0 I1Cent=   200000004 NGrid=           0
         NMat0=    1 NMatS0=      1 NMatT0=    0 NMatD0=    1 NMtDS0=    0 NMtDT0=    0
 Petite list used in FoFCou.
 Harris En= -225.307119171997    
 JPrj=0 DoOrth=F DoCkMO=F.
 Initial guess orbital symmetries:
 Alpha Orbitals:
       Occupied  (A1G) (E1U) (E1U) (E2G) (E2G) (B1U) (A1G) (E1U)
                 (E1U) (E2G) (E2G) (A1G) (B2U) (B1U) (E1U) (E1U)
                 (A2U) (E2G) (E2G) (E1G) (E1G)
       Virtual   (E2U) (E2U) (A1G) (B2G) (E1U) (E1U) (E2G) (E2G)
                 (B1U) (E2G) (E2G) (E1U) (E1U) (B2U) (A2U) (B1U)
                 (A2G) (A1G) (E2G) (E2G) (E1G) (E1G) (A1G) (E1U)
                 (E1U) (E2U) (E2U) (B2G) (B1U) (E2G) (E2G) (E1U)
                 (E1U) (A2G) (A1G) (E1U) (E1U) (E2G) (E2G) (E1U)
                 (E1U) (B1U) (E2G) (E2G) (B1U)
 Beta  Orbitals:
       Occupied  (A1G) (E1U) (E1U) (E2G) (E2G) (B1U) (A1G) (E1U)
                 (E1U) (E2G) (E2G) (A1G) (B2U) (B1U) (E1U) (E1U)
                 (A2U) (E2G) (E2G) (E1G) (E1G)
       Virtual   (E2U) (E2U) (A1G) (B2G) (E1U) (E1U) (E2G) (E2G)
                 (B1U) (E2G) (E2G) (E1U) (E1U) (B2U) (A2U) (B1U)
                 (A2G) (A1G) (E2G) (E2G) (E1G) (E1G) (A1G) (E1U)
                 (E1U) (E2U) (E2U) (B2G) (B1U) (E2G) (E2G) (E1U)
                 (E1U) (A2G) (A1G) (E1U) (E1U) (E2G) (E2G) (E1U)
                 (E1U) (B1U) (E2G) (E2G) (B1U)
 The electronic state of the initial guess is 1-A1G.
 Initial guess <Sx>= 0.0000 <Sy>= 0.0000 <Sz>= 0.0000 <S**2>= 0.0000 S= 0.0000
 Leave Link  401 at Wed Apr 22 16:21:09 2020, MaxMem=  6710886400 cpu:               3.0 elap:               0.2
 (Enter /opt/ohpc/pub/libs/gaussian/g16-A.03/sandybridge/g16/l502.exe)
 Keep R1 and R2 ints in memory in symmetry-blocked form, NReq=19109854.
 FoFCou: FMM=F IPFlag=           0 FMFlag=           0 FMFlg1=           0
         NFxFlg=           0 DoJE=F BraDBF=F KetDBF=F FulRan=T
         wScrn=  0.000000 ICntrl=       600 IOpCl=  0 I1Cent=           0 NGrid=           0
         NMat0=    1 NMatS0=   2211 NMatT0=    0 NMatD0=    1 NMtDS0=    0 NMtDT0=    0
 Petite list used in FoFCou.
 UHF open shell SCF:
 Using DIIS extrapolation, IDIIS=    10.
 NGot=  6710886400 LenX=  6710146038 LenY=  6710141241
 Requested convergence on RMS density matrix=1.00D-06 within  32 cycles.
 Requested convergence on MAX density matrix=1.00D-04.
 Requested convergence on             energy=1.00D-04.
 Virtual orbitals will be shifted by   0.500 hartree.
 No special actions if energy rises.
 Dynamic level shift is on during FON iterations.

 Cycle   1  Pass 1  IDiag  1:
 E= -231.937978899765    
 DIIS: error= 3.59D-02 at cycle   1 NSaved=   1.
 NSaved= 1 IEnMin= 1 EnMin= -231.937978899765     IErMin= 1 ErrMin= 3.59D-02
 ErrMax= 3.59D-02  0.00D+00 EMaxC= 1.00D+00 BMatC= 2.33D-01 BMatP= 2.33D-01
 IDIUse=1 WtCom= 1.00D+00 WtEn= 0.00D+00
 Coeff-Com:  0.100D+01
 Coeff:      0.100D+01
 Gap=     0.424 Goal=   None    Shift=    0.500
 T= 1604. Gap= 0.917 NK=0 IS=   22 IE=   66 IFin=   21
          NO(<0.9)=   0  NV(>0.1)=   0     21.00e < EF      0.00e >EF  Err=0.0D+00
 Gap=     0.424 Goal=   None    Shift=    0.500
 T= 1604. Gap= 0.917 NK=0 IS=   22 IE=   66 IFin=   21
          NO(<0.9)=   0  NV(>0.1)=   0     21.00e < EF      0.00e >EF  Err=0.0D+00
 GapD=    0.424 DampG=2.000 DampE=0.500 DampFc=1.0000 IDamp=-1.
 RMSDP=4.10D-03 MaxDP=3.86D-02              OVMax= 4.82D-02

 Cycle   2  Pass 1  IDiag  1:
 E= -232.007417929980     Delta-E=       -0.069439030214 Rises=F Damp=F
 DIIS: error= 4.15D-03 at cycle   2 NSaved=   2.
 NSaved= 2 IEnMin= 2 EnMin= -232.007417929980     IErMin= 2 ErrMin= 4.15D-03
 ErrMax= 4.15D-03  0.00D+00 EMaxC= 1.00D+00 BMatC= 4.70D-03 BMatP= 2.33D-01
 IDIUse=1 WtCom= 1.00D+00 WtEn= 0.00D+00
 Coeff-Com:  0.698D-01 0.930D+00
 Coeff:      0.698D-01 0.930D+00
 Gap=     0.426 Goal=   None    Shift=    0.500
 T= 1395. Gap= 0.924 NK=0 IS=   22 IE=   66 IFin=   21
          NO(<0.9)=   0  NV(>0.1)=   0     21.00e < EF      0.00e >EF  Err=0.0D+00
 Gap=     0.426 Goal=   None    Shift=    0.500
 T= 1395. Gap= 0.924 NK=0 IS=   22 IE=   66 IFin=   21
          NO(<0.9)=   0  NV(>0.1)=   0     21.00e < EF      0.00e >EF  Err=0.0D+00
 GapD=    0.426 DampG=2.000 DampE=1.000 DampFc=2.0000 IDamp=-1.
 RMSDP=7.70D-04 MaxDP=5.51D-03 DE=-6.94D-02 OVMax= 4.80D-03

 Cycle   3  Pass 1  IDiag  1:
 E= -232.008641641040     Delta-E=       -0.001223711060 Rises=F Damp=F
 DIIS: error= 1.55D-03 at cycle   3 NSaved=   3.
 NSaved= 3 IEnMin= 3 EnMin= -232.008641641040     IErMin= 3 ErrMin= 1.55D-03
 ErrMax= 1.55D-03  0.00D+00 EMaxC= 1.00D+00 BMatC= 5.41D-04 BMatP= 4.70D-03
 IDIUse=1 WtCom= 1.00D+00 WtEn= 0.00D+00
 Coeff-Com:  0.579D-02-0.365D+00 0.136D+01
 Coeff:      0.579D-02-0.365D+00 0.136D+01
 Gap=     0.424 Goal=   None    Shift=    0.500
 T= 1034. Gap= 0.924 NK=0 IS=   22 IE=   66 IFin=   21
          NO(<0.9)=   0  NV(>0.1)=   0     21.00e < EF      0.00e >EF  Err=0.0D+00
 Gap=     0.424 Goal=   None    Shift=    0.500
 T= 1034. Gap= 0.924 NK=0 IS=   22 IE=   66 IFin=   21
          NO(<0.9)=   0  NV(>0.1)=   0     21.00e < EF      0.00e >EF  Err=0.0D+00
 GapD=    0.424 DampG=2.000 DampE=1.000 DampFc=2.0000 IDamp=-1.
 RMSDP=3.79D-04 MaxDP=2.88D-03 DE=-1.22D-03 OVMax= 2.39D-03

 Cycle   4  Pass 1  IDiag  1:
 E= -232.008850628882     Delta-E=       -0.000208987842 Rises=F Damp=F
 DIIS: error= 6.01D-04 at cycle   4 NSaved=   4.
 NSaved= 4 IEnMin= 4 EnMin= -232.008850628882     IErMin= 4 ErrMin= 6.01D-04
 ErrMax= 6.01D-04  0.00D+00 EMaxC= 1.00D+00 BMatC= 6.88D-05 BMatP= 5.41D-04
 IDIUse=1 WtCom= 1.00D+00 WtEn= 0.00D+00
 Coeff-Com: -0.332D-02 0.766D-01-0.821D+00 0.175D+01
 Coeff:     -0.332D-02 0.766D-01-0.821D+00 0.175D+01
 Gap=     0.424 Goal=   None    Shift=    0.500
 Gap=     0.424 Goal=   None    Shift=    0.500
 RMSDP=1.95D-04 MaxDP=1.35D-03 DE=-2.09D-04 OVMax= 1.27D-03

 Cycle   5  Pass 1  IDiag  1:
 E= -232.008885292919     Delta-E=       -0.000034664038 Rises=F Damp=F
 DIIS: error= 2.34D-04 at cycle   5 NSaved=   5.
 NSaved= 5 IEnMin= 5 EnMin= -232.008885292919     IErMin= 5 ErrMin= 2.34D-04
 ErrMax= 2.34D-04  0.00D+00 EMaxC= 1.00D+00 BMatC= 7.95D-06 BMatP= 6.88D-05
 IDIUse=1 WtCom= 1.00D+00 WtEn= 0.00D+00
 Coeff-Com: -0.977D-03-0.308D-01 0.436D+00-0.173D+01 0.233D+01
 Coeff:     -0.977D-03-0.308D-01 0.436D+00-0.173D+01 0.233D+01
 Gap=     0.424 Goal=   None    Shift=    0.500
 Gap=     0.424 Goal=   None    Shift=    0.500
 RMSDP=8.63D-05 MaxDP=5.04D-04 DE=-3.47D-05 OVMax= 5.52D-04

 Cycle   6  Pass 1  IDiag  1:
 E= -232.008890222843     Delta-E=       -0.000004929923 Rises=F Damp=F
 DIIS: error= 8.98D-05 at cycle   6 NSaved=   6.
 NSaved= 6 IEnMin= 6 EnMin= -232.008890222843     IErMin= 6 ErrMin= 8.98D-05
 ErrMax= 8.98D-05  0.00D+00 EMaxC= 1.00D+00 BMatC= 1.05D-06 BMatP= 7.95D-06
 IDIUse=1 WtCom= 1.00D+00 WtEn= 0.00D+00
 Coeff-Com: -0.174D-03 0.119D-01-0.165D+00 0.805D+00-0.217D+01 0.252D+01
 Coeff:     -0.174D-03 0.119D-01-0.165D+00 0.805D+00-0.217D+01 0.252D+01
 Gap=     0.424 Goal=   None    Shift=    0.500
 Gap=     0.424 Goal=   None    Shift=    0.500
 RMSDP=3.25D-05 MaxDP=1.78D-04 DE=-4.93D-06 OVMax= 2.28D-04

 Cycle   7  Pass 1  IDiag  1:
 E= -232.008890922461     Delta-E=       -0.000000699619 Rises=F Damp=F
 DIIS: error= 3.48D-05 at cycle   7 NSaved=   7.
 NSaved= 7 IEnMin= 7 EnMin= -232.008890922461     IErMin= 7 ErrMin= 3.48D-05
 ErrMax= 3.48D-05  0.00D+00 EMaxC= 1.00D+00 BMatC= 1.57D-07 BMatP= 1.05D-06
 IDIUse=1 WtCom= 1.00D+00 WtEn= 0.00D+00
 Coeff-Com: -0.327D-04-0.354D-02 0.517D-01-0.256D+00 0.843D+00-0.213D+01
 Coeff-Com:  0.250D+01
 Coeff:     -0.327D-04-0.354D-02 0.517D-01-0.256D+00 0.843D+00-0.213D+01
 Coeff:      0.250D+01
 Gap=     0.424 Goal=   None    Shift=    0.500
 Gap=     0.424 Goal=   None    Shift=    0.500
 RMSDP=1.25D-05 MaxDP=6.70D-05 DE=-7.00D-07 OVMax= 9.45D-05

 Cycle   8  Pass 1  IDiag  1:
 E= -232.008891026482     Delta-E=       -0.000000104021 Rises=F Damp=F
 DIIS: error= 1.37D-05 at cycle   8 NSaved=   8.
 NSaved= 8 IEnMin= 8 EnMin= -232.008891026482     IErMin= 8 ErrMin= 1.37D-05
 ErrMax= 1.37D-05  0.00D+00 EMaxC= 1.00D+00 BMatC= 2.52D-08 BMatP= 1.57D-07
 IDIUse=1 WtCom= 1.00D+00 WtEn= 0.00D+00
 Coeff-Com: -0.331D-04 0.166D-02-0.226D-01 0.112D+00-0.341D+00 0.986D+00
 Coeff-Com: -0.246D+01 0.273D+01
 Coeff:     -0.331D-04 0.166D-02-0.226D-01 0.112D+00-0.341D+00 0.986D+00
 Coeff:     -0.246D+01 0.273D+01
 Gap=     0.424 Goal=   None    Shift=    0.500
 Gap=     0.424 Goal=   None    Shift=    0.500
 RMSDP=4.98D-06 MaxDP=2.82D-05 DE=-1.04D-07 OVMax= 3.92D-05

 Cycle   9  Pass 1  IDiag  1:
 E= -232.008891042659     Delta-E=       -0.000000016177 Rises=F Damp=F
 DIIS: error= 5.53D-06 at cycle   9 NSaved=   9.
 NSaved= 9 IEnMin= 9 EnMin= -232.008891042659     IErMin= 9 ErrMin= 5.53D-06
 ErrMax= 5.53D-06  0.00D+00 EMaxC= 1.00D+00 BMatC= 4.14D-09 BMatP= 2.52D-08
 IDIUse=1 WtCom= 1.00D+00 WtEn= 0.00D+00
 Coeff-Com: -0.220D-05-0.997D-04 0.144D-02-0.840D-02 0.319D-01-0.959D-01
 Coeff-Com:  0.415D+00-0.163D+01 0.229D+01
 Coeff:     -0.220D-05-0.997D-04 0.144D-02-0.840D-02 0.319D-01-0.959D-01
 Coeff:      0.415D+00-0.163D+01 0.229D+01
 Gap=     0.424 Goal=   None    Shift=    0.500
 Gap=     0.424 Goal=   None    Shift=    0.500
 RMSDP=1.96D-06 MaxDP=1.15D-05 DE=-1.62D-08 OVMax= 1.60D-05

 Cycle  10  Pass 1  IDiag  1:
 E= -232.008891045212     Delta-E=       -0.000000002553 Rises=F Damp=F
 DIIS: error= 2.21D-06 at cycle  10 NSaved=  10.
 NSaved=10 IEnMin=10 EnMin= -232.008891045212     IErMin=10 ErrMin= 2.21D-06
 ErrMax= 2.21D-06  0.00D+00 EMaxC= 1.00D+00 BMatC= 6.87D-10 BMatP= 4.14D-09
 IDIUse=1 WtCom= 1.00D+00 WtEn= 0.00D+00
 Coeff-Com:  0.117D-05-0.454D-04 0.709D-03-0.450D-02 0.179D-01-0.545D-01
 Coeff-Com:  0.120D+00 0.182D+00-0.176D+01 0.250D+01
 Coeff:      0.117D-05-0.454D-04 0.709D-03-0.450D-02 0.179D-01-0.545D-01
 Coeff:      0.120D+00 0.182D+00-0.176D+01 0.250D+01
 Gap=     0.424 Goal=   None    Shift=    0.500
 Gap=     0.424 Goal=   None    Shift=    0.500
 RMSDP=7.74D-07 MaxDP=4.65D-06 DE=-2.55D-09 OVMax= 6.55D-06

 SCF Done:  E(ULC-wHPBE) =  -232.008891045     A.U. after   10 cycles
            NFock= 10  Conv=0.77D-06     -V/T= 2.0058
 <Sx>= 0.0000 <Sy>= 0.0000 <Sz>= 0.0000 <S**2>=-0.0000 S=-0.0000
 <L.S>= 0.000000000000E+00
 KE= 2.306780187093D+02 PE=-9.450194755861D+02 EE= 2.787885677396D+02
 Annihilation of the first spin contaminant:
 S**2 before annihilation    -0.0000,   after     0.0000
 Leave Link  502 at Wed Apr 22 16:21:10 2020, MaxMem=  6710886400 cpu:              11.5 elap:               0.7
 (Enter /opt/ohpc/pub/libs/gaussian/g16-A.03/sandybridge/g16/l508.exe)
 QCSCF skips out because SCF is already converged.
 Leave Link  508 at Wed Apr 22 16:21:10 2020, MaxMem=  6710886400 cpu:               0.0 elap:               0.0
 (Enter /opt/ohpc/pub/libs/gaussian/g16-A.03/sandybridge/g16/l601.exe)
 Copying SCF densities to generalized density rwf, IOpCl= 1 IROHF=0.

 **********************************************************************

            Population analysis using the SCF density.

 **********************************************************************

 Orbital symmetries:
 Alpha Orbitals:
       Occupied  (A1G) (E1U) (E1U) (E2G) (E2G) (B1U) (A1G) (E1U)
                 (E1U) (E2G) (E2G) (A1G) (B1U) (B2U) (E1U) (E1U)
                 (A2U) (E2G) (E2G) (E1G) (E1G)
       Virtual   (E2U) (E2U) (A1G) (E1U) (E1U) (B2G) (E2G) (E2G)
                 (B1U) (E2G) (E2G) (E1U) (E1U) (B2U) (A2U) (B1U)
                 (A2G) (A1G) (E1G) (E1G) (E2G) (E2G) (A1G) (E1U)
                 (E1U) (E2U) (E2U) (B2G) (B1U) (E2G) (E2G) (E1U)
                 (E1U) (A1G) (A2G) (E1U) (E1U) (E2G) (E2G) (E1U)
                 (E1U) (B1U) (E2G) (E2G) (B1U)
 Beta  Orbitals:
       Occupied  (A1G) (E1U) (E1U) (E2G) (E2G) (B1U) (A1G) (E1U)
                 (E1U) (E2G) (E2G) (A1G) (B1U) (B2U) (E1U) (E1U)
                 (A2U) (E2G) (E2G) (E1G) (E1G)
       Virtual   (E2U) (E2U) (A1G) (E1U) (E1U) (B2G) (E2G) (E2G)
                 (B1U) (E2G) (E2G) (E1U) (E1U) (B2U) (A2U) (B1U)
                 (A2G) (A1G) (E1G) (E1G) (E2G) (E2G) (A1G) (E1U)
                 (E1U) (E2U) (E2U) (B2G) (B1U) (E2G) (E2G) (E1U)
                 (E1U) (A1G) (A2G) (E1U) (E1U) (E2G) (E2G) (E1U)
                 (E1U) (B1U) (E2G) (E2G) (B1U)
 The electronic state is 1-A1G.
 Alpha  occ. eigenvalues --  -10.07099 -10.07088 -10.07088 -10.07056 -10.07056
 Alpha  occ. eigenvalues --  -10.07046  -0.96118  -0.85035  -0.85035  -0.70418
 Alpha  occ. eigenvalues --   -0.70418  -0.62934  -0.55603  -0.54453  -0.51843
 Alpha  occ. eigenvalues --   -0.51843  -0.47656  -0.43244  -0.43244  -0.34171
 Alpha  occ. eigenvalues --   -0.34171
 Alpha virt. eigenvalues --    0.08274   0.08274   0.18190   0.23699   0.23699
 Alpha virt. eigenvalues --    0.26006   0.27735   0.27735   0.28624   0.39724
 Alpha virt. eigenvalues --    0.39724   0.41456   0.41456   0.59030   0.62190
 Alpha virt. eigenvalues --    0.64478   0.66017   0.68143   0.70763   0.70763
 Alpha virt. eigenvalues --    0.72540   0.72540   0.73527   0.76611   0.76611
 Alpha virt. eigenvalues --    0.76657   0.76657   0.84200   0.94484   0.95382
 Alpha virt. eigenvalues --    0.95382   0.99665   0.99665   1.06342   1.07952
 Alpha virt. eigenvalues --    1.10666   1.10666   1.22983   1.22983   1.29035
 Alpha virt. eigenvalues --    1.29035   1.32689   1.56012   1.56012   2.00740
  Beta  occ. eigenvalues --  -10.07099 -10.07088 -10.07088 -10.07056 -10.07056
  Beta  occ. eigenvalues --  -10.07046  -0.96118  -0.85035  -0.85035  -0.70418
  Beta  occ. eigenvalues --   -0.70418  -0.62934  -0.55603  -0.54453  -0.51843
  Beta  occ. eigenvalues --   -0.51843  -0.47656  -0.43244  -0.43244  -0.34171
  Beta  occ. eigenvalues --   -0.34171
  Beta virt. eigenvalues --    0.08274   0.08274   0.18190   0.23699   0.23699
  Beta virt. eigenvalues --    0.26006   0.27735   0.27735   0.28624   0.39724
  Beta virt. eigenvalues --    0.39724   0.41456   0.41456   0.59030   0.62190
  Beta virt. eigenvalues --    0.64478   0.66017   0.68143   0.70763   0.70763
  Beta virt. eigenvalues --    0.72540   0.72540   0.73527   0.76611   0.76611
  Beta virt. eigenvalues --    0.76657   0.76657   0.84200   0.94484   0.95382
  Beta virt. eigenvalues --    0.95382   0.99665   0.99665   1.06342   1.07952
  Beta virt. eigenvalues --    1.10666   1.10666   1.22983   1.22983   1.29035
  Beta virt. eigenvalues --    1.29035   1.32689   1.56012   1.56012   2.00740
          Condensed to atoms (all electrons):
               1          2          3          4          5          6
     1  C    4.902033   0.540633  -0.051083  -0.035622  -0.051083   0.540633
     2  C    0.540633   4.902033   0.540633  -0.051083  -0.035622  -0.051083
     3  C   -0.051083   0.540633   4.902033   0.540633  -0.051083  -0.035622
     4  C   -0.035622  -0.051083   0.540633   4.902033   0.540633  -0.051083
     5  C   -0.051083  -0.035622  -0.051083   0.540633   4.902033   0.540633
     6  C    0.540633  -0.051083  -0.035622  -0.051083   0.540633   4.902033
     7  H    0.368028  -0.033420   0.003952   0.000361   0.003952  -0.033420
     8  H   -0.033420   0.368028  -0.033420   0.003952   0.000361   0.003952
     9  H    0.003952  -0.033420   0.368028  -0.033420   0.003952   0.000361
    10  H    0.000361   0.003952  -0.033420   0.368028  -0.033420   0.003952
    11  H    0.003952   0.000361   0.003952  -0.033420   0.368028  -0.033420
    12  H   -0.033420   0.003952   0.000361   0.003952  -0.033420   0.368028
               7          8          9         10         11         12
     1  C    0.368028  -0.033420   0.003952   0.000361   0.003952  -0.033420
     2  C   -0.033420   0.368028  -0.033420   0.003952   0.000361   0.003952
     3  C    0.003952  -0.033420   0.368028  -0.033420   0.003952   0.000361
     4  C    0.000361   0.003952  -0.033420   0.368028  -0.033420   0.003952
     5  C    0.003952   0.000361   0.003952  -0.033420   0.368028  -0.033420
     6  C   -0.033420   0.003952   0.000361   0.003952  -0.033420   0.368028
     7  H    0.543578  -0.003869  -0.000133   0.000008  -0.000133  -0.003869
     8  H   -0.003869   0.543578  -0.003869  -0.000133   0.000008  -0.000133
     9  H   -0.000133  -0.003869   0.543578  -0.003869  -0.000133   0.000008
    10  H    0.000008  -0.000133  -0.003869   0.543578  -0.003869  -0.000133
    11  H   -0.000133   0.000008  -0.000133  -0.003869   0.543578  -0.003869
    12  H   -0.003869  -0.000133   0.000008  -0.000133  -0.003869   0.543578
          Atomic-Atomic Spin Densities.
               1          2          3          4          5          6
     1  C   -0.000000   0.000000   0.000000  -0.000000   0.000000   0.000000
     2  C    0.000000  -0.000000   0.000000   0.000000  -0.000000   0.000000
     3  C    0.000000   0.000000  -0.000000   0.000000   0.000000  -0.000000
     4  C   -0.000000   0.000000   0.000000  -0.000000   0.000000   0.000000
     5  C    0.000000  -0.000000   0.000000   0.000000  -0.000000   0.000000
     6  C    0.000000   0.000000  -0.000000   0.000000   0.000000  -0.000000
     7  H   -0.000000   0.000000  -0.000000   0.000000  -0.000000   0.000000
     8  H    0.000000  -0.000000   0.000000  -0.000000   0.000000  -0.000000
     9  H   -0.000000   0.000000  -0.000000   0.000000  -0.000000   0.000000
    10  H    0.000000  -0.000000   0.000000  -0.000000   0.000000  -0.000000
    11  H   -0.000000   0.000000  -0.000000   0.000000  -0.000000   0.000000
    12  H    0.000000  -0.000000   0.000000  -0.000000   0.000000  -0.000000
               7          8          9         10         11         12
     1  C   -0.000000   0.000000  -0.000000   0.000000  -0.000000   0.000000
     2  C    0.000000  -0.000000   0.000000  -0.000000   0.000000  -0.000000
     3  C   -0.000000   0.000000  -0.000000   0.000000  -0.000000   0.000000
     4  C    0.000000  -0.000000   0.000000  -0.000000   0.000000  -0.000000
     5  C   -0.000000   0.000000  -0.000000   0.000000  -0.000000   0.000000
     6  C    0.000000  -0.000000   0.000000  -0.000000   0.000000  -0.000000
     7  H   -0.000000   0.000000  -0.000000   0.000000  -0.000000   0.000000
     8  H    0.000000  -0.000000   0.000000  -0.000000   0.000000  -0.000000
     9  H   -0.000000   0.000000  -0.000000   0.000000  -0.000000   0.000000
    10  H    0.000000  -0.000000   0.000000  -0.000000   0.000000  -0.000000
    11  H   -0.000000   0.000000  -0.000000   0.000000  -0.000000   0.000000
    12  H    0.000000  -0.000000   0.000000  -0.000000   0.000000  -0.000000
 Mulliken charges and spin densities:
               1          2
     1  C   -0.154966   0.000000
     2  C   -0.154966   0.000000
     3  C   -0.154966   0.000000
     4  C   -0.154966   0.000000
     5  C   -0.154966   0.000000
     6  C   -0.154966   0.000000
     7  H    0.154966  -0.000000
     8  H    0.154966  -0.000000
     9  H    0.154966  -0.000000
    10  H    0.154966  -0.000000
    11  H    0.154966  -0.000000
    12  H    0.154966  -0.000000
 Sum of Mulliken charges =  -0.00000   0.00000
 Mulliken charges and spin densities with hydrogens summed into heavy atoms:
               1          2
     1  C   -0.000000   0.000000
     2  C   -0.000000   0.000000
     3  C   -0.000000   0.000000
     4  C   -0.000000   0.000000
     5  C   -0.000000   0.000000
     6  C   -0.000000   0.000000
 Electronic spatial extent (au):  <R**2>=            456.7201
 Charge=             -0.0000 electrons
 Dipole moment (field-independent basis, Debye):
    X=              0.0000    Y=              0.0000    Z=             -0.0000  Tot=              0.0000
 Quadrupole moment (field-independent basis, Debye-Ang):
   XX=            -31.0637   YY=            -31.0637   ZZ=            -38.9329
   XY=             -0.0000   XZ=             -0.0000   YZ=             -0.0000
 Traceless Quadrupole moment (field-independent basis, Debye-Ang):
   XX=              2.6231   YY=              2.6231   ZZ=             -5.2461
   XY=             -0.0000   XZ=             -0.0000   YZ=             -0.0000
 Octapole moment (field-independent basis, Debye-Ang**2):
  XXX=              0.0000  YYY=              0.0000  ZZZ=              0.0000  XYY=             -0.0000
  XXY=             -0.0000  XXZ=              0.0000  XZZ=              0.0000  YZZ=              0.0000
  YYZ=              0.0000  XYZ=              0.0000
 Hexadecapole moment (field-independent basis, Debye-Ang**3):
 XXXX=           -263.5260 YYYY=           -263.5260 ZZZZ=            -40.2973 XXXY=              0.0000
 XXXZ=             -0.0000 YYYX=              0.0000 YYYZ=             -0.0000 ZZZX=             -0.0000
 ZZZY=             -0.0000 XXYY=            -87.8420 XXZZ=            -60.5149 YYZZ=            -60.5149
 XXYZ=             -0.0000 YYXZ=             -0.0000 ZZXY=              0.0000
 N-N= 2.035439980921D+02 E-N=-9.450193648809D+02  KE= 2.306780187093D+02
 Symmetry AG   KE= 7.428080210781D+01
 Symmetry B1G  KE= 3.758320459293D+01
 Symmetry B2G  KE= 2.264801207020D+00
 Symmetry B3G  KE= 2.264801207020D+00
 Symmetry AU   KE= 1.087319765314D-16
 Symmetry B1U  KE= 1.891819840946D+00
 Symmetry B2U  KE= 7.198091701022D+01
 Symmetry B3U  KE= 4.041167274335D+01
 Symmetry AG   SP= 8.200455976137D-15
 Symmetry B1G  SP= 1.315131065705D-14
 Symmetry B2G  SP= 1.758455771837D-15
 Symmetry B3G  SP= 1.925563009569D-15
 Symmetry AU   SP= 1.070979573349D-16
 Symmetry B1U  SP= 3.079602032553D-16
 Symmetry B2U  SP=-4.205451010134D-15
 Symmetry B3U  SP= 9.612772755331D-16
                          Isotropic Fermi Contact Couplings
        Atom                 a.u.       MegaHertz       Gauss      10(-4) cm-1
     1  C(13)             -0.00000      -0.00000      -0.00000      -0.00000
     2  C(13)             -0.00000      -0.00000      -0.00000      -0.00000
     3  C(13)             -0.00000      -0.00000      -0.00000      -0.00000
     4  C(13)             -0.00000      -0.00000      -0.00000      -0.00000
     5  C(13)             -0.00000      -0.00000      -0.00000      -0.00000
     6  C(13)             -0.00000      -0.00000      -0.00000      -0.00000
     7  H(1)              -0.00000      -0.00000      -0.00000      -0.00000
     8  H(1)              -0.00000      -0.00000      -0.00000      -0.00000
     9  H(1)              -0.00000      -0.00000      -0.00000      -0.00000
    10  H(1)              -0.00000      -0.00000      -0.00000      -0.00000
    11  H(1)              -0.00000      -0.00000      -0.00000      -0.00000
    12  H(1)              -0.00000      -0.00000      -0.00000      -0.00000
 --------------------------------------------------------
       Center         ----  Spin Dipole Couplings  ----
                      3XX-RR        3YY-RR        3ZZ-RR
 --------------------------------------------------------
     1   Atom        0.000000      0.000000      0.000000
     2   Atom        0.000000      0.000000      0.000000
     3   Atom        0.000000      0.000000      0.000000
     4   Atom        0.000000      0.000000      0.000000
     5   Atom        0.000000      0.000000      0.000000
     6   Atom        0.000000      0.000000      0.000000
     7   Atom        0.000000      0.000000      0.000000
     8   Atom        0.000000      0.000000      0.000000
     9   Atom        0.000000      0.000000      0.000000
    10   Atom        0.000000      0.000000      0.000000
    11   Atom        0.000000      0.000000      0.000000
    12   Atom        0.000000      0.000000      0.000000
 --------------------------------------------------------
                        XY            XZ            YZ
 --------------------------------------------------------
     1   Atom        0.000000      0.000000      0.000000
     2   Atom        0.000000      0.000000      0.000000
     3   Atom        0.000000      0.000000      0.000000
     4   Atom        0.000000      0.000000      0.000000
     5   Atom        0.000000      0.000000      0.000000
     6   Atom        0.000000      0.000000      0.000000
     7   Atom        0.000000      0.000000      0.000000
     8   Atom        0.000000      0.000000      0.000000
     9   Atom        0.000000      0.000000      0.000000
    10   Atom        0.000000      0.000000      0.000000
    11   Atom        0.000000      0.000000      0.000000
    12   Atom        0.000000      0.000000      0.000000
 --------------------------------------------------------


 ---------------------------------------------------------------------------------
              Anisotropic Spin Dipole Couplings in Principal Axis System
 ---------------------------------------------------------------------------------

       Atom             a.u.   MegaHertz   Gauss  10(-4) cm-1        Axes

              Baa     0.0000     0.000     0.000     0.000  1.0000  0.0000  0.0000
     1 C(13)  Bbb     0.0000     0.000     0.000     0.000 -0.0000  1.0000  0.0000
              Bcc     0.0000     0.000     0.000     0.000  0.0000  0.0000  1.0000
 
              Baa     0.0000     0.000     0.000     0.000  1.0000  0.0000  0.0000
     2 C(13)  Bbb     0.0000     0.000     0.000     0.000 -0.0000  1.0000  0.0000
              Bcc     0.0000     0.000     0.000     0.000  0.0000  0.0000  1.0000
 
              Baa     0.0000     0.000     0.000     0.000  1.0000  0.0000  0.0000
     3 C(13)  Bbb     0.0000     0.000     0.000     0.000 -0.0000  1.0000  0.0000
              Bcc     0.0000     0.000     0.000     0.000  0.0000  0.0000  1.0000
 
              Baa     0.0000     0.000     0.000     0.000  1.0000  0.0000  0.0000
     4 C(13)  Bbb     0.0000     0.000     0.000     0.000 -0.0000  1.0000  0.0000
              Bcc     0.0000     0.000     0.000     0.000  0.0000  0.0000  1.0000
 
              Baa     0.0000     0.000     0.000     0.000  1.0000  0.0000  0.0000
     5 C(13)  Bbb     0.0000     0.000     0.000     0.000 -0.0000  1.0000  0.0000
              Bcc     0.0000     0.000     0.000     0.000  0.0000  0.0000  1.0000
 
              Baa     0.0000     0.000     0.000     0.000  1.0000  0.0000  0.0000
     6 C(13)  Bbb     0.0000     0.000     0.000     0.000 -0.0000  1.0000  0.0000
              Bcc     0.0000     0.000     0.000     0.000  0.0000  0.0000  1.0000
 
              Baa     0.0000     0.000     0.000     0.000  1.0000  0.0000  0.0000
     7 H(1)   Bbb     0.0000     0.000     0.000     0.000 -0.0000  1.0000  0.0000
              Bcc     0.0000     0.000     0.000     0.000  0.0000  0.0000  1.0000
 
              Baa     0.0000     0.000     0.000     0.000  1.0000  0.0000  0.0000
     8 H(1)   Bbb     0.0000     0.000     0.000     0.000 -0.0000  1.0000  0.0000
              Bcc     0.0000     0.000     0.000     0.000  0.0000  0.0000  1.0000
 
              Baa     0.0000     0.000     0.000     0.000  1.0000  0.0000  0.0000
     9 H(1)   Bbb     0.0000     0.000     0.000     0.000 -0.0000  1.0000  0.0000
              Bcc     0.0000     0.000     0.000     0.000  0.0000  0.0000  1.0000
 
              Baa     0.0000     0.000     0.000     0.000  1.0000  0.0000  0.0000
    10 H(1)   Bbb     0.0000     0.000     0.000     0.000 -0.0000  1.0000  0.0000
              Bcc     0.0000     0.000     0.000     0.000  0.0000  0.0000  1.0000
 
              Baa     0.0000     0.000     0.000     0.000  1.0000  0.0000  0.0000
    11 H(1)   Bbb     0.0000     0.000     0.000     0.000 -0.0000  1.0000  0.0000
              Bcc     0.0000     0.000     0.000     0.000  0.0000  0.0000  1.0000
 
              Baa     0.0000     0.000     0.000     0.000  1.0000  0.0000  0.0000
    12 H(1)   Bbb     0.0000     0.000     0.000     0.000 -0.0000  1.0000  0.0000
              Bcc     0.0000     0.000     0.000     0.000  0.0000  0.0000  1.0000
 

 ---------------------------------------------------------------------------------

 No NMR shielding tensors so no spin-rotation constants.
 Leave Link  601 at Wed Apr 22 16:21:10 2020, MaxMem=  6710886400 cpu:               2.1 elap:               0.2
 (Enter /opt/ohpc/pub/libs/gaussian/g16-A.03/sandybridge/g16/l9999.exe)

 Test job not archived.
 1\1\GINC-CNODE136\SP\ULC-wHPBE\6-31G\C6H6\QAI222\22-Apr-2020\0\\#P uLC
 -wHPBE/6-31G iop(3/107=0313700000, 3/108=0313700000) scf=(conver=6,fer
 mi,ndamp=35,noincfock,novaracc,vshift=500,xqc)\\H6 C6\\0,1\C,0,0.,1.39
 316,0.\C,0,-1.206512,0.69658,0.\C,0,-1.206512,-0.69658,0.\C,0,0.,-1.39
 316,0.\C,0,1.206512,-0.69658,0.\C,0,1.206512,0.69658,0.\H,0,0.,2.48268
 1,0.\H,0,-2.150065,1.24134,0.\H,0,-2.150065,-1.24134,0.\H,0,0.,-2.4826
 81,0.\H,0,2.150065,-1.24134,0.\H,0,2.150065,1.24134,0.\\Version=EM64L-
 G16RevA.03\State=1-A1G\HF=-232.008891\S2=0.\S2-1=0.\S2A=0.\RMSD=7.741e
 -07\Dipole=0.,0.,0.\Quadrupole=1.9501761,1.9501761,-3.9003522,0.,0.,0.
 \PG=D06H [3C2'(H1C1.C1H1)]\\@


 WHEN ALL ELSE FAILS, TRY THE BOSS'S SUGGESTION.
 Job cpu time:       0 days  0 hours  0 minutes 35.4 seconds.
 Elapsed time:       0 days  0 hours  0 minutes  2.5 seconds.
 File lengths (MBytes):  RWF=    272 Int=      0 D2E=      0 Chk=     32 Scr=     32
 Normal termination of Gaussian 16 at Wed Apr 22 16:21:10 2020.
