 Entering Gaussian System, Link 0=g16
 Input=1b_tune_n5.gjf
 Output=1b_tune_n5.log
 Initial command:
 /opt/ohpc/pub/libs/gaussian/g16-A.03/sandybridge/g16/l1.exe "/pscratch/cmri235_uksr/ocelot/fw/dev/ocelot_api/tests/wtuning_test/1b/tuning_1b_ocycle0/Gau-60621.inp" -scrdir="/pscratch/cmri235_uksr/ocelot/fw/dev/ocelot_api/tests/wtuning_test/1b/tuning_1b_ocycle0/"
 Entering Link 1 = /opt/ohpc/pub/libs/gaussian/g16-A.03/sandybridge/g16/l1.exe PID=     60622.
  
 Copyright (c) 1988,1990,1992,1993,1995,1998,2003,2009,2016,
            Gaussian, Inc.  All Rights Reserved.
  
 This is part of the Gaussian(R) 16 program.  It is based on
 the Gaussian(R) 09 system (copyright 2009, Gaussian, Inc.),
 the Gaussian(R) 03 system (copyright 2003, Gaussian, Inc.),
 the Gaussian(R) 98 system (copyright 1998, Gaussian, Inc.),
 the Gaussian(R) 94 system (copyright 1995, Gaussian, Inc.),
 the Gaussian 92(TM) system (copyright 1992, Gaussian, Inc.),
 the Gaussian 90(TM) system (copyright 1990, Gaussian, Inc.),
 the Gaussian 88(TM) system (copyright 1988, Gaussian, Inc.),
 the Gaussian 86(TM) system (copyright 1986, Carnegie Mellon
 University), and the Gaussian 82(TM) system (copyright 1983,
 Carnegie Mellon University). Gaussian is a federally registered
 trademark of Gaussian, Inc.
  
 This software contains proprietary and confidential information,
 including trade secrets, belonging to Gaussian, Inc.
  
 This software is provided under written license and may be
 used, copied, transmitted, or stored only in accord with that
 written license.
  
 The following legend is applicable only to US Government
 contracts under FAR:
  
                    RESTRICTED RIGHTS LEGEND
  
 Use, reproduction and disclosure by the US Government is
 subject to restrictions as set forth in subparagraphs (a)
 and (c) of the Commercial Computer Software - Restricted
 Rights clause in FAR 52.227-19.
  
 Gaussian, Inc.
 340 Quinnipiac St., Bldg. 40, Wallingford CT 06492
  
  
 ---------------------------------------------------------------
 Warning -- This program may not be used in any manner that
 competes with the business of Gaussian, Inc. or will provide
 assistance to any competitor of Gaussian, Inc.  The licensee
 of this program is prohibited from giving any competitor of
 Gaussian, Inc. access to this program.  By using this program,
 the user acknowledges that Gaussian, Inc. is engaged in the
 business of creating and licensing software in the field of
 computational chemistry and represents and warrants to the
 licensee that it is not a competitor of Gaussian, Inc. and that
 it will not use this program in any manner prohibited above.
 ---------------------------------------------------------------
  

 Cite this work as:
 Gaussian 16, Revision A.03,
 M. J. Frisch, G. W. Trucks, H. B. Schlegel, G. E. Scuseria, 
 M. A. Robb, J. R. Cheeseman, G. Scalmani, V. Barone, 
 G. A. Petersson, H. Nakatsuji, X. Li, M. Caricato, A. V. Marenich, 
 J. Bloino, B. G. Janesko, R. Gomperts, B. Mennucci, H. P. Hratchian, 
 J. V. Ortiz, A. F. Izmaylov, J. L. Sonnenberg, D. Williams-Young, 
 F. Ding, F. Lipparini, F. Egidi, J. Goings, B. Peng, A. Petrone, 
 T. Henderson, D. Ranasinghe, V. G. Zakrzewski, J. Gao, N. Rega, 
 G. Zheng, W. Liang, M. Hada, M. Ehara, K. Toyota, R. Fukuda, 
 J. Hasegawa, M. Ishida, T. Nakajima, Y. Honda, O. Kitao, H. Nakai, 
 T. Vreven, K. Throssell, J. A. Montgomery, Jr., J. E. Peralta, 
 F. Ogliaro, M. J. Bearpark, J. J. Heyd, E. N. Brothers, K. N. Kudin, 
 V. N. Staroverov, T. A. Keith, R. Kobayashi, J. Normand, 
 K. Raghavachari, A. P. Rendell, J. C. Burant, S. S. Iyengar, 
 J. Tomasi, M. Cossi, J. M. Millam, M. Klene, C. Adamo, R. Cammi, 
 J. W. Ochterski, R. L. Martin, K. Morokuma, O. Farkas, 
 J. B. Foresman, and D. J. Fox, Gaussian, Inc., Wallingford CT, 2016.
 
 ******************************************
 Gaussian 16:  EM64L-G16RevA.03 25-Dec-2016
                16-Mar-2020 
 ******************************************
 %mem=50GB
 %nproc=16
 Will use up to   16 processors via shared memory.
 ----------------------------------------------------------------------
 #P uLC-wHPBE/6-31G iop(3/107=0311800000, 3/108=0311800000) scf=(conver
 =6,fermi,ndamp=35,noincfock,novaracc,vshift=500,xqc)
 ----------------------------------------------------------------------
 1/38=1,172=1/1;
 2/12=2,17=6,18=5,40=1/2;
 3/5=1,6=6,11=2,25=1,30=1,74=-71,107=311800000,108=311800000,116=2/1,2,3;
 4//1;
 5/5=100002,6=6,8=3,10=500,13=1,18=-1,22=13,38=1,93=35/2,8;
 6/7=2,8=2,9=2,10=2,28=1/1;
 99/5=1,9=1/99;
 Leave Link    1 at Mon Mar 16 03:49:37 2020, MaxMem=  6710886400 cpu:              12.9 elap:               0.9
 (Enter /opt/ohpc/pub/libs/gaussian/g16-A.03/sandybridge/g16/l101.exe)
 -----
 H6 C6
 -----
 Symbolic Z-matrix:
 Charge =  0 Multiplicity = 1
 C                     0.        1.39316   0. 
 C                    -1.20651   0.69658   0. 
 C                    -1.20651  -0.69658   0. 
 C                     0.       -1.39316   0. 
 C                     1.20651  -0.69658   0. 
 C                     1.20651   0.69658   0. 
 H                     0.        2.48268   0. 
 H                    -2.15007   1.24134   0. 
 H                    -2.15007  -1.24134   0. 
 H                     0.       -2.48268   0. 
 H                     2.15007  -1.24134   0. 
 H                     2.15007   1.24134   0. 
 
 ITRead=  0  0  0  0  0  0  0  0  0  0  0  0
 MicOpt= -1 -1 -1 -1 -1 -1 -1 -1 -1 -1 -1 -1
 NAtoms=     12 NQM=       12 NQMF=       0 NMMI=      0 NMMIF=      0
                NMic=       0 NMicF=      0.
                    Isotopes and Nuclear Properties:
 (Nuclear quadrupole moments (NQMom) in fm**2, nuclear magnetic moments (NMagM)
  in nuclear magnetons)

  Atom         1           2           3           4           5           6           7           8           9          10
 IAtWgt=          12          12          12          12          12          12           1           1           1           1
 AtmWgt=  12.0000000  12.0000000  12.0000000  12.0000000  12.0000000  12.0000000   1.0078250   1.0078250   1.0078250   1.0078250
 NucSpn=           0           0           0           0           0           0           1           1           1           1
 AtZEff=  -0.0000000  -0.0000000  -0.0000000  -0.0000000  -0.0000000  -0.0000000  -0.0000000  -0.0000000  -0.0000000  -0.0000000
 NQMom=    0.0000000   0.0000000   0.0000000   0.0000000   0.0000000   0.0000000   0.0000000   0.0000000   0.0000000   0.0000000
 NMagM=    0.0000000   0.0000000   0.0000000   0.0000000   0.0000000   0.0000000   2.7928460   2.7928460   2.7928460   2.7928460
 AtZNuc=   6.0000000   6.0000000   6.0000000   6.0000000   6.0000000   6.0000000   1.0000000   1.0000000   1.0000000   1.0000000

  Atom        11          12
 IAtWgt=           1           1
 AtmWgt=   1.0078250   1.0078250
 NucSpn=           1           1
 AtZEff=  -0.0000000  -0.0000000
 NQMom=    0.0000000   0.0000000
 NMagM=    2.7928460   2.7928460
 AtZNuc=   1.0000000   1.0000000
 Leave Link  101 at Mon Mar 16 03:49:38 2020, MaxMem=  6710886400 cpu:               2.8 elap:               0.2
 (Enter /opt/ohpc/pub/libs/gaussian/g16-A.03/sandybridge/g16/l202.exe)
                          Input orientation:                          
 ---------------------------------------------------------------------
 Center     Atomic      Atomic             Coordinates (Angstroms)
 Number     Number       Type             X           Y           Z
 ---------------------------------------------------------------------
      1          6           0        0.000000    1.393160    0.000000
      2          6           0       -1.206512    0.696580    0.000000
      3          6           0       -1.206512   -0.696580    0.000000
      4          6           0        0.000000   -1.393160    0.000000
      5          6           0        1.206512   -0.696580    0.000000
      6          6           0        1.206512    0.696580    0.000000
      7          1           0        0.000000    2.482681    0.000000
      8          1           0       -2.150065    1.241340    0.000000
      9          1           0       -2.150065   -1.241340    0.000000
     10          1           0        0.000000   -2.482681    0.000000
     11          1           0        2.150065   -1.241340    0.000000
     12          1           0        2.150065    1.241340    0.000000
 ---------------------------------------------------------------------
                    Distance matrix (angstroms):
                    1          2          3          4          5
     1  C    0.000000
     2  C    1.393160   0.000000
     3  C    2.413024   1.393160   0.000000
     4  C    2.786320   2.413024   1.393160   0.000000
     5  C    2.413024   2.786320   2.413024   1.393160   0.000000
     6  C    1.393160   2.413024   2.786320   2.413024   1.393160
     7  H    1.089521   2.155418   3.400496   3.875841   3.400496
     8  H    2.155418   1.089521   2.155418   3.400496   3.875841
     9  H    3.400496   2.155418   1.089521   2.155418   3.400496
    10  H    3.875841   3.400496   2.155418   1.089521   2.155418
    11  H    3.400496   3.875841   3.400496   2.155418   1.089521
    12  H    2.155418   3.400496   3.875841   3.400496   2.155418
                    6          7          8          9         10
     6  C    0.000000
     7  H    2.155418   0.000000
     8  H    3.400496   2.482681   0.000000
     9  H    3.875841   4.300129   2.482680   0.000000
    10  H    3.400496   4.965362   4.300129   2.482681   0.000000
    11  H    2.155418   4.300129   4.965362   4.300130   2.482681
    12  H    1.089521   2.482681   4.300130   4.965362   4.300129
                   11         12
    11  H    0.000000
    12  H    2.482680   0.000000
 Stoichiometry    C6H6
 Framework group  D6H[3C2'(HC.CH)]
 Deg. of freedom     2
 Full point group                 D6H     NOp  24
 Largest Abelian subgroup         D2H     NOp   8
 Largest concise Abelian subgroup D2      NOp   4
                         Standard orientation:                         
 ---------------------------------------------------------------------
 Center     Atomic      Atomic             Coordinates (Angstroms)
 Number     Number       Type             X           Y           Z
 ---------------------------------------------------------------------
      1          6           0       -0.000000    1.393160   -0.000000
      2          6           0       -1.206512    0.696580   -0.000000
      3          6           0       -1.206512   -0.696580   -0.000000
      4          6           0       -0.000000   -1.393160   -0.000000
      5          6           0        1.206512   -0.696580   -0.000000
      6          6           0        1.206512    0.696580   -0.000000
      7          1           0        0.000000    2.482681   -0.000000
      8          1           0       -2.150065    1.241341   -0.000000
      9          1           0       -2.150065   -1.241340   -0.000000
     10          1           0       -0.000000   -2.482681   -0.000000
     11          1           0        2.150065   -1.241341   -0.000000
     12          1           0        2.150065    1.241340   -0.000000
 ---------------------------------------------------------------------
 Rotational constants (GHZ):           5.7099798           5.7099798           2.8549899
 Leave Link  202 at Mon Mar 16 03:49:38 2020, MaxMem=  6710886400 cpu:               0.2 elap:               0.0
 (Enter /opt/ohpc/pub/libs/gaussian/g16-A.03/sandybridge/g16/l301.exe)
 Standard basis: 6-31G (6D, 7F)
 Ernie: Thresh=  0.10000D-02 Tol=  0.10000D-05 Strict=F.
 There are    16 symmetry adapted cartesian basis functions of AG  symmetry.
 There are    11 symmetry adapted cartesian basis functions of B1G symmetry.
 There are     2 symmetry adapted cartesian basis functions of B2G symmetry.
 There are     4 symmetry adapted cartesian basis functions of B3G symmetry.
 There are     2 symmetry adapted cartesian basis functions of AU  symmetry.
 There are     4 symmetry adapted cartesian basis functions of B1U symmetry.
 There are    16 symmetry adapted cartesian basis functions of B2U symmetry.
 There are    11 symmetry adapted cartesian basis functions of B3U symmetry.
 There are    16 symmetry adapted basis functions of AG  symmetry.
 There are    11 symmetry adapted basis functions of B1G symmetry.
 There are     2 symmetry adapted basis functions of B2G symmetry.
 There are     4 symmetry adapted basis functions of B3G symmetry.
 There are     2 symmetry adapted basis functions of AU  symmetry.
 There are     4 symmetry adapted basis functions of B1U symmetry.
 There are    16 symmetry adapted basis functions of B2U symmetry.
 There are    11 symmetry adapted basis functions of B3U symmetry.
    66 basis functions,   156 primitive gaussians,    66 cartesian basis functions
    21 alpha electrons       21 beta electrons
       nuclear repulsion energy       203.5439980921 Hartrees.
 IExCor=33909 DFT=T Ex+Corr=LC-wHPBE ExCW=0 ScaHFX=  1.000000
 ScaDFX=  1.000000  1.000000  1.000000  1.000000 ScalE2=  1.000000  1.000000
 IRadAn=      5 IRanWt=     -1 IRanGd=            0 ICorTp=0 IEmpDi=  4
 HFx  wShort=  0.000000 wLong=  0.311800 cFull=  0.000000 cShort=  0.000000 cLong=  1.000000
 DFx  wShort=  0.000000 wLong=  0.311800 cFull=  0.000000 cShort=  1.000000 cLong=  0.000000
 NAtoms=   12 NActive=   12 NUniq=    2 SFac= 4.00D+00 NAtFMM=   60 NAOKFM=F Big=F
 Integral buffers will be    131072 words long.
 Raffenetti 2 integral format.
 Two-electron integral symmetry is turned on.
 Leave Link  301 at Mon Mar 16 03:49:38 2020, MaxMem=  6710886400 cpu:               1.0 elap:               0.1
 (Enter /opt/ohpc/pub/libs/gaussian/g16-A.03/sandybridge/g16/l302.exe)
 NPDir=0 NMtPBC=     1 NCelOv=     1 NCel=       1 NClECP=     1 NCelD=      1
         NCelK=      1 NCelE2=     1 NClLst=     1 CellRange=     0.0.
 One-electron integrals computed using PRISM.
 One-electron integral symmetry used in STVInt
 NBasis=    66 RedAO= T EigKep=  6.87D-04  NBF=    16    11     2     4     2     4    16    11
 NBsUse=    66 1.00D-06 EigRej= -1.00D+00 NBFU=    16    11     2     4     2     4    16    11
 Precomputing XC quadrature grid using
 IXCGrd= 4 IRadAn=           5 IRanWt=          -1 IRanGd=           0 AccXCQ= 0.00D+00.
 Generated NRdTot=       0 NPtTot=           0 NUsed=           0 NTot=          32
 NSgBfM=    66    66    66    66    66 MxSgAt=    12 MxSgA2=    12.
 Leave Link  302 at Mon Mar 16 03:49:38 2020, MaxMem=  6710886400 cpu:               2.2 elap:               0.2
 (Enter /opt/ohpc/pub/libs/gaussian/g16-A.03/sandybridge/g16/l303.exe)
 DipDrv:  MaxL=1.
 Leave Link  303 at Mon Mar 16 03:49:38 2020, MaxMem=  6710886400 cpu:               0.9 elap:               0.1
 (Enter /opt/ohpc/pub/libs/gaussian/g16-A.03/sandybridge/g16/l401.exe)
 ExpMin= 1.61D-01 ExpMax= 3.05D+03 ExpMxC= 4.57D+02 IAcc=3 IRadAn=         5 AccDes= 0.00D+00
 Harris functional with IExCor=33909 and IRadAn=       5 diagonalized for initial guess.
 HarFok:  IExCor=33909 AccDes= 0.00D+00 IRadAn=         5 IDoV= 1 UseB2=F ITyADJ=14
 ICtDFT=  3500011 ScaDFX=  1.000000  1.000000  1.000000  1.000000
 FoFCou: FMM=F IPFlag=           0 FMFlag=      100000 FMFlg1=           0
         NFxFlg=           0 DoJE=T BraDBF=F KetDBF=T FulRan=T
         wScrn=  0.000000 ICntrl=       500 IOpCl=  0 I1Cent=   200000004 NGrid=           0
         NMat0=    1 NMatS0=      1 NMatT0=    0 NMatD0=    1 NMtDS0=    0 NMtDT0=    0
 Petite list used in FoFCou.
 Harris En= -225.342020168285    
 JPrj=0 DoOrth=F DoCkMO=F.
 Initial guess orbital symmetries:
 Alpha Orbitals:
       Occupied  (A1G) (E1U) (E1U) (E2G) (E2G) (B1U) (A1G) (E1U)
                 (E1U) (E2G) (E2G) (A1G) (B2U) (B1U) (E1U) (E1U)
                 (A2U) (E2G) (E2G) (E1G) (E1G)
       Virtual   (E2U) (E2U) (A1G) (B2G) (E1U) (E1U) (E2G) (E2G)
                 (B1U) (E2G) (E2G) (E1U) (E1U) (B2U) (A2U) (B1U)
                 (A2G) (A1G) (E2G) (E2G) (E1G) (E1G) (A1G) (E1U)
                 (E1U) (E2U) (E2U) (B2G) (B1U) (E2G) (E2G) (E1U)
                 (E1U) (A2G) (A1G) (E1U) (E1U) (E2G) (E2G) (E1U)
                 (E1U) (B1U) (E2G) (E2G) (B1U)
 Beta  Orbitals:
       Occupied  (A1G) (E1U) (E1U) (E2G) (E2G) (B1U) (A1G) (E1U)
                 (E1U) (E2G) (E2G) (A1G) (B2U) (B1U) (E1U) (E1U)
                 (A2U) (E2G) (E2G) (E1G) (E1G)
       Virtual   (E2U) (E2U) (A1G) (B2G) (E1U) (E1U) (E2G) (E2G)
                 (B1U) (E2G) (E2G) (E1U) (E1U) (B2U) (A2U) (B1U)
                 (A2G) (A1G) (E2G) (E2G) (E1G) (E1G) (A1G) (E1U)
                 (E1U) (E2U) (E2U) (B2G) (B1U) (E2G) (E2G) (E1U)
                 (E1U) (A2G) (A1G) (E1U) (E1U) (E2G) (E2G) (E1U)
                 (E1U) (B1U) (E2G) (E2G) (B1U)
 The electronic state of the initial guess is 1-A1G.
 Initial guess <Sx>= 0.0000 <Sy>= 0.0000 <Sz>= 0.0000 <S**2>= 0.0000 S= 0.0000
 Leave Link  401 at Mon Mar 16 03:49:38 2020, MaxMem=  6710886400 cpu:               2.8 elap:               0.2
 (Enter /opt/ohpc/pub/libs/gaussian/g16-A.03/sandybridge/g16/l502.exe)
 Keep R1 and R2 ints in memory in symmetry-blocked form, NReq=19109854.
 FoFCou: FMM=F IPFlag=           0 FMFlag=           0 FMFlg1=           0
         NFxFlg=           0 DoJE=F BraDBF=F KetDBF=F FulRan=T
         wScrn=  0.000000 ICntrl=       600 IOpCl=  0 I1Cent=           0 NGrid=           0
         NMat0=    1 NMatS0=   2211 NMatT0=    0 NMatD0=    1 NMtDS0=    0 NMtDT0=    0
 Petite list used in FoFCou.
 UHF open shell SCF:
 Using DIIS extrapolation, IDIIS=    10.
 NGot=  6710886400 LenX=  6710146038 LenY=  6710141241
 Requested convergence on RMS density matrix=1.00D-06 within  32 cycles.
 Requested convergence on MAX density matrix=1.00D-04.
 Requested convergence on             energy=1.00D-04.
 Virtual orbitals will be shifted by   0.500 hartree.
 No special actions if energy rises.
 Dynamic level shift is on during FON iterations.

 Cycle   1  Pass 1  IDiag  1:
 E= -231.937174218249    
 DIIS: error= 3.60D-02 at cycle   1 NSaved=   1.
 NSaved= 1 IEnMin= 1 EnMin= -231.937174218249     IErMin= 1 ErrMin= 3.60D-02
 ErrMax= 3.60D-02  0.00D+00 EMaxC= 1.00D+00 BMatC= 2.35D-01 BMatP= 2.35D-01
 IDIUse=1 WtCom= 1.00D+00 WtEn= 0.00D+00
 Coeff-Com:  0.100D+01
 Coeff:      0.100D+01
 Gap=     0.424 Goal=   None    Shift=    0.500
 T= 1606. Gap= 0.917 NK=0 IS=   22 IE=   66 IFin=   21
          NO(<0.9)=   0  NV(>0.1)=   0     21.00e < EF      0.00e >EF  Err=0.0D+00
 Gap=     0.424 Goal=   None    Shift=    0.500
 T= 1606. Gap= 0.917 NK=0 IS=   22 IE=   66 IFin=   21
          NO(<0.9)=   0  NV(>0.1)=   0     21.00e < EF      0.00e >EF  Err=0.0D+00
 GapD=    0.424 DampG=2.000 DampE=0.500 DampFc=1.0000 IDamp=-1.
 RMSDP=4.11D-03 MaxDP=3.87D-02              OVMax= 4.84D-02

 Cycle   2  Pass 1  IDiag  1:
 E= -232.007006481109     Delta-E=       -0.069832262860 Rises=F Damp=F
 DIIS: error= 4.17D-03 at cycle   2 NSaved=   2.
 NSaved= 2 IEnMin= 2 EnMin= -232.007006481109     IErMin= 2 ErrMin= 4.17D-03
 ErrMax= 4.17D-03  0.00D+00 EMaxC= 1.00D+00 BMatC= 4.76D-03 BMatP= 2.35D-01
 IDIUse=1 WtCom= 1.00D+00 WtEn= 0.00D+00
 Coeff-Com:  0.705D-01 0.929D+00
 Coeff:      0.705D-01 0.929D+00
 Gap=     0.425 Goal=   None    Shift=    0.500
 T= 1396. Gap= 0.924 NK=0 IS=   22 IE=   66 IFin=   21
          NO(<0.9)=   0  NV(>0.1)=   0     21.00e < EF      0.00e >EF  Err=0.0D+00
 Gap=     0.425 Goal=   None    Shift=    0.500
 T= 1396. Gap= 0.924 NK=0 IS=   22 IE=   66 IFin=   21
          NO(<0.9)=   0  NV(>0.1)=   0     21.00e < EF      0.00e >EF  Err=0.0D+00
 GapD=    0.425 DampG=2.000 DampE=1.000 DampFc=2.0000 IDamp=-1.
 RMSDP=7.72D-04 MaxDP=5.57D-03 DE=-6.98D-02 OVMax= 4.84D-03

 Cycle   3  Pass 1  IDiag  1:
 E= -232.008245488978     Delta-E=       -0.001239007869 Rises=F Damp=F
 DIIS: error= 1.56D-03 at cycle   3 NSaved=   3.
 NSaved= 3 IEnMin= 3 EnMin= -232.008245488978     IErMin= 3 ErrMin= 1.56D-03
 ErrMax= 1.56D-03  0.00D+00 EMaxC= 1.00D+00 BMatC= 5.47D-04 BMatP= 4.76D-03
 IDIUse=1 WtCom= 1.00D+00 WtEn= 0.00D+00
 Coeff-Com:  0.590D-02-0.365D+00 0.136D+01
 Coeff:      0.590D-02-0.365D+00 0.136D+01
 Gap=     0.424 Goal=   None    Shift=    0.500
 T= 1035. Gap= 0.924 NK=0 IS=   22 IE=   66 IFin=   21
          NO(<0.9)=   0  NV(>0.1)=   0     21.00e < EF      0.00e >EF  Err=0.0D+00
 Gap=     0.424 Goal=   None    Shift=    0.500
 T= 1035. Gap= 0.924 NK=0 IS=   22 IE=   66 IFin=   21
          NO(<0.9)=   0  NV(>0.1)=   0     21.00e < EF      0.00e >EF  Err=0.0D+00
 GapD=    0.424 DampG=2.000 DampE=1.000 DampFc=2.0000 IDamp=-1.
 RMSDP=3.81D-04 MaxDP=2.91D-03 DE=-1.24D-03 OVMax= 2.38D-03

 Cycle   4  Pass 1  IDiag  1:
 E= -232.008456015704     Delta-E=       -0.000210526726 Rises=F Damp=F
 DIIS: error= 6.05D-04 at cycle   4 NSaved=   4.
 NSaved= 4 IEnMin= 4 EnMin= -232.008456015704     IErMin= 4 ErrMin= 6.05D-04
 ErrMax= 6.05D-04  0.00D+00 EMaxC= 1.00D+00 BMatC= 6.93D-05 BMatP= 5.47D-04
 IDIUse=1 WtCom= 1.00D+00 WtEn= 0.00D+00
 Coeff-Com: -0.332D-02 0.765D-01-0.819D+00 0.175D+01
 Coeff:     -0.332D-02 0.765D-01-0.819D+00 0.175D+01
 Gap=     0.424 Goal=   None    Shift=    0.500
 Gap=     0.424 Goal=   None    Shift=    0.500
 RMSDP=1.97D-04 MaxDP=1.36D-03 DE=-2.11D-04 OVMax= 1.26D-03

 Cycle   5  Pass 1  IDiag  1:
 E= -232.008490798463     Delta-E=       -0.000034782759 Rises=F Damp=F
 DIIS: error= 2.36D-04 at cycle   5 NSaved=   5.
 NSaved= 5 IEnMin= 5 EnMin= -232.008490798463     IErMin= 5 ErrMin= 2.36D-04
 ErrMax= 2.36D-04  0.00D+00 EMaxC= 1.00D+00 BMatC= 7.98D-06 BMatP= 6.93D-05
 IDIUse=1 WtCom= 1.00D+00 WtEn= 0.00D+00
 Coeff-Com: -0.982D-03-0.306D-01 0.435D+00-0.173D+01 0.233D+01
 Coeff:     -0.982D-03-0.306D-01 0.435D+00-0.173D+01 0.233D+01
 Gap=     0.424 Goal=   None    Shift=    0.500
 Gap=     0.424 Goal=   None    Shift=    0.500
 RMSDP=8.68D-05 MaxDP=5.08D-04 DE=-3.48D-05 OVMax= 5.49D-04

 Cycle   6  Pass 1  IDiag  1:
 E= -232.008495744908     Delta-E=       -0.000004946445 Rises=F Damp=F
 DIIS: error= 9.04D-05 at cycle   6 NSaved=   6.
 NSaved= 6 IEnMin= 6 EnMin= -232.008495744908     IErMin= 6 ErrMin= 9.04D-05
 ErrMax= 9.04D-05  0.00D+00 EMaxC= 1.00D+00 BMatC= 1.06D-06 BMatP= 7.98D-06
 IDIUse=1 WtCom= 1.00D+00 WtEn= 0.00D+00
 Coeff-Com: -0.177D-03 0.116D-01-0.162D+00 0.797D+00-0.216D+01 0.252D+01
 Coeff:     -0.177D-03 0.116D-01-0.162D+00 0.797D+00-0.216D+01 0.252D+01
 Gap=     0.424 Goal=   None    Shift=    0.500
 Gap=     0.424 Goal=   None    Shift=    0.500
 RMSDP=3.26D-05 MaxDP=1.79D-04 DE=-4.95D-06 OVMax= 2.30D-04

 Cycle   7  Pass 1  IDiag  1:
 E= -232.008496447845     Delta-E=       -0.000000702937 Rises=F Damp=F
 DIIS: error= 3.51D-05 at cycle   7 NSaved=   7.
 NSaved= 7 IEnMin= 7 EnMin= -232.008496447845     IErMin= 7 ErrMin= 3.51D-05
 ErrMax= 3.51D-05  0.00D+00 EMaxC= 1.00D+00 BMatC= 1.58D-07 BMatP= 1.06D-06
 IDIUse=1 WtCom= 1.00D+00 WtEn= 0.00D+00
 Coeff-Com: -0.325D-04-0.346D-02 0.508D-01-0.253D+00 0.841D+00-0.213D+01
 Coeff-Com:  0.250D+01
 Coeff:     -0.325D-04-0.346D-02 0.508D-01-0.253D+00 0.841D+00-0.213D+01
 Coeff:      0.250D+01
 Gap=     0.424 Goal=   None    Shift=    0.500
 Gap=     0.424 Goal=   None    Shift=    0.500
 RMSDP=1.25D-05 MaxDP=6.75D-05 DE=-7.03D-07 OVMax= 9.52D-05

 Cycle   8  Pass 1  IDiag  1:
 E= -232.008496552585     Delta-E=       -0.000000104741 Rises=F Damp=F
 DIIS: error= 1.37D-05 at cycle   8 NSaved=   8.
 NSaved= 8 IEnMin= 8 EnMin= -232.008496552585     IErMin= 8 ErrMin= 1.37D-05
 ErrMax= 1.37D-05  0.00D+00 EMaxC= 1.00D+00 BMatC= 2.54D-08 BMatP= 1.58D-07
 IDIUse=1 WtCom= 1.00D+00 WtEn= 0.00D+00
 Coeff-Com: -0.336D-04 0.165D-02-0.227D-01 0.114D+00-0.351D+00 0.102D+01
 Coeff-Com: -0.251D+01 0.276D+01
 Coeff:     -0.336D-04 0.165D-02-0.227D-01 0.114D+00-0.351D+00 0.102D+01
 Coeff:     -0.251D+01 0.276D+01
 Gap=     0.424 Goal=   None    Shift=    0.500
 Gap=     0.424 Goal=   None    Shift=    0.500
 RMSDP=5.01D-06 MaxDP=2.84D-05 DE=-1.05D-07 OVMax= 3.96D-05

 Cycle   9  Pass 1  IDiag  1:
 E= -232.008496568914     Delta-E=       -0.000000016329 Rises=F Damp=F
 DIIS: error= 5.53D-06 at cycle   9 NSaved=   9.
 NSaved= 9 IEnMin= 9 EnMin= -232.008496568914     IErMin= 9 ErrMin= 5.53D-06
 ErrMax= 5.53D-06  0.00D+00 EMaxC= 1.00D+00 BMatC= 4.18D-09 BMatP= 2.54D-08
 IDIUse=1 WtCom= 1.00D+00 WtEn= 0.00D+00
 Coeff-Com: -0.176D-05-0.141D-03 0.205D-02-0.116D-01 0.428D-01-0.127D+00
 Coeff-Com:  0.482D+00-0.171D+01 0.232D+01
 Coeff:     -0.176D-05-0.141D-03 0.205D-02-0.116D-01 0.428D-01-0.127D+00
 Coeff:      0.482D+00-0.171D+01 0.232D+01
 Gap=     0.424 Goal=   None    Shift=    0.500
 Gap=     0.424 Goal=   None    Shift=    0.500
 RMSDP=1.98D-06 MaxDP=1.16D-05 DE=-1.63D-08 OVMax= 1.62D-05

 Cycle  10  Pass 1  IDiag  1:
 E= -232.008496571499     Delta-E=       -0.000000002585 Rises=F Damp=F
 DIIS: error= 2.22D-06 at cycle  10 NSaved=  10.
 NSaved=10 IEnMin=10 EnMin= -232.008496571499     IErMin=10 ErrMin= 2.22D-06
 ErrMax= 2.22D-06  0.00D+00 EMaxC= 1.00D+00 BMatC= 6.97D-10 BMatP= 4.18D-09
 IDIUse=1 WtCom= 1.00D+00 WtEn= 0.00D+00
 Coeff-Com:  0.117D-05-0.399D-04 0.638D-03-0.420D-02 0.171D-01-0.529D-01
 Coeff-Com:  0.122D+00 0.159D+00-0.171D+01 0.247D+01
 Coeff:      0.117D-05-0.399D-04 0.638D-03-0.420D-02 0.171D-01-0.529D-01
 Coeff:      0.122D+00 0.159D+00-0.171D+01 0.247D+01
 Gap=     0.424 Goal=   None    Shift=    0.500
 Gap=     0.424 Goal=   None    Shift=    0.500
 RMSDP=7.80D-07 MaxDP=4.68D-06 DE=-2.59D-09 OVMax= 6.61D-06

 SCF Done:  E(ULC-wHPBE) =  -232.008496571     A.U. after   10 cycles
            NFock= 10  Conv=0.78D-06     -V/T= 2.0058
 <Sx>= 0.0000 <Sy>= 0.0000 <Sz>= 0.0000 <S**2>= 0.0000 S= 0.0000
 <L.S>= 0.000000000000E+00
 KE= 2.306792902158D+02 PE=-9.450213789224D+02 EE= 2.787895940430D+02
 Annihilation of the first spin contaminant:
 S**2 before annihilation     0.0000,   after    -0.0000
 Leave Link  502 at Mon Mar 16 03:49:39 2020, MaxMem=  6710886400 cpu:              11.5 elap:               0.8
 (Enter /opt/ohpc/pub/libs/gaussian/g16-A.03/sandybridge/g16/l508.exe)
 QCSCF skips out because SCF is already converged.
 Leave Link  508 at Mon Mar 16 03:49:39 2020, MaxMem=  6710886400 cpu:               0.0 elap:               0.0
 (Enter /opt/ohpc/pub/libs/gaussian/g16-A.03/sandybridge/g16/l601.exe)
 Copying SCF densities to generalized density rwf, IOpCl= 1 IROHF=0.

 **********************************************************************

            Population analysis using the SCF density.

 **********************************************************************

 Orbital symmetries:
 Alpha Orbitals:
       Occupied  (A1G) (E1U) (E1U) (E2G) (E2G) (B1U) (A1G) (E1U)
                 (E1U) (E2G) (E2G) (A1G) (B1U) (B2U) (E1U) (E1U)
                 (A2U) (E2G) (E2G) (E1G) (E1G)
       Virtual   (E2U) (E2U) (A1G) (E1U) (E1U) (B2G) (E2G) (E2G)
                 (B1U) (E2G) (E2G) (E1U) (E1U) (B2U) (A2U) (B1U)
                 (A2G) (A1G) (E1G) (E1G) (E2G) (E2G) (A1G) (E1U)
                 (E1U) (E2U) (E2U) (B2G) (B1U) (E2G) (E2G) (E1U)
                 (E1U) (A1G) (A2G) (E1U) (E1U) (E2G) (E2G) (E1U)
                 (E1U) (B1U) (E2G) (E2G) (B1U)
 Beta  Orbitals:
       Occupied  (A1G) (E1U) (E1U) (E2G) (E2G) (B1U) (A1G) (E1U)
                 (E1U) (E2G) (E2G) (A1G) (B1U) (B2U) (E1U) (E1U)
                 (A2U) (E2G) (E2G) (E1G) (E1G)
       Virtual   (E2U) (E2U) (A1G) (E1U) (E1U) (B2G) (E2G) (E2G)
                 (B1U) (E2G) (E2G) (E1U) (E1U) (B2U) (A2U) (B1U)
                 (A2G) (A1G) (E1G) (E1G) (E2G) (E2G) (A1G) (E1U)
                 (E1U) (E2U) (E2U) (B2G) (B1U) (E2G) (E2G) (E1U)
                 (E1U) (A1G) (A2G) (E1U) (E1U) (E2G) (E2G) (E1U)
                 (E1U) (B1U) (E2G) (E2G) (B1U)
 The electronic state is 1-A1G.
 Alpha  occ. eigenvalues --  -10.06991 -10.06980 -10.06980 -10.06948 -10.06948
 Alpha  occ. eigenvalues --  -10.06938  -0.96010  -0.84937  -0.84937  -0.70337
 Alpha  occ. eigenvalues --   -0.70337  -0.62862  -0.55537  -0.54388  -0.51780
 Alpha  occ. eigenvalues --   -0.51780  -0.47597  -0.43190  -0.43190  -0.34137
 Alpha  occ. eigenvalues --   -0.34137
 Alpha virt. eigenvalues --    0.08253   0.08253   0.18160   0.23667   0.23667
 Alpha virt. eigenvalues --    0.25957   0.27701   0.27701   0.28590   0.39687
 Alpha virt. eigenvalues --    0.39687   0.41418   0.41418   0.58990   0.62140
 Alpha virt. eigenvalues --    0.64420   0.65964   0.68101   0.70711   0.70711
 Alpha virt. eigenvalues --    0.72481   0.72481   0.73478   0.76556   0.76556
 Alpha virt. eigenvalues --    0.76600   0.76600   0.84144   0.94416   0.95317
 Alpha virt. eigenvalues --    0.95317   0.99603   0.99603   1.06278   1.07885
 Alpha virt. eigenvalues --    1.10606   1.10606   1.22926   1.22926   1.28976
 Alpha virt. eigenvalues --    1.28976   1.32626   1.55948   1.55948   2.00678
  Beta  occ. eigenvalues --  -10.06991 -10.06980 -10.06980 -10.06948 -10.06948
  Beta  occ. eigenvalues --  -10.06938  -0.96010  -0.84937  -0.84937  -0.70337
  Beta  occ. eigenvalues --   -0.70337  -0.62862  -0.55537  -0.54388  -0.51780
  Beta  occ. eigenvalues --   -0.51780  -0.47597  -0.43190  -0.43190  -0.34137
  Beta  occ. eigenvalues --   -0.34137
  Beta virt. eigenvalues --    0.08253   0.08253   0.18160   0.23667   0.23667
  Beta virt. eigenvalues --    0.25957   0.27701   0.27701   0.28590   0.39687
  Beta virt. eigenvalues --    0.39687   0.41418   0.41418   0.58990   0.62140
  Beta virt. eigenvalues --    0.64420   0.65964   0.68101   0.70711   0.70711
  Beta virt. eigenvalues --    0.72481   0.72481   0.73478   0.76556   0.76556
  Beta virt. eigenvalues --    0.76600   0.76600   0.84144   0.94416   0.95317
  Beta virt. eigenvalues --    0.95317   0.99603   0.99603   1.06278   1.07885
  Beta virt. eigenvalues --    1.10606   1.10606   1.22926   1.22926   1.28976
  Beta virt. eigenvalues --    1.28976   1.32626   1.55948   1.55948   2.00678
          Condensed to atoms (all electrons):
               1          2          3          4          5          6
     1  C    4.901945   0.540611  -0.051055  -0.035655  -0.051055   0.540611
     2  C    0.540611   4.901945   0.540611  -0.051055  -0.035655  -0.051055
     3  C   -0.051055   0.540611   4.901945   0.540611  -0.051055  -0.035655
     4  C   -0.035655  -0.051055   0.540611   4.901945   0.540611  -0.051055
     5  C   -0.051055  -0.035655  -0.051055   0.540611   4.901945   0.540611
     6  C    0.540611  -0.051055  -0.035655  -0.051055   0.540611   4.901945
     7  H    0.367956  -0.033470   0.003963   0.000362   0.003963  -0.033470
     8  H   -0.033470   0.367956  -0.033470   0.003963   0.000362   0.003963
     9  H    0.003963  -0.033470   0.367956  -0.033470   0.003963   0.000362
    10  H    0.000362   0.003963  -0.033470   0.367956  -0.033470   0.003963
    11  H    0.003963   0.000362   0.003963  -0.033470   0.367956  -0.033470
    12  H   -0.033470   0.003963   0.000362   0.003963  -0.033470   0.367956
               7          8          9         10         11         12
     1  C    0.367956  -0.033470   0.003963   0.000362   0.003963  -0.033470
     2  C   -0.033470   0.367956  -0.033470   0.003963   0.000362   0.003963
     3  C    0.003963  -0.033470   0.367956  -0.033470   0.003963   0.000362
     4  C    0.000362   0.003963  -0.033470   0.367956  -0.033470   0.003963
     5  C    0.003963   0.000362   0.003963  -0.033470   0.367956  -0.033470
     6  C   -0.033470   0.003963   0.000362   0.003963  -0.033470   0.367956
     7  H    0.544021  -0.003886  -0.000133   0.000008  -0.000133  -0.003886
     8  H   -0.003886   0.544021  -0.003886  -0.000133   0.000008  -0.000133
     9  H   -0.000133  -0.003886   0.544021  -0.003886  -0.000133   0.000008
    10  H    0.000008  -0.000133  -0.003886   0.544021  -0.003886  -0.000133
    11  H   -0.000133   0.000008  -0.000133  -0.003886   0.544021  -0.003886
    12  H   -0.003886  -0.000133   0.000008  -0.000133  -0.003886   0.544021
          Atomic-Atomic Spin Densities.
               1          2          3          4          5          6
     1  C    0.000000  -0.000000   0.000000   0.000000   0.000000  -0.000000
     2  C   -0.000000   0.000000  -0.000000   0.000000   0.000000   0.000000
     3  C    0.000000  -0.000000   0.000000  -0.000000   0.000000   0.000000
     4  C    0.000000   0.000000  -0.000000   0.000000  -0.000000   0.000000
     5  C    0.000000   0.000000   0.000000  -0.000000   0.000000  -0.000000
     6  C   -0.000000   0.000000   0.000000   0.000000  -0.000000   0.000000
     7  H    0.000000  -0.000000   0.000000  -0.000000   0.000000  -0.000000
     8  H   -0.000000   0.000000  -0.000000   0.000000  -0.000000   0.000000
     9  H    0.000000  -0.000000   0.000000  -0.000000   0.000000  -0.000000
    10  H   -0.000000   0.000000  -0.000000   0.000000  -0.000000   0.000000
    11  H    0.000000  -0.000000   0.000000  -0.000000   0.000000  -0.000000
    12  H   -0.000000   0.000000  -0.000000   0.000000  -0.000000   0.000000
               7          8          9         10         11         12
     1  C    0.000000  -0.000000   0.000000  -0.000000   0.000000  -0.000000
     2  C   -0.000000   0.000000  -0.000000   0.000000  -0.000000   0.000000
     3  C    0.000000  -0.000000   0.000000  -0.000000   0.000000  -0.000000
     4  C   -0.000000   0.000000  -0.000000   0.000000  -0.000000   0.000000
     5  C    0.000000  -0.000000   0.000000  -0.000000   0.000000  -0.000000
     6  C   -0.000000   0.000000  -0.000000   0.000000  -0.000000   0.000000
     7  H    0.000000  -0.000000   0.000000   0.000000   0.000000  -0.000000
     8  H   -0.000000   0.000000  -0.000000   0.000000   0.000000   0.000000
     9  H    0.000000  -0.000000   0.000000  -0.000000   0.000000   0.000000
    10  H    0.000000   0.000000  -0.000000   0.000000  -0.000000   0.000000
    11  H    0.000000   0.000000   0.000000  -0.000000   0.000000  -0.000000
    12  H   -0.000000   0.000000   0.000000   0.000000  -0.000000   0.000000
 Mulliken charges and spin densities:
               1          2
     1  C   -0.154706  -0.000000
     2  C   -0.154706  -0.000000
     3  C   -0.154706  -0.000000
     4  C   -0.154706  -0.000000
     5  C   -0.154706  -0.000000
     6  C   -0.154706  -0.000000
     7  H    0.154706   0.000000
     8  H    0.154706   0.000000
     9  H    0.154706   0.000000
    10  H    0.154706   0.000000
    11  H    0.154706   0.000000
    12  H    0.154706   0.000000
 Sum of Mulliken charges =  -0.00000  -0.00000
 Mulliken charges and spin densities with hydrogens summed into heavy atoms:
               1          2
     1  C   -0.000000  -0.000000
     2  C   -0.000000  -0.000000
     3  C   -0.000000  -0.000000
     4  C   -0.000000  -0.000000
     5  C   -0.000000  -0.000000
     6  C   -0.000000  -0.000000
 Electronic spatial extent (au):  <R**2>=            456.7232
 Charge=             -0.0000 electrons
 Dipole moment (field-independent basis, Debye):
    X=             -0.0000    Y=              0.0000    Z=             -0.0000  Tot=              0.0000
 Quadrupole moment (field-independent basis, Debye-Ang):
   XX=            -31.0671   YY=            -31.0671   ZZ=            -38.9305
   XY=              0.0000   XZ=             -0.0000   YZ=             -0.0000
 Traceless Quadrupole moment (field-independent basis, Debye-Ang):
   XX=              2.6211   YY=              2.6211   ZZ=             -5.2423
   XY=              0.0000   XZ=             -0.0000   YZ=             -0.0000
 Octapole moment (field-independent basis, Debye-Ang**2):
  XXX=             -0.0000  YYY=              0.0000  ZZZ=              0.0000  XYY=             -0.0000
  XXY=             -0.0000  XXZ=              0.0000  XZZ=             -0.0000  YZZ=              0.0000
  YYZ=              0.0000  XYZ=             -0.0000
 Hexadecapole moment (field-independent basis, Debye-Ang**3):
 XXXX=           -263.5676 YYYY=           -263.5676 ZZZZ=            -40.2919 XXXY=              0.0000
 XXXZ=             -0.0000 YYYX=              0.0000 YYYZ=             -0.0000 ZZZX=             -0.0000
 ZZZY=             -0.0000 XXYY=            -87.8559 XXZZ=            -60.5127 YYZZ=            -60.5127
 XXYZ=             -0.0000 YYXZ=             -0.0000 ZZXY=              0.0000
 N-N= 2.035439980921D+02 E-N=-9.450212674587D+02  KE= 2.306792902158D+02
 Symmetry AG   KE= 7.428098853987D+01
 Symmetry B1G  KE= 3.758320342515D+01
 Symmetry B2G  KE= 2.265112677869D+00
 Symmetry B3G  KE= 2.265112677869D+00
 Symmetry AU   KE=-7.214076502593D-17
 Symmetry B1U  KE= 1.891885323028D+00
 Symmetry B2U  KE= 7.198122425374D+01
 Symmetry B3U  KE= 4.041176331829D+01
 Symmetry AG   SP=-4.489051083265D-14
 Symmetry B1G  SP=-1.915041128015D-14
 Symmetry B2G  SP=-2.299785019334D-15
 Symmetry B3G  SP=-2.339645784495D-15
 Symmetry AU   SP= 1.515773460871D-17
 Symmetry B1U  SP=-5.334731578518D-15
 Symmetry B2U  SP=-2.274300015911D-16
 Symmetry B3U  SP=-6.945490695575D-15
                          Isotropic Fermi Contact Couplings
        Atom                 a.u.       MegaHertz       Gauss      10(-4) cm-1
     1  C(13)             -0.00000      -0.00000      -0.00000      -0.00000
     2  C(13)             -0.00000      -0.00000      -0.00000      -0.00000
     3  C(13)             -0.00000      -0.00000      -0.00000      -0.00000
     4  C(13)             -0.00000      -0.00000      -0.00000      -0.00000
     5  C(13)             -0.00000      -0.00000      -0.00000      -0.00000
     6  C(13)             -0.00000      -0.00000      -0.00000      -0.00000
     7  H(1)              -0.00000      -0.00000      -0.00000      -0.00000
     8  H(1)              -0.00000      -0.00000      -0.00000      -0.00000
     9  H(1)              -0.00000      -0.00000      -0.00000      -0.00000
    10  H(1)              -0.00000      -0.00000      -0.00000      -0.00000
    11  H(1)              -0.00000      -0.00000      -0.00000      -0.00000
    12  H(1)              -0.00000      -0.00000      -0.00000      -0.00000
 --------------------------------------------------------
       Center         ----  Spin Dipole Couplings  ----
                      3XX-RR        3YY-RR        3ZZ-RR
 --------------------------------------------------------
     1   Atom        0.000000      0.000000      0.000000
     2   Atom        0.000000      0.000000      0.000000
     3   Atom        0.000000      0.000000      0.000000
     4   Atom        0.000000      0.000000      0.000000
     5   Atom        0.000000      0.000000      0.000000
     6   Atom        0.000000      0.000000      0.000000
     7   Atom        0.000000      0.000000      0.000000
     8   Atom        0.000000      0.000000      0.000000
     9   Atom        0.000000      0.000000      0.000000
    10   Atom        0.000000      0.000000      0.000000
    11   Atom        0.000000      0.000000      0.000000
    12   Atom        0.000000      0.000000      0.000000
 --------------------------------------------------------
                        XY            XZ            YZ
 --------------------------------------------------------
     1   Atom        0.000000      0.000000      0.000000
     2   Atom        0.000000      0.000000      0.000000
     3   Atom        0.000000      0.000000      0.000000
     4   Atom        0.000000      0.000000      0.000000
     5   Atom        0.000000      0.000000      0.000000
     6   Atom        0.000000      0.000000      0.000000
     7   Atom        0.000000      0.000000      0.000000
     8   Atom        0.000000      0.000000      0.000000
     9   Atom        0.000000      0.000000      0.000000
    10   Atom        0.000000      0.000000      0.000000
    11   Atom        0.000000      0.000000      0.000000
    12   Atom        0.000000      0.000000      0.000000
 --------------------------------------------------------


 ---------------------------------------------------------------------------------
              Anisotropic Spin Dipole Couplings in Principal Axis System
 ---------------------------------------------------------------------------------

       Atom             a.u.   MegaHertz   Gauss  10(-4) cm-1        Axes

              Baa     0.0000     0.000     0.000     0.000  1.0000  0.0000  0.0000
     1 C(13)  Bbb     0.0000     0.000     0.000     0.000 -0.0000  1.0000  0.0000
              Bcc     0.0000     0.000     0.000     0.000  0.0000  0.0000  1.0000
 
              Baa     0.0000     0.000     0.000     0.000  1.0000  0.0000  0.0000
     2 C(13)  Bbb     0.0000     0.000     0.000     0.000 -0.0000  1.0000  0.0000
              Bcc     0.0000     0.000     0.000     0.000  0.0000  0.0000  1.0000
 
              Baa     0.0000     0.000     0.000     0.000  1.0000  0.0000  0.0000
     3 C(13)  Bbb     0.0000     0.000     0.000     0.000 -0.0000  1.0000  0.0000
              Bcc     0.0000     0.000     0.000     0.000  0.0000  0.0000  1.0000
 
              Baa     0.0000     0.000     0.000     0.000  1.0000  0.0000  0.0000
     4 C(13)  Bbb     0.0000     0.000     0.000     0.000 -0.0000  1.0000  0.0000
              Bcc     0.0000     0.000     0.000     0.000  0.0000  0.0000  1.0000
 
              Baa     0.0000     0.000     0.000     0.000  1.0000  0.0000  0.0000
     5 C(13)  Bbb     0.0000     0.000     0.000     0.000 -0.0000  1.0000  0.0000
              Bcc     0.0000     0.000     0.000     0.000  0.0000  0.0000  1.0000
 
              Baa     0.0000     0.000     0.000     0.000  1.0000  0.0000  0.0000
     6 C(13)  Bbb     0.0000     0.000     0.000     0.000 -0.0000  1.0000  0.0000
              Bcc     0.0000     0.000     0.000     0.000  0.0000  0.0000  1.0000
 
              Baa     0.0000     0.000     0.000     0.000  1.0000  0.0000  0.0000
     7 H(1)   Bbb     0.0000     0.000     0.000     0.000 -0.0000  1.0000  0.0000
              Bcc     0.0000     0.000     0.000     0.000  0.0000  0.0000  1.0000
 
              Baa     0.0000     0.000     0.000     0.000  1.0000  0.0000  0.0000
     8 H(1)   Bbb     0.0000     0.000     0.000     0.000 -0.0000  1.0000  0.0000
              Bcc     0.0000     0.000     0.000     0.000  0.0000  0.0000  1.0000
 
              Baa     0.0000     0.000     0.000     0.000  1.0000  0.0000  0.0000
     9 H(1)   Bbb     0.0000     0.000     0.000     0.000 -0.0000  1.0000  0.0000
              Bcc     0.0000     0.000     0.000     0.000  0.0000  0.0000  1.0000
 
              Baa     0.0000     0.000     0.000     0.000  1.0000  0.0000  0.0000
    10 H(1)   Bbb     0.0000     0.000     0.000     0.000 -0.0000  1.0000  0.0000
              Bcc     0.0000     0.000     0.000     0.000  0.0000  0.0000  1.0000
 
              Baa     0.0000     0.000     0.000     0.000  1.0000  0.0000  0.0000
    11 H(1)   Bbb     0.0000     0.000     0.000     0.000 -0.0000  1.0000  0.0000
              Bcc     0.0000     0.000     0.000     0.000  0.0000  0.0000  1.0000
 
              Baa     0.0000     0.000     0.000     0.000  1.0000  0.0000  0.0000
    12 H(1)   Bbb     0.0000     0.000     0.000     0.000 -0.0000  1.0000  0.0000
              Bcc     0.0000     0.000     0.000     0.000  0.0000  0.0000  1.0000
 

 ---------------------------------------------------------------------------------

 No NMR shielding tensors so no spin-rotation constants.
 Leave Link  601 at Mon Mar 16 03:49:39 2020, MaxMem=  6710886400 cpu:               2.4 elap:               0.2
 (Enter /opt/ohpc/pub/libs/gaussian/g16-A.03/sandybridge/g16/l9999.exe)

 Test job not archived.
 1\1\GINC-CNODE145\SP\ULC-wHPBE\6-31G\C6H6\QAI222\16-Mar-2020\0\\#P uLC
 -wHPBE/6-31G iop(3/107=0311800000, 3/108=0311800000) scf=(conver=6,fer
 mi,ndamp=35,noincfock,novaracc,vshift=500,xqc)\\H6 C6\\0,1\C,0,0.,1.39
 316,0.\C,0,-1.206512,0.69658,0.\C,0,-1.206512,-0.69658,0.\C,0,0.,-1.39
 316,0.\C,0,1.206512,-0.69658,0.\C,0,1.206512,0.69658,0.\H,0,0.,2.48268
 1,0.\H,0,-2.150065,1.24134,0.\H,0,-2.150065,-1.24134,0.\H,0,0.,-2.4826
 81,0.\H,0,2.150065,-1.24134,0.\H,0,2.150065,1.24134,0.\\Version=EM64L-
 G16RevA.03\State=1-A1G\HF=-232.0084966\S2=0.\S2-1=0.\S2A=0.\RMSD=7.803
 e-07\Dipole=0.,0.,0.\Quadrupole=1.9487558,1.9487558,-3.8975116,0.,0.,0
 .\PG=D06H [3C2'(H1C1.C1H1)]\\@


 IF YOU WANT TO LEARN FROM THE THEORETICAL PHYSICISTS ABOUT THE
 METHODS WHICH THEY USE, I ADVISE YOU TO FOLLOW THIS PRINCIPLE VERY STRICTLY:
 DON'T LISTEN TO THEIR WORDS; PAY ATTENTION, INSTEAD, TO THEIR ACTIONS.
 -- A.EINSTEIN, 1934
 Job cpu time:       0 days  0 hours  0 minutes 37.5 seconds.
 Elapsed time:       0 days  0 hours  0 minutes  2.6 seconds.
 File lengths (MBytes):  RWF=    272 Int=      0 D2E=      0 Chk=     32 Scr=     32
 Normal termination of Gaussian 16 at Mon Mar 16 03:49:39 2020.
