 Entering Gaussian System, Link 0=g16
 Input=1b_tune_c10.gjf
 Output=1b_tune_c10.log
 Initial command:
 /opt/ohpc/pub/libs/gaussian/g16-A.03/sandybridge/g16/l1.exe "/scratch/qai222/ocelot_api/tests/wtuning_test/1b/tuning_1b_ocycle0/Gau-7091.inp" -scrdir="/scratch/qai222/ocelot_api/tests/wtuning_test/1b/tuning_1b_ocycle0/"
 Entering Link 1 = /opt/ohpc/pub/libs/gaussian/g16-A.03/sandybridge/g16/l1.exe PID=      7092.
  
 Copyright (c) 1988,1990,1992,1993,1995,1998,2003,2009,2016,
            Gaussian, Inc.  All Rights Reserved.
  
 This is part of the Gaussian(R) 16 program.  It is based on
 the Gaussian(R) 09 system (copyright 2009, Gaussian, Inc.),
 the Gaussian(R) 03 system (copyright 2003, Gaussian, Inc.),
 the Gaussian(R) 98 system (copyright 1998, Gaussian, Inc.),
 the Gaussian(R) 94 system (copyright 1995, Gaussian, Inc.),
 the Gaussian 92(TM) system (copyright 1992, Gaussian, Inc.),
 the Gaussian 90(TM) system (copyright 1990, Gaussian, Inc.),
 the Gaussian 88(TM) system (copyright 1988, Gaussian, Inc.),
 the Gaussian 86(TM) system (copyright 1986, Carnegie Mellon
 University), and the Gaussian 82(TM) system (copyright 1983,
 Carnegie Mellon University). Gaussian is a federally registered
 trademark of Gaussian, Inc.
  
 This software contains proprietary and confidential information,
 including trade secrets, belonging to Gaussian, Inc.
  
 This software is provided under written license and may be
 used, copied, transmitted, or stored only in accord with that
 written license.
  
 The following legend is applicable only to US Government
 contracts under FAR:
  
                    RESTRICTED RIGHTS LEGEND
  
 Use, reproduction and disclosure by the US Government is
 subject to restrictions as set forth in subparagraphs (a)
 and (c) of the Commercial Computer Software - Restricted
 Rights clause in FAR 52.227-19.
  
 Gaussian, Inc.
 340 Quinnipiac St., Bldg. 40, Wallingford CT 06492
  
  
 ---------------------------------------------------------------
 Warning -- This program may not be used in any manner that
 competes with the business of Gaussian, Inc. or will provide
 assistance to any competitor of Gaussian, Inc.  The licensee
 of this program is prohibited from giving any competitor of
 Gaussian, Inc. access to this program.  By using this program,
 the user acknowledges that Gaussian, Inc. is engaged in the
 business of creating and licensing software in the field of
 computational chemistry and represents and warrants to the
 licensee that it is not a competitor of Gaussian, Inc. and that
 it will not use this program in any manner prohibited above.
 ---------------------------------------------------------------
  

 Cite this work as:
 Gaussian 16, Revision A.03,
 M. J. Frisch, G. W. Trucks, H. B. Schlegel, G. E. Scuseria, 
 M. A. Robb, J. R. Cheeseman, G. Scalmani, V. Barone, 
 G. A. Petersson, H. Nakatsuji, X. Li, M. Caricato, A. V. Marenich, 
 J. Bloino, B. G. Janesko, R. Gomperts, B. Mennucci, H. P. Hratchian, 
 J. V. Ortiz, A. F. Izmaylov, J. L. Sonnenberg, D. Williams-Young, 
 F. Ding, F. Lipparini, F. Egidi, J. Goings, B. Peng, A. Petrone, 
 T. Henderson, D. Ranasinghe, V. G. Zakrzewski, J. Gao, N. Rega, 
 G. Zheng, W. Liang, M. Hada, M. Ehara, K. Toyota, R. Fukuda, 
 J. Hasegawa, M. Ishida, T. Nakajima, Y. Honda, O. Kitao, H. Nakai, 
 T. Vreven, K. Throssell, J. A. Montgomery, Jr., J. E. Peralta, 
 F. Ogliaro, M. J. Bearpark, J. J. Heyd, E. N. Brothers, K. N. Kudin, 
 V. N. Staroverov, T. A. Keith, R. Kobayashi, J. Normand, 
 K. Raghavachari, A. P. Rendell, J. C. Burant, S. S. Iyengar, 
 J. Tomasi, M. Cossi, J. M. Millam, M. Klene, C. Adamo, R. Cammi, 
 J. W. Ochterski, R. L. Martin, K. Morokuma, O. Farkas, 
 J. B. Foresman, and D. J. Fox, Gaussian, Inc., Wallingford CT, 2016.
 
 ******************************************
 Gaussian 16:  EM64L-G16RevA.03 25-Dec-2016
                22-Apr-2020 
 ******************************************
 %mem=50GB
 %nproc=16
 Will use up to   16 processors via shared memory.
 ----------------------------------------------------------------------
 #P uLC-wHPBE/6-31G iop(3/107=0314400000, 3/108=0314400000) scf=(conver
 =6,fermi,ndamp=35,noincfock,novaracc,vshift=500,xqc)
 ----------------------------------------------------------------------
 1/38=1,172=1/1;
 2/12=2,17=6,18=5,40=1/2;
 3/5=1,6=6,11=2,25=1,30=1,74=-71,107=314400000,108=314400000,116=2/1,2,3;
 4//1;
 5/5=100002,6=6,8=3,10=500,13=1,18=-1,22=13,38=1,93=35/2,8;
 6/7=2,8=2,9=2,10=2,28=1/1;
 99/5=1,9=1/99;
 Leave Link    1 at Wed Apr 22 20:38:25 2020, MaxMem=  6710886400 cpu:               8.2 elap:               0.6
 (Enter /opt/ohpc/pub/libs/gaussian/g16-A.03/sandybridge/g16/l101.exe)
 -----
 H6 C6
 -----
 Symbolic Z-matrix:
 Charge =  1 Multiplicity = 2
 C                     0.        1.39316   0. 
 C                    -1.20651   0.69658   0. 
 C                    -1.20651  -0.69658   0. 
 C                     0.       -1.39316   0. 
 C                     1.20651  -0.69658   0. 
 C                     1.20651   0.69658   0. 
 H                     0.        2.48268   0. 
 H                    -2.15007   1.24134   0. 
 H                    -2.15007  -1.24134   0. 
 H                     0.       -2.48268   0. 
 H                     2.15007  -1.24134   0. 
 H                     2.15007   1.24134   0. 
 
 ITRead=  0  0  0  0  0  0  0  0  0  0  0  0
 MicOpt= -1 -1 -1 -1 -1 -1 -1 -1 -1 -1 -1 -1
 NAtoms=     12 NQM=       12 NQMF=       0 NMMI=      0 NMMIF=      0
                NMic=       0 NMicF=      0.
                    Isotopes and Nuclear Properties:
 (Nuclear quadrupole moments (NQMom) in fm**2, nuclear magnetic moments (NMagM)
  in nuclear magnetons)

  Atom         1           2           3           4           5           6           7           8           9          10
 IAtWgt=          12          12          12          12          12          12           1           1           1           1
 AtmWgt=  12.0000000  12.0000000  12.0000000  12.0000000  12.0000000  12.0000000   1.0078250   1.0078250   1.0078250   1.0078250
 NucSpn=           0           0           0           0           0           0           1           1           1           1
 AtZEff=  -0.0000000  -0.0000000  -0.0000000  -0.0000000  -0.0000000  -0.0000000  -0.0000000  -0.0000000  -0.0000000  -0.0000000
 NQMom=    0.0000000   0.0000000   0.0000000   0.0000000   0.0000000   0.0000000   0.0000000   0.0000000   0.0000000   0.0000000
 NMagM=    0.0000000   0.0000000   0.0000000   0.0000000   0.0000000   0.0000000   2.7928460   2.7928460   2.7928460   2.7928460
 AtZNuc=   6.0000000   6.0000000   6.0000000   6.0000000   6.0000000   6.0000000   1.0000000   1.0000000   1.0000000   1.0000000

  Atom        11          12
 IAtWgt=           1           1
 AtmWgt=   1.0078250   1.0078250
 NucSpn=           1           1
 AtZEff=  -0.0000000  -0.0000000
 NQMom=    0.0000000   0.0000000
 NMagM=    2.7928460   2.7928460
 AtZNuc=   1.0000000   1.0000000
 Leave Link  101 at Wed Apr 22 20:38:25 2020, MaxMem=  6710886400 cpu:               2.2 elap:               0.2
 (Enter /opt/ohpc/pub/libs/gaussian/g16-A.03/sandybridge/g16/l202.exe)
                          Input orientation:                          
 ---------------------------------------------------------------------
 Center     Atomic      Atomic             Coordinates (Angstroms)
 Number     Number       Type             X           Y           Z
 ---------------------------------------------------------------------
      1          6           0        0.000000    1.393160    0.000000
      2          6           0       -1.206512    0.696580    0.000000
      3          6           0       -1.206512   -0.696580    0.000000
      4          6           0        0.000000   -1.393160    0.000000
      5          6           0        1.206512   -0.696580    0.000000
      6          6           0        1.206512    0.696580    0.000000
      7          1           0        0.000000    2.482681    0.000000
      8          1           0       -2.150065    1.241340    0.000000
      9          1           0       -2.150065   -1.241340    0.000000
     10          1           0        0.000000   -2.482681    0.000000
     11          1           0        2.150065   -1.241340    0.000000
     12          1           0        2.150065    1.241340    0.000000
 ---------------------------------------------------------------------
                    Distance matrix (angstroms):
                    1          2          3          4          5
     1  C    0.000000
     2  C    1.393160   0.000000
     3  C    2.413024   1.393160   0.000000
     4  C    2.786320   2.413024   1.393160   0.000000
     5  C    2.413024   2.786320   2.413024   1.393160   0.000000
     6  C    1.393160   2.413024   2.786320   2.413024   1.393160
     7  H    1.089521   2.155418   3.400496   3.875841   3.400496
     8  H    2.155418   1.089521   2.155418   3.400496   3.875841
     9  H    3.400496   2.155418   1.089521   2.155418   3.400496
    10  H    3.875841   3.400496   2.155418   1.089521   2.155418
    11  H    3.400496   3.875841   3.400496   2.155418   1.089521
    12  H    2.155418   3.400496   3.875841   3.400496   2.155418
                    6          7          8          9         10
     6  C    0.000000
     7  H    2.155418   0.000000
     8  H    3.400496   2.482681   0.000000
     9  H    3.875841   4.300129   2.482680   0.000000
    10  H    3.400496   4.965362   4.300129   2.482681   0.000000
    11  H    2.155418   4.300129   4.965362   4.300130   2.482681
    12  H    1.089521   2.482681   4.300130   4.965362   4.300129
                   11         12
    11  H    0.000000
    12  H    2.482680   0.000000
 Stoichiometry    C6H6(1+,2)
 Framework group  D6H[3C2'(HC.CH)]
 Deg. of freedom     2
 Full point group                 D6H     NOp  24
 Largest Abelian subgroup         D2H     NOp   8
 Largest concise Abelian subgroup D2      NOp   4
                         Standard orientation:                         
 ---------------------------------------------------------------------
 Center     Atomic      Atomic             Coordinates (Angstroms)
 Number     Number       Type             X           Y           Z
 ---------------------------------------------------------------------
      1          6           0       -0.000000    1.393160   -0.000000
      2          6           0       -1.206512    0.696580   -0.000000
      3          6           0       -1.206512   -0.696580   -0.000000
      4          6           0       -0.000000   -1.393160   -0.000000
      5          6           0        1.206512   -0.696580   -0.000000
      6          6           0        1.206512    0.696580   -0.000000
      7          1           0        0.000000    2.482681   -0.000000
      8          1           0       -2.150065    1.241341   -0.000000
      9          1           0       -2.150065   -1.241340   -0.000000
     10          1           0       -0.000000   -2.482681   -0.000000
     11          1           0        2.150065   -1.241341   -0.000000
     12          1           0        2.150065    1.241340   -0.000000
 ---------------------------------------------------------------------
 Rotational constants (GHZ):           5.7099798           5.7099798           2.8549899
 Leave Link  202 at Wed Apr 22 20:38:25 2020, MaxMem=  6710886400 cpu:               0.8 elap:               0.1
 (Enter /opt/ohpc/pub/libs/gaussian/g16-A.03/sandybridge/g16/l301.exe)
 Standard basis: 6-31G (6D, 7F)
 Ernie: Thresh=  0.10000D-02 Tol=  0.10000D-05 Strict=F.
 There are    16 symmetry adapted cartesian basis functions of AG  symmetry.
 There are    11 symmetry adapted cartesian basis functions of B1G symmetry.
 There are     2 symmetry adapted cartesian basis functions of B2G symmetry.
 There are     4 symmetry adapted cartesian basis functions of B3G symmetry.
 There are     2 symmetry adapted cartesian basis functions of AU  symmetry.
 There are     4 symmetry adapted cartesian basis functions of B1U symmetry.
 There are    16 symmetry adapted cartesian basis functions of B2U symmetry.
 There are    11 symmetry adapted cartesian basis functions of B3U symmetry.
 There are    16 symmetry adapted basis functions of AG  symmetry.
 There are    11 symmetry adapted basis functions of B1G symmetry.
 There are     2 symmetry adapted basis functions of B2G symmetry.
 There are     4 symmetry adapted basis functions of B3G symmetry.
 There are     2 symmetry adapted basis functions of AU  symmetry.
 There are     4 symmetry adapted basis functions of B1U symmetry.
 There are    16 symmetry adapted basis functions of B2U symmetry.
 There are    11 symmetry adapted basis functions of B3U symmetry.
    66 basis functions,   156 primitive gaussians,    66 cartesian basis functions
    21 alpha electrons       20 beta electrons
       nuclear repulsion energy       203.5439980921 Hartrees.
 IExCor=33909 DFT=T Ex+Corr=LC-wHPBE ExCW=0 ScaHFX=  1.000000
 ScaDFX=  1.000000  1.000000  1.000000  1.000000 ScalE2=  1.000000  1.000000
 IRadAn=      5 IRanWt=     -1 IRanGd=            0 ICorTp=0 IEmpDi=  4
 HFx  wShort=  0.000000 wLong=  0.314400 cFull=  0.000000 cShort=  0.000000 cLong=  1.000000
 DFx  wShort=  0.000000 wLong=  0.314400 cFull=  0.000000 cShort=  1.000000 cLong=  0.000000
 NAtoms=   12 NActive=   12 NUniq=    2 SFac= 4.00D+00 NAtFMM=   60 NAOKFM=F Big=F
 Integral buffers will be    131072 words long.
 Raffenetti 2 integral format.
 Two-electron integral symmetry is turned on.
 Leave Link  301 at Wed Apr 22 20:38:25 2020, MaxMem=  6710886400 cpu:               1.1 elap:               0.1
 (Enter /opt/ohpc/pub/libs/gaussian/g16-A.03/sandybridge/g16/l302.exe)
 NPDir=0 NMtPBC=     1 NCelOv=     1 NCel=       1 NClECP=     1 NCelD=      1
         NCelK=      1 NCelE2=     1 NClLst=     1 CellRange=     0.0.
 One-electron integrals computed using PRISM.
 One-electron integral symmetry used in STVInt
 NBasis=    66 RedAO= T EigKep=  6.87D-04  NBF=    16    11     2     4     2     4    16    11
 NBsUse=    66 1.00D-06 EigRej= -1.00D+00 NBFU=    16    11     2     4     2     4    16    11
 Precomputing XC quadrature grid using
 IXCGrd= 4 IRadAn=           5 IRanWt=          -1 IRanGd=           0 AccXCQ= 0.00D+00.
 Generated NRdTot=       0 NPtTot=           0 NUsed=           0 NTot=          32
 NSgBfM=    66    66    66    66    66 MxSgAt=    12 MxSgA2=    12.
 Leave Link  302 at Wed Apr 22 20:38:25 2020, MaxMem=  6710886400 cpu:               2.6 elap:               0.2
 (Enter /opt/ohpc/pub/libs/gaussian/g16-A.03/sandybridge/g16/l303.exe)
 DipDrv:  MaxL=1.
 Leave Link  303 at Wed Apr 22 20:38:25 2020, MaxMem=  6710886400 cpu:               0.5 elap:               0.0
 (Enter /opt/ohpc/pub/libs/gaussian/g16-A.03/sandybridge/g16/l401.exe)
 ExpMin= 1.61D-01 ExpMax= 3.05D+03 ExpMxC= 4.57D+02 IAcc=3 IRadAn=         5 AccDes= 0.00D+00
 Harris functional with IExCor=33909 and IRadAn=       5 diagonalized for initial guess.
 HarFok:  IExCor=33909 AccDes= 0.00D+00 IRadAn=         5 IDoV= 1 UseB2=F ITyADJ=14
 ICtDFT=  3500011 ScaDFX=  1.000000  1.000000  1.000000  1.000000
 FoFCou: FMM=F IPFlag=           0 FMFlag=      100000 FMFlg1=           0
         NFxFlg=           0 DoJE=T BraDBF=F KetDBF=T FulRan=T
         wScrn=  0.000000 ICntrl=       500 IOpCl=  0 I1Cent=   200000004 NGrid=           0
         NMat0=    1 NMatS0=      1 NMatT0=    0 NMatD0=    1 NMtDS0=    0 NMtDT0=    0
 Petite list used in FoFCou.
 Harris En= -225.099451296269    
 JPrj=0 DoOrth=F DoCkMO=F.
 Initial guess orbital symmetries:
 Alpha Orbitals:
       Occupied  (A1G) (E1U) (E1U) (E2G) (E2G) (B1U) (A1G) (E1U)
                 (E1U) (E2G) (E2G) (A1G) (B2U) (B1U) (E1U) (E1U)
                 (A2U) (E2G) (E2G) (E1G) (E1G)
       Virtual   (E2U) (E2U) (A1G) (B2G) (E1U) (E1U) (E2G) (E2G)
                 (B1U) (E2G) (E2G) (E1U) (E1U) (B2U) (A2U) (B1U)
                 (A2G) (A1G) (E2G) (E2G) (E1G) (E1G) (A1G) (E1U)
                 (E1U) (E2U) (E2U) (B2G) (B1U) (E2G) (E2G) (E1U)
                 (E1U) (A2G) (A1G) (E1U) (E1U) (E2G) (E2G) (E1U)
                 (E1U) (B1U) (E2G) (E2G) (B1U)
 Beta  Orbitals:
       Occupied  (A1G) (E1U) (E1U) (E2G) (E2G) (B1U) (A1G) (E1U)
                 (E1U) (E2G) (E2G) (A1G) (B2U) (B1U) (E1U) (E1U)
                 (A2U) (E2G) (E2G) (E1G)
       Virtual   (E1G) (E2U) (E2U) (A1G) (B2G) (E1U) (E1U) (E2G)
                 (E2G) (B1U) (E2G) (E2G) (E1U) (E1U) (B2U) (A2U)
                 (B1U) (A2G) (A1G) (E2G) (E2G) (E1G) (E1G) (A1G)
                 (E1U) (E1U) (E2U) (E2U) (B2G) (B1U) (E2G) (E2G)
                 (E1U) (E1U) (A2G) (A1G) (E1U) (E1U) (E2G) (E2G)
                 (E1U) (E1U) (B1U) (E2G) (E2G) (B1U)
 Initial guess <Sx>= 0.0000 <Sy>= 0.0000 <Sz>= 0.5000 <S**2>= 0.7500 S= 0.5000
 Leave Link  401 at Wed Apr 22 20:38:26 2020, MaxMem=  6710886400 cpu:               2.8 elap:               0.2
 (Enter /opt/ohpc/pub/libs/gaussian/g16-A.03/sandybridge/g16/l502.exe)
 Keep R1 and R2 ints in memory in symmetry-blocked form, NReq=19109854.
 FoFCou: FMM=F IPFlag=           0 FMFlag=           0 FMFlg1=           0
         NFxFlg=           0 DoJE=F BraDBF=F KetDBF=F FulRan=T
         wScrn=  0.000000 ICntrl=       600 IOpCl=  0 I1Cent=           0 NGrid=           0
         NMat0=    1 NMatS0=   2211 NMatT0=    0 NMatD0=    1 NMtDS0=    0 NMtDT0=    0
 Petite list used in FoFCou.
 UHF open shell SCF:
 Using DIIS extrapolation, IDIIS=    10.
 NGot=  6710886400 LenX=  6710146038 LenY=  6710141241
 Requested convergence on RMS density matrix=1.00D-06 within  32 cycles.
 Requested convergence on MAX density matrix=1.00D-04.
 Requested convergence on             energy=1.00D-04.
 Virtual orbitals will be shifted by   0.500 hartree.
 No special actions if energy rises.
 Dynamic level shift is on during FON iterations.

 Cycle   1  Pass 1  IDiag  1:
 Density matrix breaks symmetry, PCut= 1.00D-04
 Density has only Abelian symmetry.
 E= -231.644846410001    
 DIIS: error= 1.70D-02 at cycle   1 NSaved=   1.
 NSaved= 1 IEnMin= 1 EnMin= -231.644846410001     IErMin= 1 ErrMin= 1.70D-02
 ErrMax= 1.70D-02  0.00D+00 EMaxC= 1.00D+00 BMatC= 7.21D-02 BMatP= 7.21D-02
 IDIUse=1 WtCom= 1.00D+00 WtEn= 0.00D+00
 Coeff-Com:  0.100D+01
 Coeff:      0.100D+01
 Gap=     0.386 Goal=   None    Shift=    0.500
 T= 1154. Gap= 0.887 NK=0 IS=   22 IE=   66 IFin=   21
          NO(<0.9)=   0  NV(>0.1)=   0     21.00e < EF      0.00e >EF  Err=0.0D+00
 Gap=     0.198 Goal=   None    Shift=    0.500
 T= 1154. Gap= 0.698 NK=0 IS=   21 IE=   66 IFin=   20
          NO(<0.9)=   0  NV(>0.1)=   0     20.00e < EF      0.00e >EF  Err=0.0D+00
 GapD=    0.198 DampG=1.000 DampE=0.500 DampFc=0.5000 IDamp=-1.
 Damping current iteration by 5.00D-01
 RMSDP=3.29D-03 MaxDP=2.93D-02              OVMax= 3.49D-02

 Cycle   2  Pass 1  IDiag  1:
 Density matrix breaks symmetry, PCut= 1.00D-04
 Density has only Abelian symmetry.
 E= -231.656399434946     Delta-E=       -0.011553024945 Rises=F Damp=T
 DIIS: error= 9.95D-03 at cycle   2 NSaved=   2.
 NSaved= 2 IEnMin= 2 EnMin= -231.656399434946     IErMin= 2 ErrMin= 9.95D-03
 ErrMax= 9.95D-03  0.00D+00 EMaxC= 1.00D+00 BMatC= 1.76D-02 BMatP= 7.21D-02
 IDIUse=1 WtCom= 1.00D+00 WtEn= 0.00D+00
 Coeff-Com: -0.829D+00 0.183D+01
 Coeff:     -0.829D+00 0.183D+01
 Gap=     0.405 Goal=   None    Shift=    0.500
 T= 1065. Gap= 0.905 NK=0 IS=   22 IE=   66 IFin=   21
          NO(<0.9)=   0  NV(>0.1)=   0     21.00e < EF      0.00e >EF  Err=0.0D+00
 Gap=     0.222 Goal=   None    Shift=    0.500
 T= 1065. Gap= 0.722 NK=0 IS=   21 IE=   66 IFin=   20
          NO(<0.9)=   0  NV(>0.1)=   0     20.00e < EF      0.00e >EF  Err=0.0D+00
 GapD=    0.222 DampG=1.000 DampE=1.000 DampFc=1.0000 IDamp=-1.
 RMSDP=2.37D-03 MaxDP=1.66D-02 DE=-1.16D-02 OVMax= 1.68D-02

 Cycle   3  Pass 1  IDiag  1:
 Density matrix breaks symmetry, PCut= 1.00D-04
 Density has only Abelian symmetry.
 E= -231.665976783681     Delta-E=       -0.009577348735 Rises=F Damp=F
 DIIS: error= 5.44D-03 at cycle   3 NSaved=   3.
 NSaved= 3 IEnMin= 3 EnMin= -231.665976783681     IErMin= 3 ErrMin= 5.44D-03
 ErrMax= 5.44D-03  0.00D+00 EMaxC= 1.00D+00 BMatC= 7.77D-04 BMatP= 1.76D-02
 IDIUse=1 WtCom= 1.00D+00 WtEn= 0.00D+00
 Coeff-Com:  0.152D+00-0.338D+00 0.119D+01
 Coeff:      0.152D+00-0.338D+00 0.119D+01
 Gap=     0.399 Goal=   None    Shift=    0.500
 T=  882. Gap= 0.899 NK=0 IS=   22 IE=   66 IFin=   21
          NO(<0.9)=   0  NV(>0.1)=   0     21.00e < EF      0.00e >EF  Err=0.0D+00
 Gap=     0.222 Goal=   None    Shift=    0.500
 T=  882. Gap= 0.722 NK=0 IS=   21 IE=   66 IFin=   20
          NO(<0.9)=   0  NV(>0.1)=   0     20.00e < EF      0.00e >EF  Err=0.0D+00
 GapD=    0.222 DampG=1.000 DampE=1.000 DampFc=1.0000 IDamp=-1.
 RMSDP=4.08D-04 MaxDP=3.49D-03 DE=-9.58D-03 OVMax= 1.12D-02

 Cycle   4  Pass 1  IDiag  1:
 Density matrix breaks symmetry, PCut= 1.00D-04
 Density has only Abelian symmetry.
 E= -231.666565629803     Delta-E=       -0.000588846122 Rises=F Damp=F
 DIIS: error= 4.29D-03 at cycle   4 NSaved=   4.
 NSaved= 4 IEnMin= 4 EnMin= -231.666565629803     IErMin= 4 ErrMin= 4.29D-03
 ErrMax= 4.29D-03  0.00D+00 EMaxC= 1.00D+00 BMatC= 3.76D-04 BMatP= 7.77D-04
 IDIUse=1 WtCom= 1.00D+00 WtEn= 0.00D+00
 Coeff-Com:  0.125D+00-0.280D+00-0.629D+00 0.178D+01
 Coeff:      0.125D+00-0.280D+00-0.629D+00 0.178D+01
 Gap=     0.398 Goal=   None    Shift=    0.500
 T=  584. Gap= 0.898 NK=0 IS=   22 IE=   66 IFin=   21
          NO(<0.9)=   0  NV(>0.1)=   0     21.00e < EF      0.00e >EF  Err=0.0D+00
 Gap=     0.227 Goal=   None    Shift=    0.500
 T=  584. Gap= 0.727 NK=0 IS=   21 IE=   66 IFin=   20
          NO(<0.9)=   0  NV(>0.1)=   0     20.00e < EF      0.00e >EF  Err=0.0D+00
 GapD=    0.227 DampG=1.000 DampE=1.000 DampFc=1.0000 IDamp=-1.
 RMSDP=2.88D-04 MaxDP=3.60D-03 DE=-5.89D-04 OVMax= 1.17D-02

 Cycle   5  Pass 1  IDiag  1:
 Density matrix breaks symmetry, PCut= 1.00D-04
 Density has only Abelian symmetry.
 E= -231.666953648299     Delta-E=       -0.000388018496 Rises=F Damp=F
 DIIS: error= 2.65D-03 at cycle   5 NSaved=   5.
 NSaved= 5 IEnMin= 5 EnMin= -231.666953648299     IErMin= 5 ErrMin= 2.65D-03
 ErrMax= 2.65D-03  0.00D+00 EMaxC= 1.00D+00 BMatC= 1.57D-04 BMatP= 3.76D-04
 IDIUse=1 WtCom= 1.00D+00 WtEn= 0.00D+00
 Coeff-Com: -0.127D+00 0.278D+00-0.521D+00-0.101D+01 0.238D+01
 Coeff:     -0.127D+00 0.278D+00-0.521D+00-0.101D+01 0.238D+01
 Gap=     0.395 Goal=   None    Shift=    0.500
 T=  306. Gap= 0.895 NK=0 IS=   22 IE=   66 IFin=   21
          NO(<0.9)=   0  NV(>0.1)=   0     21.00e < EF      0.00e >EF  Err=0.0D+00
 Gap=     0.229 Goal=   None    Shift=    0.500
 T=  306. Gap= 0.729 NK=0 IS=   21 IE=   66 IFin=   20
          NO(<0.9)=   0  NV(>0.1)=   0     20.00e < EF      0.00e >EF  Err=0.0D+00
 GapD=    0.229 DampG=1.000 DampE=1.000 DampFc=1.0000 IDamp=-1.
 RMSDP=2.34D-04 MaxDP=3.56D-03 DE=-3.88D-04 OVMax= 1.04D-02

 Cycle   6  Pass 1  IDiag  1:
 Density matrix breaks symmetry, PCut= 1.00D-04
 Density has only Abelian symmetry.
 E= -231.667175249674     Delta-E=       -0.000221601376 Rises=F Damp=F
 DIIS: error= 1.45D-03 at cycle   6 NSaved=   6.
 NSaved= 6 IEnMin= 6 EnMin= -231.667175249674     IErMin= 6 ErrMin= 1.45D-03
 ErrMax= 1.45D-03  0.00D+00 EMaxC= 1.00D+00 BMatC= 4.43D-05 BMatP= 1.57D-04
 IDIUse=1 WtCom= 1.00D+00 WtEn= 0.00D+00
 Coeff-Com:  0.193D-01-0.388D-01 0.181D+00-0.378D-01-0.139D+01 0.227D+01
 Coeff:      0.193D-01-0.388D-01 0.181D+00-0.378D-01-0.139D+01 0.227D+01
 Gap=     0.394 Goal=   None    Shift=    0.500
 T=   73. Gap= 0.894 NK=0 IS=   22 IE=   66 IFin=   21
          NO(<0.9)=   0  NV(>0.1)=   0     21.00e < EF      0.00e >EF  Err=0.0D+00
 Gap=     0.230 Goal=   None    Shift=    0.500
 T=   73. Gap= 0.730 NK=0 IS=   21 IE=   66 IFin=   20
          NO(<0.9)=   0  NV(>0.1)=   0     20.00e < EF      0.00e >EF  Err=0.0D+00
 GapD=    0.230 DampG=1.000 DampE=1.000 DampFc=1.0000 IDamp=-1.
 RMSDP=1.27D-04 MaxDP=2.17D-03 DE=-2.22D-04 OVMax= 5.90D-03

 Cycle   7  Pass 1  IDiag  1:
 Density matrix breaks symmetry, PCut= 1.00D-04
 Density has only Abelian symmetry.
 E= -231.667241227309     Delta-E=       -0.000065977634 Rises=F Damp=F
 DIIS: error= 7.51D-04 at cycle   7 NSaved=   7.
 NSaved= 7 IEnMin= 7 EnMin= -231.667241227309     IErMin= 7 ErrMin= 7.51D-04
 ErrMax= 7.51D-04  0.00D+00 EMaxC= 1.00D+00 BMatC= 1.23D-05 BMatP= 4.43D-05
 IDIUse=1 WtCom= 1.00D+00 WtEn= 0.00D+00
 Coeff-Com: -0.237D-01 0.488D-01-0.189D+00-0.428D-01 0.154D+01-0.396D+01
 Coeff-Com:  0.364D+01
 Coeff:     -0.237D-01 0.488D-01-0.189D+00-0.428D-01 0.154D+01-0.396D+01
 Coeff:      0.364D+01
 Gap=     0.394 Goal=   None    Shift=    0.500
 Gap=     0.230 Goal=   None    Shift=    0.500
 RMSDP=6.56D-05 MaxDP=1.12D-03 DE=-6.60D-05 OVMax= 3.16D-03

 Cycle   8  Pass 1  IDiag  1:
 Density matrix breaks symmetry, PCut= 1.00D-04
 Density has only Abelian symmetry.
 E= -231.667258842534     Delta-E=       -0.000017615226 Rises=F Damp=F
 DIIS: error= 3.82D-04 at cycle   8 NSaved=   8.
 NSaved= 8 IEnMin= 8 EnMin= -231.667258842534     IErMin= 8 ErrMin= 3.82D-04
 ErrMax= 3.82D-04  0.00D+00 EMaxC= 1.00D+00 BMatC= 3.12D-06 BMatP= 1.23D-05
 IDIUse=1 WtCom= 1.00D+00 WtEn= 0.00D+00
 Coeff-Com:  0.589D-02-0.106D-01 0.436D-01-0.239D-01-0.438D+00 0.162D+01
 Coeff-Com: -0.315D+01 0.295D+01
 Coeff:      0.589D-02-0.106D-01 0.436D-01-0.239D-01-0.438D+00 0.162D+01
 Coeff:     -0.315D+01 0.295D+01
 Gap=     0.394 Goal=   None    Shift=    0.500
 Gap=     0.230 Goal=   None    Shift=    0.500
 RMSDP=3.16D-05 MaxDP=5.06D-04 DE=-1.76D-05 OVMax= 1.60D-03

 Cycle   9  Pass 1  IDiag  1:
 Density matrix breaks symmetry, PCut= 1.00D-04
 Density has only Abelian symmetry.
 E= -231.667263066414     Delta-E=       -0.000004223879 Rises=F Damp=F
 DIIS: error= 1.88D-04 at cycle   9 NSaved=   9.
 NSaved= 9 IEnMin= 9 EnMin= -231.667263066414     IErMin= 9 ErrMin= 1.88D-04
 ErrMax= 1.88D-04  0.00D+00 EMaxC= 1.00D+00 BMatC= 7.07D-07 BMatP= 3.12D-06
 IDIUse=1 WtCom= 1.00D+00 WtEn= 0.00D+00
 Coeff-Com: -0.462D-02 0.884D-02-0.282D-01-0.215D-02 0.284D+00-0.995D+00
 Coeff-Com:  0.197D+01-0.322D+01 0.298D+01
 Coeff:     -0.462D-02 0.884D-02-0.282D-01-0.215D-02 0.284D+00-0.995D+00
 Coeff:      0.197D+01-0.322D+01 0.298D+01
 Gap=     0.394 Goal=   None    Shift=    0.500
 Gap=     0.230 Goal=   None    Shift=    0.500
 RMSDP=1.46D-05 MaxDP=2.36D-04 DE=-4.22D-06 OVMax= 7.82D-04

 Cycle  10  Pass 1  IDiag  1:
 Density matrix breaks symmetry, PCut= 1.00D-04
 Density has only Abelian symmetry.
 E= -231.667264015839     Delta-E=       -0.000000949425 Rises=F Damp=F
 DIIS: error= 9.25D-05 at cycle  10 NSaved=  10.
 NSaved=10 IEnMin=10 EnMin= -231.667264015839     IErMin=10 ErrMin= 9.25D-05
 ErrMax= 9.25D-05  0.00D+00 EMaxC= 1.00D+00 BMatC= 1.55D-07 BMatP= 7.07D-07
 IDIUse=1 WtCom= 1.00D+00 WtEn= 0.00D+00
 Coeff-Com:  0.188D-02-0.343D-02 0.104D-01-0.592D-02-0.984D-01 0.391D+00
 Coeff-Com: -0.871D+00 0.160D+01-0.279D+01 0.276D+01
 Coeff:      0.188D-02-0.343D-02 0.104D-01-0.592D-02-0.984D-01 0.391D+00
 Coeff:     -0.871D+00 0.160D+01-0.279D+01 0.276D+01
 Gap=     0.394 Goal=   None    Shift=    0.500
 Gap=     0.230 Goal=   None    Shift=    0.500
 RMSDP=6.80D-06 MaxDP=1.11D-04 DE=-9.49D-07 OVMax= 3.77D-04

 Cycle  11  Pass 1  IDiag  1:
 Density matrix breaks symmetry, PCut= 1.00D-04
 Density has only Abelian symmetry.
 E= -231.667264223735     Delta-E=       -0.000000207896 Rises=F Damp=F
 DIIS: error= 4.51D-05 at cycle  11 NSaved=  11.
 NSaved=11 IEnMin=11 EnMin= -231.667264223735     IErMin=11 ErrMin= 4.51D-05
 ErrMax= 4.51D-05  0.00D+00 EMaxC= 1.00D+00 BMatC= 3.36D-08 BMatP= 1.55D-07
 IDIUse=1 WtCom= 1.00D+00 WtEn= 0.00D+00
 Coeff-Com: -0.525D-03 0.985D-03-0.240D-02 0.545D-03 0.186D-01-0.721D-01
 Coeff-Com:  0.170D+00-0.401D+00 0.955D+00-0.221D+01 0.254D+01
 Coeff:     -0.525D-03 0.985D-03-0.240D-02 0.545D-03 0.186D-01-0.721D-01
 Coeff:      0.170D+00-0.401D+00 0.955D+00-0.221D+01 0.254D+01
 Gap=     0.394 Goal=   None    Shift=    0.500
 Gap=     0.230 Goal=   None    Shift=    0.500
 RMSDP=3.14D-06 MaxDP=5.11D-05 DE=-2.08D-07 OVMax= 1.80D-04

 Cycle  12  Pass 1  IDiag  1:
 Density matrix breaks symmetry, PCut= 1.00D-04
 Density has only Abelian symmetry.
 E= -231.667264268728     Delta-E=       -0.000000044993 Rises=F Damp=F
 DIIS: error= 2.23D-05 at cycle  12 NSaved=  12.
 NSaved=12 IEnMin=12 EnMin= -231.667264268728     IErMin=12 ErrMin= 2.23D-05
 ErrMax= 2.23D-05  0.00D+00 EMaxC= 1.00D+00 BMatC= 7.42D-09 BMatP= 3.36D-08
 IDIUse=1 WtCom= 1.00D+00 WtEn= 0.00D+00
 Coeff-Com: -0.189D-03 0.389D-03-0.125D-02-0.950D-03 0.165D-01-0.546D-01
 Coeff-Com:  0.110D+00-0.169D+00 0.128D+00 0.488D+00-0.232D+01 0.280D+01
 Coeff:     -0.189D-03 0.389D-03-0.125D-02-0.950D-03 0.165D-01-0.546D-01
 Coeff:      0.110D+00-0.169D+00 0.128D+00 0.488D+00-0.232D+01 0.280D+01
 Gap=     0.394 Goal=   None    Shift=    0.500
 Gap=     0.230 Goal=   None    Shift=    0.500
 RMSDP=1.44D-06 MaxDP=2.35D-05 DE=-4.50D-08 OVMax= 8.78D-05

 Cycle  13  Pass 1  IDiag  1:
 Density matrix breaks symmetry, PCut= 1.00D-04
 Density has only Abelian symmetry.
 E= -231.667264278596     Delta-E=       -0.000000009869 Rises=F Damp=F
 DIIS: error= 1.09D-05 at cycle  13 NSaved=  13.
 NSaved=13 IEnMin=13 EnMin= -231.667264278596     IErMin=13 ErrMin= 1.09D-05
 ErrMax= 1.09D-05  0.00D+00 EMaxC= 1.00D+00 BMatC= 1.64D-09 BMatP= 7.42D-09
 IDIUse=1 WtCom= 1.00D+00 WtEn= 0.00D+00
 Coeff-Com:  0.118D-03-0.233D-03 0.744D-03 0.416D-04-0.798D-02 0.275D-01
 Coeff-Com: -0.550D-01 0.845D-01-0.738D-01-0.209D+00 0.127D+01-0.314D+01
 Coeff-Com:  0.310D+01
 Coeff:      0.118D-03-0.233D-03 0.744D-03 0.416D-04-0.798D-02 0.275D-01
 Coeff:     -0.550D-01 0.845D-01-0.738D-01-0.209D+00 0.127D+01-0.314D+01
 Coeff:      0.310D+01
 Gap=     0.394 Goal=   None    Shift=    0.500
 Gap=     0.230 Goal=   None    Shift=    0.500
 RMSDP=6.59D-07 MaxDP=1.08D-05 DE=-9.87D-09 OVMax= 4.23D-05

 Density matrix breaks symmetry, PCut= 1.00D-04
 Density has only Abelian symmetry.
 SCF Done:  E(ULC-wHPBE) =  -231.667264279     A.U. after   13 cycles
            NFock= 13  Conv=0.66D-06     -V/T= 2.0046
 <Sx>= 0.0000 <Sy>= 0.0000 <Sz>= 0.5000 <S**2>= 0.7761 S= 0.5130
 <L.S>= 0.000000000000E+00
 KE= 2.305966354071D+02 PE=-9.349013929041D+02 EE= 2.690934951263D+02
 Annihilation of the first spin contaminant:
 S**2 before annihilation     0.7761,   after     0.7503
 Leave Link  502 at Wed Apr 22 20:38:27 2020, MaxMem=  6710886400 cpu:              17.4 elap:               1.1
 (Enter /opt/ohpc/pub/libs/gaussian/g16-A.03/sandybridge/g16/l508.exe)
 QCSCF skips out because SCF is already converged.
 Leave Link  508 at Wed Apr 22 20:38:27 2020, MaxMem=  6710886400 cpu:               0.2 elap:               0.0
 (Enter /opt/ohpc/pub/libs/gaussian/g16-A.03/sandybridge/g16/l601.exe)
 Copying SCF densities to generalized density rwf, IOpCl= 1 IROHF=0.
 SCF density gives NOpUse=  8 NOpAll= 24.
 Marking SCF density as not fully symmetric.

 **********************************************************************

            Population analysis using the SCF density.

 **********************************************************************

 Orbital symmetries:
 Alpha Orbitals:
       Occupied  (?A) (?A) (?A) (?A) (?A) (?A) (?B) (?B) (?B) (?B)
                 (?B) (?B) (?B) (?B) (?B) (?B) (?C) (?B) (?B) (?C)
                 (?C)
       Virtual   (?C) (?C) (?B) (?C) (?B) (?B) (?B) (?B) (?B) (?B)
                 (?B) (?B) (?B) (?B) (?C) (?B) (?B) (?B) (?C) (?C)
                 (?B) (?B) (?B) (?C) (?B) (?B) (?C) (?C) (?B) (?B)
                 (?B) (?B) (?B) (?B) (?B) (?B) (?B) (?B) (?B) (?B)
                 (?B) (?B) (?B) (?B) (?B)
 Beta  Orbitals:
       Occupied  (?A) (?A) (?A) (?A) (?A) (?A) (?B) (B2G) (B2G)
                 (?B) (?B) (?B) (B2G) (B2G) (B2G) (B2G) (?C) (?B)
                 (?B) (?D)
       Virtual   (?D) (?C) (?C) (?D) (?D) (B2G) (B2G) (?D) (?D)
                 (B2G) (?D) (?D) (B2G) (B2G) (B2G) (?C) (B2G) (?D)
                 (?D) (?D) (?D) (?D) (?D) (?D) (B2G) (B2G) (?C)
                 (?C) (?D) (B2G) (?A) (?A) (B2G) (B2G) (?A) (?D)
                 (B2G) (B2G) (?D) (?D) (B2G) (B2G) (B2G) (E2G)
                 (E2G) (B1U)
 Unable to determine electronic state:  an orbital has unidentified symmetry.
 Alpha  occ. eigenvalues --  -10.33223 -10.33220 -10.33197 -10.33192 -10.29414
 Alpha  occ. eigenvalues --  -10.29410  -1.21672  -1.11124  -1.08475  -0.94275
 Alpha  occ. eigenvalues --   -0.94272  -0.85934  -0.79077  -0.77894  -0.76017
 Alpha  occ. eigenvalues --   -0.73923  -0.72949  -0.66466  -0.66156  -0.61272
 Alpha  occ. eigenvalues --   -0.57261
 Alpha virt. eigenvalues --   -0.17867  -0.14375  -0.00820   0.01769   0.04351
 Alpha virt. eigenvalues --    0.05480   0.07895   0.08982   0.10426   0.17954
 Alpha virt. eigenvalues --    0.18446   0.19230   0.19799   0.37909   0.38740
 Alpha virt. eigenvalues --    0.41214   0.43631   0.44003   0.46854   0.49120
 Alpha virt. eigenvalues --    0.49393   0.49917   0.52760   0.53288   0.53875
 Alpha virt. eigenvalues --    0.54338   0.55307   0.62557   0.72571   0.73917
 Alpha virt. eigenvalues --    0.75314   0.78290   0.79985   0.85664   0.86065
 Alpha virt. eigenvalues --    0.88248   0.88268   1.00281   1.01879   1.06261
 Alpha virt. eigenvalues --    1.07221   1.11534   1.33717   1.33975   1.79158
  Beta  occ. eigenvalues --  -10.32753 -10.32752 -10.32731 -10.32726 -10.29615
  Beta  occ. eigenvalues --  -10.29612  -1.20520  -1.08818  -1.08273  -0.93738
  Beta  occ. eigenvalues --   -0.93313  -0.85627  -0.78603  -0.77446  -0.75474
  Beta  occ. eigenvalues --   -0.73940  -0.67959  -0.66248  -0.65867  -0.57112
  Beta virt. eigenvalues --   -0.34096  -0.12562  -0.12502  -0.00628   0.04068
  Beta virt. eigenvalues --    0.04621   0.05532   0.08692   0.09128   0.10738
  Beta virt. eigenvalues --    0.18563   0.18646   0.19717   0.20166   0.38253
  Beta virt. eigenvalues --    0.40292   0.42288   0.44090   0.44369   0.49490
  Beta virt. eigenvalues --    0.49511   0.50073   0.50488   0.53085   0.54619
  Beta virt. eigenvalues --    0.55077   0.55417   0.55652   0.63516   0.72880
  Beta virt. eigenvalues --    0.74276   0.75397   0.78938   0.80003   0.85896
  Beta virt. eigenvalues --    0.86294   0.88538   0.89240   1.01602   1.02173
  Beta virt. eigenvalues --    1.07138   1.07329   1.12031   1.34245   1.34786
  Beta virt. eigenvalues --    1.79930
          Condensed to atoms (all electrons):
               1          2          3          4          5          6
     1  C    4.912401   0.521436  -0.063627  -0.022960  -0.063627   0.521436
     2  C    0.521436   4.965531   0.412503  -0.063627  -0.023750  -0.049516
     3  C   -0.063627   0.412503   4.965531   0.521436  -0.049516  -0.023750
     4  C   -0.022960  -0.063627   0.521436   4.912401   0.521436  -0.063627
     5  C   -0.063627  -0.023750  -0.049516   0.521436   4.965531   0.412503
     6  C    0.521436  -0.049516  -0.023750  -0.063627   0.412503   4.965531
     7  H    0.371545  -0.024077   0.003255   0.000064   0.003255  -0.024077
     8  H   -0.020355   0.365821  -0.028250   0.002993   0.000062   0.003165
     9  H    0.002993  -0.028250   0.365821  -0.020355   0.003165   0.000062
    10  H    0.000064   0.003255  -0.024077   0.371545  -0.024077   0.003255
    11  H    0.002993   0.000062   0.003165  -0.020355   0.365821  -0.028250
    12  H   -0.020355   0.003165   0.000062   0.002993  -0.028250   0.365821
               7          8          9         10         11         12
     1  C    0.371545  -0.020355   0.002993   0.000064   0.002993  -0.020355
     2  C   -0.024077   0.365821  -0.028250   0.003255   0.000062   0.003165
     3  C    0.003255  -0.028250   0.365821  -0.024077   0.003165   0.000062
     4  C    0.000064   0.002993  -0.020355   0.371545  -0.020355   0.002993
     5  C    0.003255   0.000062   0.003165  -0.024077   0.365821  -0.028250
     6  C   -0.024077   0.003165   0.000062   0.003255  -0.028250   0.365821
     7  H    0.417043  -0.002601  -0.000071   0.000002  -0.000071  -0.002601
     8  H   -0.002601   0.407243  -0.002301  -0.000071   0.000004  -0.000067
     9  H   -0.000071  -0.002301   0.407243  -0.002601  -0.000067   0.000004
    10  H    0.000002  -0.000071  -0.002601   0.417043  -0.002601  -0.000071
    11  H   -0.000071   0.000004  -0.000067  -0.002601   0.407243  -0.002301
    12  H   -0.002601  -0.000067   0.000004  -0.000071  -0.002301   0.407243
          Atomic-Atomic Spin Densities.
               1          2          3          4          5          6
     1  C   -0.183172  -0.007028  -0.007523   0.005925  -0.007523  -0.007028
     2  C   -0.007028   0.355829   0.040367  -0.007523  -0.007267  -0.006001
     3  C   -0.007523   0.040367   0.355829  -0.007028  -0.006001  -0.007267
     4  C    0.005925  -0.007523  -0.007028  -0.183172  -0.007028  -0.007523
     5  C   -0.007523  -0.007267  -0.006001  -0.007028   0.355829   0.040367
     6  C   -0.007028  -0.006001  -0.007267  -0.007523   0.040367   0.355829
     7  H    0.001537  -0.000934   0.000151  -0.000052   0.000151  -0.000934
     8  H    0.000060   0.000384  -0.001802  -0.000009  -0.000055   0.000083
     9  H   -0.000009  -0.001802   0.000384   0.000060   0.000083  -0.000055
    10  H   -0.000052   0.000151  -0.000934   0.001537  -0.000934   0.000151
    11  H   -0.000009  -0.000055   0.000083   0.000060   0.000384  -0.001802
    12  H    0.000060   0.000083  -0.000055  -0.000009  -0.001802   0.000384
               7          8          9         10         11         12
     1  C    0.001537   0.000060  -0.000009  -0.000052  -0.000009   0.000060
     2  C   -0.000934   0.000384  -0.001802   0.000151  -0.000055   0.000083
     3  C    0.000151  -0.001802   0.000384  -0.000934   0.000083  -0.000055
     4  C   -0.000052  -0.000009   0.000060   0.001537   0.000060  -0.000009
     5  C    0.000151  -0.000055   0.000083  -0.000934   0.000384  -0.001802
     6  C   -0.000934   0.000083  -0.000055   0.000151  -0.001802   0.000384
     7  H    0.005088  -0.000003   0.000004  -0.000001   0.000004  -0.000003
     8  H   -0.000003  -0.014946  -0.000047   0.000004  -0.000000   0.000005
     9  H    0.000004  -0.000047  -0.014946  -0.000003   0.000005  -0.000000
    10  H   -0.000001   0.000004  -0.000003   0.005088  -0.000003   0.000004
    11  H    0.000004  -0.000000   0.000005  -0.000003  -0.014946  -0.000047
    12  H   -0.000003   0.000005  -0.000000   0.000004  -0.000047  -0.014946
 Mulliken charges and spin densities:
               1          2
     1  C   -0.141944  -0.204761
     2  C   -0.082551   0.366203
     3  C   -0.082551   0.366203
     4  C   -0.141944  -0.204761
     5  C   -0.082551   0.366203
     6  C   -0.082551   0.366203
     7  H    0.258335   0.005008
     8  H    0.274356  -0.016327
     9  H    0.274356  -0.016327
    10  H    0.258335   0.005008
    11  H    0.274356  -0.016327
    12  H    0.274356  -0.016327
 Sum of Mulliken charges =   1.00000   1.00000
 Mulliken charges and spin densities with hydrogens summed into heavy atoms:
               1          2
     1  C    0.116391  -0.199752
     2  C    0.191805   0.349876
     3  C    0.191805   0.349876
     4  C    0.116391  -0.199752
     5  C    0.191805   0.349876
     6  C    0.191805   0.349876
 Electronic spatial extent (au):  <R**2>=            437.1396
 Charge=              1.0000 electrons
 Dipole moment (field-independent basis, Debye):
    X=             -0.0000    Y=              0.0000    Z=             -0.0000  Tot=              0.0000
 Quadrupole moment (field-independent basis, Debye-Ang):
   XX=            -18.0194   YY=            -21.6891   ZZ=            -35.0155
   XY=             -0.0000   XZ=              0.0000   YZ=              0.0000
 Traceless Quadrupole moment (field-independent basis, Debye-Ang):
   XX=              6.8886   YY=              3.2189   ZZ=            -10.1075
   XY=             -0.0000   XZ=              0.0000   YZ=              0.0000
 Octapole moment (field-independent basis, Debye-Ang**2):
  XXX=              0.0000  YYY=              0.0000  ZZZ=              0.0000  XYY=             -0.0000
  XXY=             -0.0000  XXZ=              0.0000  XZZ=             -0.0000  YZZ=              0.0000
  YYZ=              0.0000  XYZ=              0.0000
 Hexadecapole moment (field-independent basis, Debye-Ang**3):
 XXXX=           -195.6351 YYYY=           -210.0078 ZZZZ=            -34.1294 XXXY=              0.0000
 XXXZ=              0.0000 YYYX=              0.0000 YYYZ=              0.0000 ZZZX=             -0.0000
 ZZZY=             -0.0000 XXYY=            -66.0884 XXZZ=            -51.9780 YYZZ=            -55.2832
 XXYZ=              0.0000 YYXZ=              0.0000 ZZXY=              0.0000
 N-N= 2.035439980921D+02 E-N=-9.349013946051D+02  KE= 2.305966354071D+02
 Symmetry AG   KE= 7.451997513479D+01
 Symmetry B1G  KE= 3.776555688635D+01
 Symmetry B2G  KE= 1.197607853939D+00
 Symmetry B3G  KE= 2.342762701027D+00
 Symmetry AU   KE= 3.097475365053D-17
 Symmetry B1U  KE= 1.958254405662D+00
 Symmetry B2U  KE= 7.220175674343D+01
 Symmetry B3U  KE= 4.061072168194D+01
 Symmetry AG   SP=-1.171822648681D-14
 Symmetry B1G  SP=-2.712196108976D-15
 Symmetry B2G  SP= 1.000000000000D+00
 Symmetry B3G  SP=-3.757898939943D-15
 Symmetry AU   SP= 2.793543589594D-17
 Symmetry B1U  SP=-2.058384929518D-15
 Symmetry B2U  SP=-2.283109885501D-14
 Symmetry B3U  SP= 2.995379552034D-16
                          Isotropic Fermi Contact Couplings
        Atom                 a.u.       MegaHertz       Gauss      10(-4) cm-1
     1  C(13)             -0.03155     -35.47363     -12.65787     -11.83273
     2  C(13)              0.04321      48.57917      17.33426      16.20427
     3  C(13)              0.04321      48.57917      17.33426      16.20427
     4  C(13)             -0.03155     -35.47363     -12.65787     -11.83273
     5  C(13)              0.04321      48.57917      17.33426      16.20427
     6  C(13)              0.04321      48.57917      17.33426      16.20427
     7  H(1)               0.00195       8.73721       3.11765       2.91442
     8  H(1)              -0.00637     -28.47491     -10.16056      -9.49821
     9  H(1)              -0.00637     -28.47491     -10.16056      -9.49821
    10  H(1)               0.00195       8.73721       3.11765       2.91442
    11  H(1)              -0.00637     -28.47491     -10.16056      -9.49821
    12  H(1)              -0.00637     -28.47491     -10.16056      -9.49821
 --------------------------------------------------------
       Center         ----  Spin Dipole Couplings  ----
                      3XX-RR        3YY-RR        3ZZ-RR
 --------------------------------------------------------
     1   Atom        0.070116      0.062326     -0.132442
     2   Atom       -0.187690     -0.180277      0.367967
     3   Atom       -0.187690     -0.180277      0.367967
     4   Atom        0.070116      0.062326     -0.132442
     5   Atom       -0.187690     -0.180277      0.367967
     6   Atom       -0.187690     -0.180277      0.367967
     7   Atom        0.006414     -0.000789     -0.005625
     8   Atom        0.011239     -0.003672     -0.007567
     9   Atom        0.011239     -0.003672     -0.007567
    10   Atom        0.006414     -0.000789     -0.005625
    11   Atom        0.011239     -0.003672     -0.007567
    12   Atom        0.011239     -0.003672     -0.007567
 --------------------------------------------------------
                        XY            XZ            YZ
 --------------------------------------------------------
     1   Atom        0.000000      0.000000      0.000000
     2   Atom       -0.004840     -0.000000     -0.000000
     3   Atom        0.004840     -0.000000      0.000000
     4   Atom       -0.000000      0.000000     -0.000000
     5   Atom       -0.004840      0.000000      0.000000
     6   Atom        0.004840      0.000000     -0.000000
     7   Atom        0.000000     -0.000000     -0.000000
     8   Atom       -0.028403     -0.000000      0.000000
     9   Atom        0.028403     -0.000000     -0.000000
    10   Atom       -0.000000     -0.000000      0.000000
    11   Atom       -0.028403      0.000000     -0.000000
    12   Atom        0.028403      0.000000      0.000000
 --------------------------------------------------------


 ---------------------------------------------------------------------------------
              Anisotropic Spin Dipole Couplings in Principal Axis System
 ---------------------------------------------------------------------------------

       Atom             a.u.   MegaHertz   Gauss  10(-4) cm-1        Axes

              Baa    -0.1324   -17.772    -6.342    -5.928  0.0000  0.0000  1.0000
     1 C(13)  Bbb     0.0623     8.364     2.984     2.790 -0.0000  1.0000 -0.0000
              Bcc     0.0701     9.409     3.357     3.138  1.0000  0.0000 -0.0000
 
              Baa    -0.1901   -25.507    -9.101    -8.508  0.8967  0.4427 -0.0000
     2 C(13)  Bbb    -0.1779   -23.871    -8.518    -7.962 -0.4427  0.8967 -0.0000
              Bcc     0.3680    49.378    17.619    16.471  0.0000  0.0000  1.0000
 
              Baa    -0.1901   -25.507    -9.101    -8.508  0.8967 -0.4427  0.0000
     3 C(13)  Bbb    -0.1779   -23.871    -8.518    -7.962  0.4427  0.8967 -0.0000
              Bcc     0.3680    49.378    17.619    16.471  0.0000  0.0000  1.0000
 
              Baa    -0.1324   -17.772    -6.342    -5.928  0.0000  0.0000  1.0000
     4 C(13)  Bbb     0.0623     8.364     2.984     2.790  0.0000  1.0000  0.0000
              Bcc     0.0701     9.409     3.357     3.138  1.0000 -0.0000  0.0000
 
              Baa    -0.1901   -25.507    -9.101    -8.508  0.8967  0.4427 -0.0000
     5 C(13)  Bbb    -0.1779   -23.871    -8.518    -7.962 -0.4427  0.8967 -0.0000
              Bcc     0.3680    49.378    17.619    16.471  0.0000  0.0000  1.0000
 
              Baa    -0.1901   -25.507    -9.101    -8.508  0.8967 -0.4427  0.0000
     6 C(13)  Bbb    -0.1779   -23.871    -8.518    -7.962  0.4427  0.8967 -0.0000
              Bcc     0.3680    49.378    17.619    16.471  0.0000  0.0000  1.0000
 
              Baa    -0.0056    -3.001    -1.071    -1.001  0.0000  0.0000  1.0000
     7 H(1)   Bbb    -0.0008    -0.421    -0.150    -0.140 -0.0000  1.0000 -0.0000
              Bcc     0.0064     3.422     1.221     1.142  1.0000  0.0000 -0.0000
 
              Baa    -0.0256   -13.649    -4.870    -4.553  0.6108  0.7918  0.0000
     8 H(1)   Bbb    -0.0076    -4.038    -1.441    -1.347  0.0000  0.0000  1.0000
              Bcc     0.0331    17.687     6.311     5.900  0.7918 -0.6108  0.0000
 
              Baa    -0.0256   -13.649    -4.870    -4.553 -0.6108  0.7918  0.0000
     9 H(1)   Bbb    -0.0076    -4.038    -1.441    -1.347  0.0000  0.0000  1.0000
              Bcc     0.0331    17.687     6.311     5.900  0.7918  0.6108 -0.0000
 
              Baa    -0.0056    -3.001    -1.071    -1.001  0.0000  0.0000  1.0000
    10 H(1)   Bbb    -0.0008    -0.421    -0.150    -0.140  0.0000  1.0000  0.0000
              Bcc     0.0064     3.422     1.221     1.142  1.0000 -0.0000  0.0000
 
              Baa    -0.0256   -13.649    -4.870    -4.553  0.6108  0.7918  0.0000
    11 H(1)   Bbb    -0.0076    -4.038    -1.441    -1.347  0.0000  0.0000  1.0000
              Bcc     0.0331    17.687     6.311     5.900  0.7918 -0.6108  0.0000
 
              Baa    -0.0256   -13.649    -4.870    -4.553 -0.6108  0.7918  0.0000
    12 H(1)   Bbb    -0.0076    -4.038    -1.441    -1.347  0.0000  0.0000  1.0000
              Bcc     0.0331    17.687     6.311     5.900  0.7918  0.6108 -0.0000
 

 ---------------------------------------------------------------------------------

 No NMR shielding tensors so no spin-rotation constants.
 Leave Link  601 at Wed Apr 22 20:38:27 2020, MaxMem=  6710886400 cpu:               3.3 elap:               0.2
 (Enter /opt/ohpc/pub/libs/gaussian/g16-A.03/sandybridge/g16/l9999.exe)

 Test job not archived.
 1\1\GINC-CNODE130\SP\ULC-wHPBE\6-31G\C6H6(1+,2)\QAI222\22-Apr-2020\0\\
 #P uLC-wHPBE/6-31G iop(3/107=0314400000, 3/108=0314400000) scf=(conver
 =6,fermi,ndamp=35,noincfock,novaracc,vshift=500,xqc)\\H6 C6\\1,2\C,0,0
 .,1.39316,0.\C,0,-1.206512,0.69658,0.\C,0,-1.206512,-0.69658,0.\C,0,0.
 ,-1.39316,0.\C,0,1.206512,-0.69658,0.\C,0,1.206512,0.69658,0.\H,0,0.,2
 .482681,0.\H,0,-2.150065,1.24134,0.\H,0,-2.150065,-1.24134,0.\H,0,0.,-
 2.482681,0.\H,0,2.150065,-1.24134,0.\H,0,2.150065,1.24134,0.\\Version=
 EM64L-G16RevA.03\HF=-231.6672643\S2=0.776114\S2-1=0.\S2A=0.750328\RMSD
 =6.587e-07\Dipole=0.,0.,0.\Quadrupole=5.1215097,2.3931631,-7.5146728,0
 .,0.,0.\PG=D06H [3C2'(H1C1.C1H1)]\\@


 A COMPLEXITY IS MERELY A DISARRANGEMENT OF SIMPLICITIES.

                                    -- G. O. ABELL IN "EXPLORATION OF THE UNIVERSE"
 Job cpu time:       0 days  0 hours  0 minutes 39.8 seconds.
 Elapsed time:       0 days  0 hours  0 minutes  2.7 seconds.
 File lengths (MBytes):  RWF=    272 Int=      0 D2E=      0 Chk=     32 Scr=     32
 Normal termination of Gaussian 16 at Wed Apr 22 20:38:27 2020.
