 Entering Gaussian System, Link 0=g16
 Input=1b_tune_c1.gjf
 Output=1b_tune_c1.log
 Initial command:
 /opt/ohpc/pub/libs/gaussian/g16-A.03/sandybridge/g16/l1.exe "/scratch/qai222/ocelot_api/tests/wtuning_test/1b/tuning_1b_ocycle0/Gau-4045.inp" -scrdir="/scratch/qai222/ocelot_api/tests/wtuning_test/1b/tuning_1b_ocycle0/"
 Entering Link 1 = /opt/ohpc/pub/libs/gaussian/g16-A.03/sandybridge/g16/l1.exe PID=      4046.
  
 Copyright (c) 1988,1990,1992,1993,1995,1998,2003,2009,2016,
            Gaussian, Inc.  All Rights Reserved.
  
 This is part of the Gaussian(R) 16 program.  It is based on
 the Gaussian(R) 09 system (copyright 2009, Gaussian, Inc.),
 the Gaussian(R) 03 system (copyright 2003, Gaussian, Inc.),
 the Gaussian(R) 98 system (copyright 1998, Gaussian, Inc.),
 the Gaussian(R) 94 system (copyright 1995, Gaussian, Inc.),
 the Gaussian 92(TM) system (copyright 1992, Gaussian, Inc.),
 the Gaussian 90(TM) system (copyright 1990, Gaussian, Inc.),
 the Gaussian 88(TM) system (copyright 1988, Gaussian, Inc.),
 the Gaussian 86(TM) system (copyright 1986, Carnegie Mellon
 University), and the Gaussian 82(TM) system (copyright 1983,
 Carnegie Mellon University). Gaussian is a federally registered
 trademark of Gaussian, Inc.
  
 This software contains proprietary and confidential information,
 including trade secrets, belonging to Gaussian, Inc.
  
 This software is provided under written license and may be
 used, copied, transmitted, or stored only in accord with that
 written license.
  
 The following legend is applicable only to US Government
 contracts under FAR:
  
                    RESTRICTED RIGHTS LEGEND
  
 Use, reproduction and disclosure by the US Government is
 subject to restrictions as set forth in subparagraphs (a)
 and (c) of the Commercial Computer Software - Restricted
 Rights clause in FAR 52.227-19.
  
 Gaussian, Inc.
 340 Quinnipiac St., Bldg. 40, Wallingford CT 06492
  
  
 ---------------------------------------------------------------
 Warning -- This program may not be used in any manner that
 competes with the business of Gaussian, Inc. or will provide
 assistance to any competitor of Gaussian, Inc.  The licensee
 of this program is prohibited from giving any competitor of
 Gaussian, Inc. access to this program.  By using this program,
 the user acknowledges that Gaussian, Inc. is engaged in the
 business of creating and licensing software in the field of
 computational chemistry and represents and warrants to the
 licensee that it is not a competitor of Gaussian, Inc. and that
 it will not use this program in any manner prohibited above.
 ---------------------------------------------------------------
  

 Cite this work as:
 Gaussian 16, Revision A.03,
 M. J. Frisch, G. W. Trucks, H. B. Schlegel, G. E. Scuseria, 
 M. A. Robb, J. R. Cheeseman, G. Scalmani, V. Barone, 
 G. A. Petersson, H. Nakatsuji, X. Li, M. Caricato, A. V. Marenich, 
 J. Bloino, B. G. Janesko, R. Gomperts, B. Mennucci, H. P. Hratchian, 
 J. V. Ortiz, A. F. Izmaylov, J. L. Sonnenberg, D. Williams-Young, 
 F. Ding, F. Lipparini, F. Egidi, J. Goings, B. Peng, A. Petrone, 
 T. Henderson, D. Ranasinghe, V. G. Zakrzewski, J. Gao, N. Rega, 
 G. Zheng, W. Liang, M. Hada, M. Ehara, K. Toyota, R. Fukuda, 
 J. Hasegawa, M. Ishida, T. Nakajima, Y. Honda, O. Kitao, H. Nakai, 
 T. Vreven, K. Throssell, J. A. Montgomery, Jr., J. E. Peralta, 
 F. Ogliaro, M. J. Bearpark, J. J. Heyd, E. N. Brothers, K. N. Kudin, 
 V. N. Staroverov, T. A. Keith, R. Kobayashi, J. Normand, 
 K. Raghavachari, A. P. Rendell, J. C. Burant, S. S. Iyengar, 
 J. Tomasi, M. Cossi, J. M. Millam, M. Klene, C. Adamo, R. Cammi, 
 J. W. Ochterski, R. L. Martin, K. Morokuma, O. Farkas, 
 J. B. Foresman, and D. J. Fox, Gaussian, Inc., Wallingford CT, 2016.
 
 ******************************************
 Gaussian 16:  EM64L-G16RevA.03 25-Dec-2016
                22-Apr-2020 
 ******************************************
 %mem=50GB
 %nproc=16
 Will use up to   16 processors via shared memory.
 ----------------------------------------------------------------------
 #P uLC-wHPBE/6-31G iop(3/107=0328100000, 3/108=0328100000) scf=(conver
 =6,fermi,ndamp=35,noincfock,novaracc,vshift=500,xqc)
 ----------------------------------------------------------------------
 1/38=1,172=1/1;
 2/12=2,17=6,18=5,40=1/2;
 3/5=1,6=6,11=2,25=1,30=1,74=-71,107=328100000,108=328100000,116=2/1,2,3;
 4//1;
 5/5=100002,6=6,8=3,10=500,13=1,18=-1,22=13,38=1,93=35/2,8;
 6/7=2,8=2,9=2,10=2,28=1/1;
 99/5=1,9=1/99;
 Leave Link    1 at Wed Apr 22 20:37:36 2020, MaxMem=  6710886400 cpu:               8.4 elap:               0.6
 (Enter /opt/ohpc/pub/libs/gaussian/g16-A.03/sandybridge/g16/l101.exe)
 -----
 H6 C6
 -----
 Symbolic Z-matrix:
 Charge =  1 Multiplicity = 2
 C                     0.        1.39316   0. 
 C                    -1.20651   0.69658   0. 
 C                    -1.20651  -0.69658   0. 
 C                     0.       -1.39316   0. 
 C                     1.20651  -0.69658   0. 
 C                     1.20651   0.69658   0. 
 H                     0.        2.48268   0. 
 H                    -2.15007   1.24134   0. 
 H                    -2.15007  -1.24134   0. 
 H                     0.       -2.48268   0. 
 H                     2.15007  -1.24134   0. 
 H                     2.15007   1.24134   0. 
 
 ITRead=  0  0  0  0  0  0  0  0  0  0  0  0
 MicOpt= -1 -1 -1 -1 -1 -1 -1 -1 -1 -1 -1 -1
 NAtoms=     12 NQM=       12 NQMF=       0 NMMI=      0 NMMIF=      0
                NMic=       0 NMicF=      0.
                    Isotopes and Nuclear Properties:
 (Nuclear quadrupole moments (NQMom) in fm**2, nuclear magnetic moments (NMagM)
  in nuclear magnetons)

  Atom         1           2           3           4           5           6           7           8           9          10
 IAtWgt=          12          12          12          12          12          12           1           1           1           1
 AtmWgt=  12.0000000  12.0000000  12.0000000  12.0000000  12.0000000  12.0000000   1.0078250   1.0078250   1.0078250   1.0078250
 NucSpn=           0           0           0           0           0           0           1           1           1           1
 AtZEff=  -0.0000000  -0.0000000  -0.0000000  -0.0000000  -0.0000000  -0.0000000  -0.0000000  -0.0000000  -0.0000000  -0.0000000
 NQMom=    0.0000000   0.0000000   0.0000000   0.0000000   0.0000000   0.0000000   0.0000000   0.0000000   0.0000000   0.0000000
 NMagM=    0.0000000   0.0000000   0.0000000   0.0000000   0.0000000   0.0000000   2.7928460   2.7928460   2.7928460   2.7928460
 AtZNuc=   6.0000000   6.0000000   6.0000000   6.0000000   6.0000000   6.0000000   1.0000000   1.0000000   1.0000000   1.0000000

  Atom        11          12
 IAtWgt=           1           1
 AtmWgt=   1.0078250   1.0078250
 NucSpn=           1           1
 AtZEff=  -0.0000000  -0.0000000
 NQMom=    0.0000000   0.0000000
 NMagM=    2.7928460   2.7928460
 AtZNuc=   1.0000000   1.0000000
 Leave Link  101 at Wed Apr 22 20:37:37 2020, MaxMem=  6710886400 cpu:               2.4 elap:               0.2
 (Enter /opt/ohpc/pub/libs/gaussian/g16-A.03/sandybridge/g16/l202.exe)
                          Input orientation:                          
 ---------------------------------------------------------------------
 Center     Atomic      Atomic             Coordinates (Angstroms)
 Number     Number       Type             X           Y           Z
 ---------------------------------------------------------------------
      1          6           0        0.000000    1.393160    0.000000
      2          6           0       -1.206512    0.696580    0.000000
      3          6           0       -1.206512   -0.696580    0.000000
      4          6           0        0.000000   -1.393160    0.000000
      5          6           0        1.206512   -0.696580    0.000000
      6          6           0        1.206512    0.696580    0.000000
      7          1           0        0.000000    2.482681    0.000000
      8          1           0       -2.150065    1.241340    0.000000
      9          1           0       -2.150065   -1.241340    0.000000
     10          1           0        0.000000   -2.482681    0.000000
     11          1           0        2.150065   -1.241340    0.000000
     12          1           0        2.150065    1.241340    0.000000
 ---------------------------------------------------------------------
                    Distance matrix (angstroms):
                    1          2          3          4          5
     1  C    0.000000
     2  C    1.393160   0.000000
     3  C    2.413024   1.393160   0.000000
     4  C    2.786320   2.413024   1.393160   0.000000
     5  C    2.413024   2.786320   2.413024   1.393160   0.000000
     6  C    1.393160   2.413024   2.786320   2.413024   1.393160
     7  H    1.089521   2.155418   3.400496   3.875841   3.400496
     8  H    2.155418   1.089521   2.155418   3.400496   3.875841
     9  H    3.400496   2.155418   1.089521   2.155418   3.400496
    10  H    3.875841   3.400496   2.155418   1.089521   2.155418
    11  H    3.400496   3.875841   3.400496   2.155418   1.089521
    12  H    2.155418   3.400496   3.875841   3.400496   2.155418
                    6          7          8          9         10
     6  C    0.000000
     7  H    2.155418   0.000000
     8  H    3.400496   2.482681   0.000000
     9  H    3.875841   4.300129   2.482680   0.000000
    10  H    3.400496   4.965362   4.300129   2.482681   0.000000
    11  H    2.155418   4.300129   4.965362   4.300130   2.482681
    12  H    1.089521   2.482681   4.300130   4.965362   4.300129
                   11         12
    11  H    0.000000
    12  H    2.482680   0.000000
 Stoichiometry    C6H6(1+,2)
 Framework group  D6H[3C2'(HC.CH)]
 Deg. of freedom     2
 Full point group                 D6H     NOp  24
 Largest Abelian subgroup         D2H     NOp   8
 Largest concise Abelian subgroup D2      NOp   4
                         Standard orientation:                         
 ---------------------------------------------------------------------
 Center     Atomic      Atomic             Coordinates (Angstroms)
 Number     Number       Type             X           Y           Z
 ---------------------------------------------------------------------
      1          6           0       -0.000000    1.393160   -0.000000
      2          6           0       -1.206512    0.696580   -0.000000
      3          6           0       -1.206512   -0.696580   -0.000000
      4          6           0       -0.000000   -1.393160   -0.000000
      5          6           0        1.206512   -0.696580   -0.000000
      6          6           0        1.206512    0.696580   -0.000000
      7          1           0        0.000000    2.482681   -0.000000
      8          1           0       -2.150065    1.241341   -0.000000
      9          1           0       -2.150065   -1.241340   -0.000000
     10          1           0       -0.000000   -2.482681   -0.000000
     11          1           0        2.150065   -1.241341   -0.000000
     12          1           0        2.150065    1.241340   -0.000000
 ---------------------------------------------------------------------
 Rotational constants (GHZ):           5.7099798           5.7099798           2.8549899
 Leave Link  202 at Wed Apr 22 20:37:37 2020, MaxMem=  6710886400 cpu:               1.0 elap:               0.1
 (Enter /opt/ohpc/pub/libs/gaussian/g16-A.03/sandybridge/g16/l301.exe)
 Standard basis: 6-31G (6D, 7F)
 Ernie: Thresh=  0.10000D-02 Tol=  0.10000D-05 Strict=F.
 There are    16 symmetry adapted cartesian basis functions of AG  symmetry.
 There are    11 symmetry adapted cartesian basis functions of B1G symmetry.
 There are     2 symmetry adapted cartesian basis functions of B2G symmetry.
 There are     4 symmetry adapted cartesian basis functions of B3G symmetry.
 There are     2 symmetry adapted cartesian basis functions of AU  symmetry.
 There are     4 symmetry adapted cartesian basis functions of B1U symmetry.
 There are    16 symmetry adapted cartesian basis functions of B2U symmetry.
 There are    11 symmetry adapted cartesian basis functions of B3U symmetry.
 There are    16 symmetry adapted basis functions of AG  symmetry.
 There are    11 symmetry adapted basis functions of B1G symmetry.
 There are     2 symmetry adapted basis functions of B2G symmetry.
 There are     4 symmetry adapted basis functions of B3G symmetry.
 There are     2 symmetry adapted basis functions of AU  symmetry.
 There are     4 symmetry adapted basis functions of B1U symmetry.
 There are    16 symmetry adapted basis functions of B2U symmetry.
 There are    11 symmetry adapted basis functions of B3U symmetry.
    66 basis functions,   156 primitive gaussians,    66 cartesian basis functions
    21 alpha electrons       20 beta electrons
       nuclear repulsion energy       203.5439980921 Hartrees.
 IExCor=33909 DFT=T Ex+Corr=LC-wHPBE ExCW=0 ScaHFX=  1.000000
 ScaDFX=  1.000000  1.000000  1.000000  1.000000 ScalE2=  1.000000  1.000000
 IRadAn=      5 IRanWt=     -1 IRanGd=            0 ICorTp=0 IEmpDi=  4
 HFx  wShort=  0.000000 wLong=  0.328100 cFull=  0.000000 cShort=  0.000000 cLong=  1.000000
 DFx  wShort=  0.000000 wLong=  0.328100 cFull=  0.000000 cShort=  1.000000 cLong=  0.000000
 NAtoms=   12 NActive=   12 NUniq=    2 SFac= 4.00D+00 NAtFMM=   60 NAOKFM=F Big=F
 Integral buffers will be    131072 words long.
 Raffenetti 2 integral format.
 Two-electron integral symmetry is turned on.
 Leave Link  301 at Wed Apr 22 20:37:37 2020, MaxMem=  6710886400 cpu:               1.0 elap:               0.2
 (Enter /opt/ohpc/pub/libs/gaussian/g16-A.03/sandybridge/g16/l302.exe)
 NPDir=0 NMtPBC=     1 NCelOv=     1 NCel=       1 NClECP=     1 NCelD=      1
         NCelK=      1 NCelE2=     1 NClLst=     1 CellRange=     0.0.
 One-electron integrals computed using PRISM.
 One-electron integral symmetry used in STVInt
 NBasis=    66 RedAO= T EigKep=  6.87D-04  NBF=    16    11     2     4     2     4    16    11
 NBsUse=    66 1.00D-06 EigRej= -1.00D+00 NBFU=    16    11     2     4     2     4    16    11
 Precomputing XC quadrature grid using
 IXCGrd= 4 IRadAn=           5 IRanWt=          -1 IRanGd=           0 AccXCQ= 0.00D+00.
 Generated NRdTot=       0 NPtTot=           0 NUsed=           0 NTot=          32
 NSgBfM=    66    66    66    66    66 MxSgAt=    12 MxSgA2=    12.
 Leave Link  302 at Wed Apr 22 20:37:37 2020, MaxMem=  6710886400 cpu:               2.3 elap:               0.2
 (Enter /opt/ohpc/pub/libs/gaussian/g16-A.03/sandybridge/g16/l303.exe)
 DipDrv:  MaxL=1.
 Leave Link  303 at Wed Apr 22 20:37:37 2020, MaxMem=  6710886400 cpu:               0.5 elap:               0.0
 (Enter /opt/ohpc/pub/libs/gaussian/g16-A.03/sandybridge/g16/l401.exe)
 ExpMin= 1.61D-01 ExpMax= 3.05D+03 ExpMxC= 4.57D+02 IAcc=3 IRadAn=         5 AccDes= 0.00D+00
 Harris functional with IExCor=33909 and IRadAn=       5 diagonalized for initial guess.
 HarFok:  IExCor=33909 AccDes= 0.00D+00 IRadAn=         5 IDoV= 1 UseB2=F ITyADJ=14
 ICtDFT=  3500011 ScaDFX=  1.000000  1.000000  1.000000  1.000000
 FoFCou: FMM=F IPFlag=           0 FMFlag=      100000 FMFlg1=           0
         NFxFlg=           0 DoJE=T BraDBF=F KetDBF=T FulRan=T
         wScrn=  0.000000 ICntrl=       500 IOpCl=  0 I1Cent=   200000004 NGrid=           0
         NMat0=    1 NMatS0=      1 NMatT0=    0 NMatD0=    1 NMtDS0=    0 NMtDT0=    0
 Petite list used in FoFCou.
 Harris En= -224.855795886493    
 JPrj=0 DoOrth=F DoCkMO=F.
 Initial guess orbital symmetries:
 Alpha Orbitals:
       Occupied  (A1G) (E1U) (E1U) (E2G) (E2G) (B1U) (A1G) (E1U)
                 (E1U) (E2G) (E2G) (A1G) (B2U) (B1U) (E1U) (E1U)
                 (A2U) (E2G) (E2G) (E1G) (E1G)
       Virtual   (E2U) (E2U) (A1G) (B2G) (E1U) (E1U) (E2G) (E2G)
                 (B1U) (E2G) (E2G) (E1U) (E1U) (B2U) (A2U) (B1U)
                 (A2G) (A1G) (E2G) (E2G) (E1G) (E1G) (A1G) (E1U)
                 (E1U) (E2U) (E2U) (B2G) (B1U) (E2G) (E2G) (E1U)
                 (E1U) (A2G) (A1G) (E1U) (E1U) (E2G) (E2G) (E1U)
                 (E1U) (B1U) (E2G) (E2G) (B1U)
 Beta  Orbitals:
       Occupied  (A1G) (E1U) (E1U) (E2G) (E2G) (B1U) (A1G) (E1U)
                 (E1U) (E2G) (E2G) (A1G) (B2U) (B1U) (E1U) (E1U)
                 (A2U) (E2G) (E2G) (E1G)
       Virtual   (E1G) (E2U) (E2U) (A1G) (B2G) (E1U) (E1U) (E2G)
                 (E2G) (B1U) (E2G) (E2G) (E1U) (E1U) (B2U) (A2U)
                 (B1U) (A2G) (A1G) (E2G) (E2G) (E1G) (E1G) (A1G)
                 (E1U) (E1U) (E2U) (E2U) (B2G) (B1U) (E2G) (E2G)
                 (E1U) (E1U) (A2G) (A1G) (E1U) (E1U) (E2G) (E2G)
                 (E1U) (E1U) (B1U) (E2G) (E2G) (B1U)
 Initial guess <Sx>= 0.0000 <Sy>= 0.0000 <Sz>= 0.5000 <S**2>= 0.7500 S= 0.5000
 Leave Link  401 at Wed Apr 22 20:37:37 2020, MaxMem=  6710886400 cpu:               2.8 elap:               0.2
 (Enter /opt/ohpc/pub/libs/gaussian/g16-A.03/sandybridge/g16/l502.exe)
 Keep R1 and R2 ints in memory in symmetry-blocked form, NReq=19109854.
 FoFCou: FMM=F IPFlag=           0 FMFlag=           0 FMFlg1=           0
         NFxFlg=           0 DoJE=F BraDBF=F KetDBF=F FulRan=T
         wScrn=  0.000000 ICntrl=       600 IOpCl=  0 I1Cent=           0 NGrid=           0
         NMat0=    1 NMatS0=   2211 NMatT0=    0 NMatD0=    1 NMtDS0=    0 NMtDT0=    0
 Petite list used in FoFCou.
 UHF open shell SCF:
 Using DIIS extrapolation, IDIIS=    10.
 NGot=  6710886400 LenX=  6710146038 LenY=  6710141241
 Requested convergence on RMS density matrix=1.00D-06 within  32 cycles.
 Requested convergence on MAX density matrix=1.00D-04.
 Requested convergence on             energy=1.00D-04.
 Virtual orbitals will be shifted by   0.500 hartree.
 No special actions if energy rises.
 Dynamic level shift is on during FON iterations.

 Cycle   1  Pass 1  IDiag  1:
 Density matrix breaks symmetry, PCut= 1.00D-04
 Density has only Abelian symmetry.
 E= -231.648013195079    
 DIIS: error= 1.69D-02 at cycle   1 NSaved=   1.
 NSaved= 1 IEnMin= 1 EnMin= -231.648013195079     IErMin= 1 ErrMin= 1.69D-02
 ErrMax= 1.69D-02  0.00D+00 EMaxC= 1.00D+00 BMatC= 6.88D-02 BMatP= 6.88D-02
 IDIUse=1 WtCom= 1.00D+00 WtEn= 0.00D+00
 Coeff-Com:  0.100D+01
 Coeff:      0.100D+01
 Gap=     0.390 Goal=   None    Shift=    0.500
 T= 1152. Gap= 0.891 NK=0 IS=   22 IE=   66 IFin=   21
          NO(<0.9)=   0  NV(>0.1)=   0     21.00e < EF      0.00e >EF  Err=0.0D+00
 Gap=     0.202 Goal=   None    Shift=    0.500
 T= 1152. Gap= 0.702 NK=0 IS=   21 IE=   66 IFin=   20
          NO(<0.9)=   0  NV(>0.1)=   0     20.00e < EF      0.00e >EF  Err=0.0D+00
 GapD=    0.202 DampG=1.000 DampE=0.500 DampFc=0.5000 IDamp=-1.
 Damping current iteration by 5.00D-01
 RMSDP=3.33D-03 MaxDP=2.84D-02              OVMax= 3.42D-02

 Cycle   2  Pass 1  IDiag  1:
 Density matrix breaks symmetry, PCut= 1.00D-04
 Density has only Abelian symmetry.
 E= -231.658974354351     Delta-E=       -0.010961159272 Rises=F Damp=T
 DIIS: error= 1.00D-02 at cycle   2 NSaved=   2.
 NSaved= 2 IEnMin= 2 EnMin= -231.658974354351     IErMin= 2 ErrMin= 1.00D-02
 ErrMax= 1.00D-02  0.00D+00 EMaxC= 1.00D+00 BMatC= 1.71D-02 BMatP= 6.88D-02
 IDIUse=1 WtCom= 1.00D+00 WtEn= 0.00D+00
 Coeff-Com: -0.839D+00 0.184D+01
 Coeff:     -0.839D+00 0.184D+01
 Gap=     0.408 Goal=   None    Shift=    0.500
 T= 1065. Gap= 0.908 NK=0 IS=   22 IE=   66 IFin=   21
          NO(<0.9)=   0  NV(>0.1)=   0     21.00e < EF      0.00e >EF  Err=0.0D+00
 Gap=     0.226 Goal=   None    Shift=    0.500
 T= 1065. Gap= 0.726 NK=0 IS=   21 IE=   66 IFin=   20
          NO(<0.9)=   0  NV(>0.1)=   0     20.00e < EF      0.00e >EF  Err=0.0D+00
 GapD=    0.226 DampG=1.000 DampE=0.500 DampFc=0.5000 IDamp=-1.
 Damping current iteration by 5.00D-01
 RMSDP=2.45D-03 MaxDP=1.61D-02 DE=-1.10D-02 OVMax= 1.75D-02

 Cycle   3  Pass 1  IDiag  1:
 Density matrix breaks symmetry, PCut= 1.00D-04
 Density has only Abelian symmetry.
 E= -231.663771383689     Delta-E=       -0.004797029338 Rises=F Damp=T
 DIIS: error= 7.19D-03 at cycle   3 NSaved=   3.
 NSaved= 3 IEnMin= 3 EnMin= -231.663771383689     IErMin= 3 ErrMin= 7.19D-03
 ErrMax= 7.19D-03  0.00D+00 EMaxC= 1.00D+00 BMatC= 5.17D-03 BMatP= 1.71D-02
 IDIUse=1 WtCom= 1.00D+00 WtEn= 0.00D+00
 Coeff-Com:  0.168D+00-0.160D+01 0.243D+01
 Coeff:      0.168D+00-0.160D+01 0.243D+01
 Gap=     0.403 Goal=   None    Shift=    0.500
 T=  914. Gap= 0.903 NK=0 IS=   22 IE=   66 IFin=   21
          NO(<0.9)=   0  NV(>0.1)=   0     21.00e < EF      0.00e >EF  Err=0.0D+00
 Gap=     0.226 Goal=   None    Shift=    0.500
 T=  914. Gap= 0.726 NK=0 IS=   21 IE=   66 IFin=   20
          NO(<0.9)=   0  NV(>0.1)=   0     20.00e < EF      0.00e >EF  Err=0.0D+00
 GapD=    0.226 DampG=1.000 DampE=1.000 DampFc=1.0000 IDamp=-1.
 RMSDP=1.61D-03 MaxDP=1.09D-02 DE=-4.80D-03 OVMax= 1.19D-02

 Cycle   4  Pass 1  IDiag  1:
 Density matrix breaks symmetry, PCut= 1.00D-04
 Density has only Abelian symmetry.
 E= -231.668946157927     Delta-E=       -0.005174774238 Rises=F Damp=F
 DIIS: error= 4.47D-03 at cycle   4 NSaved=   4.
 NSaved= 4 IEnMin= 4 EnMin= -231.668946157927     IErMin= 4 ErrMin= 4.47D-03
 ErrMax= 4.47D-03  0.00D+00 EMaxC= 1.00D+00 BMatC= 4.01D-04 BMatP= 5.17D-03
 IDIUse=1 WtCom= 1.00D+00 WtEn= 0.00D+00
 Coeff-Com:  0.127D+00 0.376D+00-0.132D+01 0.181D+01
 Coeff:      0.127D+00 0.376D+00-0.132D+01 0.181D+01
 Gap=     0.401 Goal=   None    Shift=    0.500
 T=  642. Gap= 0.901 NK=0 IS=   22 IE=   66 IFin=   21
          NO(<0.9)=   0  NV(>0.1)=   0     21.00e < EF      0.00e >EF  Err=0.0D+00
 Gap=     0.231 Goal=   None    Shift=    0.500
 T=  642. Gap= 0.731 NK=0 IS=   21 IE=   66 IFin=   20
          NO(<0.9)=   0  NV(>0.1)=   0     20.00e < EF      0.00e >EF  Err=0.0D+00
 GapD=    0.231 DampG=1.000 DampE=1.000 DampFc=1.0000 IDamp=-1.
 RMSDP=3.04D-04 MaxDP=3.79D-03 DE=-5.17D-03 OVMax= 1.23D-02

 Cycle   5  Pass 1  IDiag  1:
 Density matrix breaks symmetry, PCut= 1.00D-04
 Density has only Abelian symmetry.
 E= -231.669365061606     Delta-E=       -0.000418903678 Rises=F Damp=F
 DIIS: error= 2.76D-03 at cycle   5 NSaved=   5.
 NSaved= 5 IEnMin= 5 EnMin= -231.669365061606     IErMin= 5 ErrMin= 2.76D-03
 ErrMax= 2.76D-03  0.00D+00 EMaxC= 1.00D+00 BMatC= 1.66D-04 BMatP= 4.01D-04
 IDIUse=1 WtCom= 1.00D+00 WtEn= 0.00D+00
 Coeff-Com: -0.132D+00 0.825D+00-0.107D+01-0.998D+00 0.237D+01
 Coeff:     -0.132D+00 0.825D+00-0.107D+01-0.998D+00 0.237D+01
 Gap=     0.398 Goal=   None    Shift=    0.500
 T=  397. Gap= 0.898 NK=0 IS=   22 IE=   66 IFin=   21
          NO(<0.9)=   0  NV(>0.1)=   0     21.00e < EF      0.00e >EF  Err=0.0D+00
 Gap=     0.233 Goal=   None    Shift=    0.500
 T=  397. Gap= 0.733 NK=0 IS=   21 IE=   66 IFin=   20
          NO(<0.9)=   0  NV(>0.1)=   0     20.00e < EF      0.00e >EF  Err=0.0D+00
 GapD=    0.233 DampG=1.000 DampE=1.000 DampFc=1.0000 IDamp=-1.
 RMSDP=2.41D-04 MaxDP=3.72D-03 DE=-4.19D-04 OVMax= 1.08D-02

 Cycle   6  Pass 1  IDiag  1:
 Density matrix breaks symmetry, PCut= 1.00D-04
 Density has only Abelian symmetry.
 E= -231.669600113354     Delta-E=       -0.000235051749 Rises=F Damp=F
 DIIS: error= 1.50D-03 at cycle   6 NSaved=   6.
 NSaved= 6 IEnMin= 6 EnMin= -231.669600113354     IErMin= 6 ErrMin= 1.50D-03
 ErrMax= 1.50D-03  0.00D+00 EMaxC= 1.00D+00 BMatC= 4.68D-05 BMatP= 1.66D-04
 IDIUse=1 WtCom= 1.00D+00 WtEn= 0.00D+00
 Coeff-Com:  0.201D-01-0.221D+00 0.360D+00-0.643D-01-0.133D+01 0.223D+01
 Coeff:      0.201D-01-0.221D+00 0.360D+00-0.643D-01-0.133D+01 0.223D+01
 Gap=     0.397 Goal=   None    Shift=    0.500
 T=   96. Gap= 0.897 NK=0 IS=   22 IE=   66 IFin=   21
          NO(<0.9)=   0  NV(>0.1)=   0     21.00e < EF      0.00e >EF  Err=0.0D+00
 Gap=     0.234 Goal=   None    Shift=    0.500
 T=   96. Gap= 0.734 NK=0 IS=   21 IE=   66 IFin=   20
          NO(<0.9)=   0  NV(>0.1)=   0     20.00e < EF      0.00e >EF  Err=0.0D+00
 GapD=    0.234 DampG=1.000 DampE=1.000 DampFc=1.0000 IDamp=-1.
 RMSDP=1.31D-04 MaxDP=2.25D-03 DE=-2.35D-04 OVMax= 6.12D-03

 Cycle   7  Pass 1  IDiag  1:
 Density matrix breaks symmetry, PCut= 1.00D-04
 Density has only Abelian symmetry.
 E= -231.669669902225     Delta-E=       -0.000069788870 Rises=F Damp=F
 DIIS: error= 7.74D-04 at cycle   7 NSaved=   7.
 NSaved= 7 IEnMin= 7 EnMin= -231.669669902225     IErMin= 7 ErrMin= 7.74D-04
 ErrMax= 7.74D-04  0.00D+00 EMaxC= 1.00D+00 BMatC= 1.29D-05 BMatP= 4.68D-05
 IDIUse=1 WtCom= 1.00D+00 WtEn= 0.00D+00
 Coeff-Com: -0.237D-01 0.236D+00-0.374D+00-0.117D-01 0.146D+01-0.390D+01
 Coeff-Com:  0.362D+01
 Coeff:     -0.237D-01 0.236D+00-0.374D+00-0.117D-01 0.146D+01-0.390D+01
 Coeff:      0.362D+01
 Gap=     0.397 Goal=   None    Shift=    0.500
 Gap=     0.234 Goal=   None    Shift=    0.500
 RMSDP=6.78D-05 MaxDP=1.17D-03 DE=-6.98D-05 OVMax= 3.27D-03

 Cycle   8  Pass 1  IDiag  1:
 Density matrix breaks symmetry, PCut= 1.00D-04
 Density has only Abelian symmetry.
 E= -231.669688457199     Delta-E=       -0.000018554974 Rises=F Damp=F
 DIIS: error= 3.91D-04 at cycle   8 NSaved=   8.
 NSaved= 8 IEnMin= 8 EnMin= -231.669688457199     IErMin= 8 ErrMin= 3.91D-04
 ErrMax= 3.91D-04  0.00D+00 EMaxC= 1.00D+00 BMatC= 3.25D-06 BMatP= 1.29D-05
 IDIUse=1 WtCom= 1.00D+00 WtEn= 0.00D+00
 Coeff-Com:  0.515D-02-0.481D-01 0.784D-01-0.334D-01-0.400D+00 0.159D+01
 Coeff-Com: -0.314D+01 0.295D+01
 Coeff:      0.515D-02-0.481D-01 0.784D-01-0.334D-01-0.400D+00 0.159D+01
 Coeff:     -0.314D+01 0.295D+01
 Gap=     0.397 Goal=   None    Shift=    0.500
 Gap=     0.234 Goal=   None    Shift=    0.500
 RMSDP=3.23D-05 MaxDP=5.17D-04 DE=-1.86D-05 OVMax= 1.64D-03

 Cycle   9  Pass 1  IDiag  1:
 Density matrix breaks symmetry, PCut= 1.00D-04
 Density has only Abelian symmetry.
 E= -231.669692845608     Delta-E=       -0.000004388409 Rises=F Damp=F
 DIIS: error= 1.92D-04 at cycle   9 NSaved=   9.
 NSaved= 9 IEnMin= 9 EnMin= -231.669692845608     IErMin= 9 ErrMin= 1.92D-04
 ErrMax= 1.92D-04  0.00D+00 EMaxC= 1.00D+00 BMatC= 7.33D-07 BMatP= 3.25D-06
 IDIUse=1 WtCom= 1.00D+00 WtEn= 0.00D+00
 Coeff-Com: -0.406D-02 0.336D-01-0.518D-01 0.417D-02 0.269D+00-0.101D+01
 Coeff-Com:  0.205D+01-0.329D+01 0.300D+01
 Coeff:     -0.406D-02 0.336D-01-0.518D-01 0.417D-02 0.269D+00-0.101D+01
 Coeff:      0.205D+01-0.329D+01 0.300D+01
 Gap=     0.397 Goal=   None    Shift=    0.500
 Gap=     0.234 Goal=   None    Shift=    0.500
 RMSDP=1.49D-05 MaxDP=2.43D-04 DE=-4.39D-06 OVMax= 8.01D-04

 Cycle  10  Pass 1  IDiag  1:
 Density matrix breaks symmetry, PCut= 1.00D-04
 Density has only Abelian symmetry.
 E= -231.669693826715     Delta-E=       -0.000000981107 Rises=F Damp=F
 DIIS: error= 9.39D-05 at cycle  10 NSaved=  10.
 NSaved=10 IEnMin=10 EnMin= -231.669693826715     IErMin=10 ErrMin= 9.39D-05
 ErrMax= 9.39D-05  0.00D+00 EMaxC= 1.00D+00 BMatC= 1.59D-07 BMatP= 7.33D-07
 IDIUse=1 WtCom= 1.00D+00 WtEn= 0.00D+00
 Coeff-Com:  0.189D-02-0.145D-01 0.224D-01-0.930D-02-0.114D+00 0.493D+00
 Coeff-Com: -0.111D+01 0.195D+01-0.312D+01 0.289D+01
 Coeff:      0.189D-02-0.145D-01 0.224D-01-0.930D-02-0.114D+00 0.493D+00
 Coeff:     -0.111D+01 0.195D+01-0.312D+01 0.289D+01
 Gap=     0.397 Goal=   None    Shift=    0.500
 Gap=     0.234 Goal=   None    Shift=    0.500
 RMSDP=6.91D-06 MaxDP=1.13D-04 DE=-9.81D-07 OVMax= 3.83D-04

 Cycle  11  Pass 1  IDiag  1:
 Density matrix breaks symmetry, PCut= 1.00D-04
 Density has only Abelian symmetry.
 E= -231.669694038677     Delta-E=       -0.000000211962 Rises=F Damp=F
 DIIS: error= 4.57D-05 at cycle  11 NSaved=  11.
 NSaved=11 IEnMin=11 EnMin= -231.669694038677     IErMin=11 ErrMin= 4.57D-05
 ErrMax= 4.57D-05  0.00D+00 EMaxC= 1.00D+00 BMatC= 3.41D-08 BMatP= 1.59D-07
 IDIUse=1 WtCom= 1.00D+00 WtEn= 0.00D+00
 Coeff-Com: -0.935D-03 0.674D-02-0.101D-01 0.283D-02 0.497D-01-0.213D+00
 Coeff-Com:  0.485D+00-0.932D+00 0.168D+01-0.287D+01 0.280D+01
 Coeff:     -0.935D-03 0.674D-02-0.101D-01 0.283D-02 0.497D-01-0.213D+00
 Coeff:      0.485D+00-0.932D+00 0.168D+01-0.287D+01 0.280D+01
 Gap=     0.397 Goal=   None    Shift=    0.500
 Gap=     0.234 Goal=   None    Shift=    0.500
 RMSDP=3.17D-06 MaxDP=5.19D-05 DE=-2.12D-07 OVMax= 1.83D-04

 Cycle  12  Pass 1  IDiag  1:
 Density matrix breaks symmetry, PCut= 1.00D-04
 Density has only Abelian symmetry.
 E= -231.669694084184     Delta-E=       -0.000000045507 Rises=F Damp=F
 DIIS: error= 2.25D-05 at cycle  12 NSaved=  12.
 NSaved=12 IEnMin=12 EnMin= -231.669694084184     IErMin=12 ErrMin= 2.25D-05
 ErrMax= 2.25D-05  0.00D+00 EMaxC= 1.00D+00 BMatC= 7.47D-09 BMatP= 3.41D-08
 IDIUse=1 WtCom= 1.00D+00 WtEn= 0.00D+00
 Coeff-Com: -0.533D-04 0.658D-03-0.104D-02-0.110D-02 0.890D-02-0.252D-01
 Coeff-Com:  0.464D-01-0.611D-01-0.722D-02 0.533D+00-0.217D+01 0.268D+01
 Coeff:     -0.533D-04 0.658D-03-0.104D-02-0.110D-02 0.890D-02-0.252D-01
 Coeff:      0.464D-01-0.611D-01-0.722D-02 0.533D+00-0.217D+01 0.268D+01
 Gap=     0.397 Goal=   None    Shift=    0.500
 Gap=     0.234 Goal=   None    Shift=    0.500
 RMSDP=1.45D-06 MaxDP=2.37D-05 DE=-4.55D-08 OVMax= 8.84D-05

 Cycle  13  Pass 1  IDiag  1:
 Density matrix breaks symmetry, PCut= 1.00D-04
 Density has only Abelian symmetry.
 E= -231.669694094053     Delta-E=       -0.000000009869 Rises=F Damp=F
 DIIS: error= 1.09D-05 at cycle  13 NSaved=  13.
 NSaved=13 IEnMin=13 EnMin= -231.669694094053     IErMin=13 ErrMin= 1.09D-05
 ErrMax= 1.09D-05  0.00D+00 EMaxC= 1.00D+00 BMatC= 1.63D-09 BMatP= 7.47D-09
 IDIUse=1 WtCom= 1.00D+00 WtEn= 0.00D+00
 Coeff-Com:  0.889D-04-0.789D-03 0.121D-02 0.721D-04-0.659D-02 0.218D-01
 Coeff-Com: -0.413D-01 0.609D-01-0.559D-01-0.138D+00 0.102D+01-0.286D+01
 Coeff-Com:  0.300D+01
 Coeff:      0.889D-04-0.789D-03 0.121D-02 0.721D-04-0.659D-02 0.218D-01
 Coeff:     -0.413D-01 0.609D-01-0.559D-01-0.138D+00 0.102D+01-0.286D+01
 Coeff:      0.300D+01
 Gap=     0.397 Goal=   None    Shift=    0.500
 Gap=     0.234 Goal=   None    Shift=    0.500
 RMSDP=6.58D-07 MaxDP=1.09D-05 DE=-9.87D-09 OVMax= 4.24D-05

 Density matrix breaks symmetry, PCut= 1.00D-04
 Density has only Abelian symmetry.
 SCF Done:  E(ULC-wHPBE) =  -231.669694094     A.U. after   13 cycles
            NFock= 13  Conv=0.66D-06     -V/T= 2.0047
 <Sx>= 0.0000 <Sy>= 0.0000 <Sz>= 0.5000 <S**2>= 0.7779 S= 0.5138
 <L.S>= 0.000000000000E+00
 KE= 2.305886312688D+02 PE=-9.348878933462D+02 EE= 2.690855698913D+02
 Annihilation of the first spin contaminant:
 S**2 before annihilation     0.7779,   after     0.7504
 Leave Link  502 at Wed Apr 22 20:37:39 2020, MaxMem=  6710886400 cpu:              19.7 elap:               1.3
 (Enter /opt/ohpc/pub/libs/gaussian/g16-A.03/sandybridge/g16/l508.exe)
 QCSCF skips out because SCF is already converged.
 Leave Link  508 at Wed Apr 22 20:37:39 2020, MaxMem=  6710886400 cpu:               0.2 elap:               0.0
 (Enter /opt/ohpc/pub/libs/gaussian/g16-A.03/sandybridge/g16/l601.exe)
 Copying SCF densities to generalized density rwf, IOpCl= 1 IROHF=0.
 SCF density gives NOpUse=  8 NOpAll= 24.
 Marking SCF density as not fully symmetric.

 **********************************************************************

            Population analysis using the SCF density.

 **********************************************************************

 Orbital symmetries:
 Alpha Orbitals:
       Occupied  (?A) (?A) (?A) (?A) (?A) (?A) (?B) (?B) (?B) (?B)
                 (?B) (?B) (?B) (?B) (?B) (?B) (?C) (?B) (?B) (?C)
                 (?C)
       Virtual   (?C) (?C) (?B) (?C) (?B) (?B) (?B) (?B) (?B) (?B)
                 (?B) (?B) (?B) (?B) (?C) (?B) (?B) (?B) (?C) (?C)
                 (?B) (?B) (?B) (?C) (?B) (?B) (?C) (?C) (?B) (?B)
                 (?B) (?B) (?B) (?B) (?B) (?B) (?B) (?B) (?B) (?B)
                 (?B) (?B) (?B) (?B) (?B)
 Beta  Orbitals:
       Occupied  (?A) (?A) (?A) (?A) (?A) (?A) (?B) (B2G) (B2G)
                 (?B) (?B) (?B) (B2G) (B2G) (B2G) (B2G) (?C) (?B)
                 (?B) (?D)
       Virtual   (?D) (?C) (?C) (?D) (?D) (B2G) (B2G) (?D) (?D)
                 (B2G) (?D) (?D) (B2G) (B2G) (B2G) (?C) (B2G) (?D)
                 (?D) (?D) (?D) (?D) (?D) (?D) (B2G) (B2G) (?C)
                 (?C) (?D) (B2G) (?A) (?A) (B2G) (B2G) (?A) (?D)
                 (B2G) (B2G) (?D) (?D) (B2G) (B2G) (B2G) (E2G)
                 (E2G) (B1U)
 Unable to determine electronic state:  an orbital has unidentified symmetry.
 Alpha  occ. eigenvalues --  -10.34017 -10.34014 -10.33990 -10.33985 -10.30160
 Alpha  occ. eigenvalues --  -10.30156  -1.22454  -1.11845  -1.09158  -0.94857
 Alpha  occ. eigenvalues --   -0.94851  -0.86455  -0.79538  -0.78368  -0.76479
 Alpha  occ. eigenvalues --   -0.74356  -0.73374  -0.66856  -0.66541  -0.61565
 Alpha  occ. eigenvalues --   -0.57457
 Alpha virt. eigenvalues --   -0.17759  -0.14179  -0.00608   0.02118   0.04574
 Alpha virt. eigenvalues --    0.05716   0.08139   0.09240   0.10682   0.18215
 Alpha virt. eigenvalues --    0.18709   0.19502   0.20077   0.38184   0.39073
 Alpha virt. eigenvalues --    0.41613   0.43922   0.44389   0.47192   0.49486
 Alpha virt. eigenvalues --    0.49790   0.50320   0.53107   0.53656   0.54252
 Alpha virt. eigenvalues --    0.54723   0.55712   0.62943   0.73027   0.74342
 Alpha virt. eigenvalues --    0.75760   0.78702   0.80422   0.86113   0.86524
 Alpha virt. eigenvalues --    0.88665   0.88693   1.00665   1.02280   1.06669
 Alpha virt. eigenvalues --    1.07640   1.11968   1.34161   1.34424   1.79591
  Beta  occ. eigenvalues --  -10.33543 -10.33543 -10.33522 -10.33517 -10.30367
  Beta  occ. eigenvalues --  -10.30363  -1.21278  -1.09479  -1.08965  -0.94314
  Beta  occ. eigenvalues --   -0.93882  -0.86147  -0.79064  -0.77918  -0.75930
  Beta  occ. eigenvalues --   -0.74376  -0.68205  -0.66638  -0.66252  -0.57356
  Beta virt. eigenvalues --   -0.33907  -0.12317  -0.12236  -0.00415   0.04451
  Beta virt. eigenvalues --    0.04846   0.05768   0.08936   0.09381   0.10991
  Beta virt. eigenvalues --    0.18827   0.18907   0.19988   0.20443   0.38527
  Beta virt. eigenvalues --    0.40639   0.42688   0.44377   0.44753   0.49845
  Beta virt. eigenvalues --    0.49875   0.50479   0.50897   0.53430   0.55000
  Beta virt. eigenvalues --    0.55476   0.55798   0.56039   0.63895   0.73340
  Beta virt. eigenvalues --    0.74707   0.75843   0.79351   0.80434   0.86342
  Beta virt. eigenvalues --    0.86754   0.88954   0.89664   1.01982   1.02567
  Beta virt. eigenvalues --    1.07541   1.07743   1.12459   1.34682   1.35226
  Beta virt. eigenvalues --    1.80348
          Condensed to atoms (all electrons):
               1          2          3          4          5          6
     1  C    4.914192   0.521745  -0.063841  -0.022561  -0.063841   0.521745
     2  C    0.521745   4.966370   0.412124  -0.063841  -0.023434  -0.049735
     3  C   -0.063841   0.412124   4.966370   0.521745  -0.049735  -0.023434
     4  C   -0.022561  -0.063841   0.521745   4.914192   0.521745  -0.063841
     5  C   -0.063841  -0.023434  -0.049735   0.521745   4.966370   0.412124
     6  C    0.521745  -0.049735  -0.023434  -0.063841   0.412124   4.966370
     7  H    0.371614  -0.023788   0.003190   0.000064   0.003190  -0.023788
     8  H   -0.020016   0.365833  -0.027964   0.002931   0.000061   0.003101
     9  H    0.002931  -0.027964   0.365833  -0.020016   0.003101   0.000061
    10  H    0.000064   0.003190  -0.023788   0.371614  -0.023788   0.003190
    11  H    0.002931   0.000061   0.003101  -0.020016   0.365833  -0.027964
    12  H   -0.020016   0.003101   0.000061   0.002931  -0.027964   0.365833
               7          8          9         10         11         12
     1  C    0.371614  -0.020016   0.002931   0.000064   0.002931  -0.020016
     2  C   -0.023788   0.365833  -0.027964   0.003190   0.000061   0.003101
     3  C    0.003190  -0.027964   0.365833  -0.023788   0.003101   0.000061
     4  C    0.000064   0.002931  -0.020016   0.371614  -0.020016   0.002931
     5  C    0.003190   0.000061   0.003101  -0.023788   0.365833  -0.027964
     6  C   -0.023788   0.003101   0.000061   0.003190  -0.027964   0.365833
     7  H    0.414694  -0.002514  -0.000070   0.000002  -0.000070  -0.002514
     8  H   -0.002514   0.404771  -0.002214  -0.000070   0.000004  -0.000066
     9  H   -0.000070  -0.002214   0.404771  -0.002514  -0.000066   0.000004
    10  H    0.000002  -0.000070  -0.002514   0.414694  -0.002514  -0.000070
    11  H   -0.000070   0.000004  -0.000066  -0.002514   0.404771  -0.002214
    12  H   -0.002514  -0.000066   0.000004  -0.000070  -0.002214   0.404771
          Atomic-Atomic Spin Densities.
               1          2          3          4          5          6
     1  C   -0.188818  -0.006903  -0.007719   0.005983  -0.007719  -0.006903
     2  C   -0.006903   0.358653   0.040607  -0.007719  -0.007240  -0.006009
     3  C   -0.007719   0.040607   0.358653  -0.006903  -0.006009  -0.007240
     4  C    0.005983  -0.007719  -0.006903  -0.188818  -0.006903  -0.007719
     5  C   -0.007719  -0.007240  -0.006009  -0.006903   0.358653   0.040607
     6  C   -0.006903  -0.006009  -0.007240  -0.007719   0.040607   0.358653
     7  H    0.001535  -0.000919   0.000146  -0.000050   0.000146  -0.000919
     8  H    0.000069   0.000291  -0.001802  -0.000011  -0.000054   0.000083
     9  H   -0.000011  -0.001802   0.000291   0.000069   0.000083  -0.000054
    10  H   -0.000050   0.000146  -0.000919   0.001535  -0.000919   0.000146
    11  H   -0.000011  -0.000054   0.000083   0.000069   0.000291  -0.001802
    12  H    0.000069   0.000083  -0.000054  -0.000011  -0.001802   0.000291
               7          8          9         10         11         12
     1  C    0.001535   0.000069  -0.000011  -0.000050  -0.000011   0.000069
     2  C   -0.000919   0.000291  -0.001802   0.000146  -0.000054   0.000083
     3  C    0.000146  -0.001802   0.000291  -0.000919   0.000083  -0.000054
     4  C   -0.000050  -0.000011   0.000069   0.001535   0.000069  -0.000011
     5  C    0.000146  -0.000054   0.000083  -0.000919   0.000291  -0.001802
     6  C   -0.000919   0.000083  -0.000054   0.000146  -0.001802   0.000291
     7  H    0.005285  -0.000004   0.000004  -0.000001   0.000004  -0.000004
     8  H   -0.000004  -0.015036  -0.000050   0.000004  -0.000000   0.000005
     9  H    0.000004  -0.000050  -0.015036  -0.000004   0.000005  -0.000000
    10  H   -0.000001   0.000004  -0.000004   0.005285  -0.000004   0.000004
    11  H    0.000004  -0.000000   0.000005  -0.000004  -0.015036  -0.000050
    12  H   -0.000004   0.000005  -0.000000   0.000004  -0.000050  -0.015036
 Mulliken charges and spin densities:
               1          2
     1  C   -0.144949  -0.210478
     2  C   -0.083662   0.369133
     3  C   -0.083662   0.369133
     4  C   -0.144949  -0.210478
     5  C   -0.083662   0.369133
     6  C   -0.083662   0.369133
     7  H    0.259989   0.005223
     8  H    0.276142  -0.016506
     9  H    0.276142  -0.016506
    10  H    0.259989   0.005223
    11  H    0.276142  -0.016506
    12  H    0.276142  -0.016506
 Sum of Mulliken charges =   1.00000   1.00000
 Mulliken charges and spin densities with hydrogens summed into heavy atoms:
               1          2
     1  C    0.115040  -0.205255
     2  C    0.192480   0.352627
     3  C    0.192480   0.352627
     4  C    0.115040  -0.205255
     5  C    0.192480   0.352627
     6  C    0.192480   0.352627
 Electronic spatial extent (au):  <R**2>=            437.1263
 Charge=              1.0000 electrons
 Dipole moment (field-independent basis, Debye):
    X=             -0.0000    Y=              0.0000    Z=             -0.0000  Tot=              0.0000
 Quadrupole moment (field-independent basis, Debye-Ang):
   XX=            -17.9780   YY=            -21.6966   ZZ=            -35.0316
   XY=             -0.0000   XZ=              0.0000   YZ=              0.0000
 Traceless Quadrupole moment (field-independent basis, Debye-Ang):
   XX=              6.9241   YY=              3.2055   ZZ=            -10.1296
   XY=             -0.0000   XZ=              0.0000   YZ=              0.0000
 Octapole moment (field-independent basis, Debye-Ang**2):
  XXX=              0.0000  YYY=              0.0000  ZZZ=              0.0000  XYY=             -0.0000
  XXY=             -0.0000  XXZ=              0.0000  XZZ=             -0.0000  YZZ=              0.0000
  YYZ=              0.0000  XYZ=              0.0000
 Hexadecapole moment (field-independent basis, Debye-Ang**3):
 XXXX=           -195.3287 YYYY=           -209.9128 ZZZZ=            -34.1663 XXXY=              0.0000
 XXXZ=              0.0000 YYYX=              0.0000 YYYZ=              0.0000 ZZZX=             -0.0000
 ZZZY=             -0.0000 XXYY=            -65.9944 XXZZ=            -51.9725 YYZZ=            -55.3226
 XXYZ=              0.0000 YYXZ=              0.0000 ZZXY=              0.0000
 N-N= 2.035439980921D+02 E-N=-9.348878951684D+02  KE= 2.305886312688D+02
 Symmetry AG   KE= 7.451866160366D+01
 Symmetry B1G  KE= 3.776582881680D+01
 Symmetry B2G  KE= 1.196729424620D+00
 Symmetry B3G  KE= 2.340214348806D+00
 Symmetry AU   KE=-6.012249545249D-17
 Symmetry B1U  KE= 1.957071711758D+00
 Symmetry B2U  KE= 7.219951627536D+01
 Symmetry B3U  KE= 4.061060908775D+01
 Symmetry AG   SP=-7.721376164317D-15
 Symmetry B1G  SP=-6.524567737758D-16
 Symmetry B2G  SP= 1.000000000000D+00
 Symmetry B3G  SP=-4.900051718548D-16
 Symmetry AU   SP=-3.436801311687D-18
 Symmetry B1U  SP=-3.109762881232D-16
 Symmetry B2U  SP= 2.775801507052D-15
 Symmetry B3U  SP=-1.794544330844D-15
                          Isotropic Fermi Contact Couplings
        Atom                 a.u.       MegaHertz       Gauss      10(-4) cm-1
     1  C(13)             -0.03235     -36.36921     -12.97744     -12.13146
     2  C(13)              0.04364      49.05862      17.50533      16.36419
     3  C(13)              0.04364      49.05862      17.50533      16.36419
     4  C(13)             -0.03235     -36.36921     -12.97744     -12.13146
     5  C(13)              0.04364      49.05862      17.50533      16.36419
     6  C(13)              0.04364      49.05862      17.50533      16.36419
     7  H(1)               0.00205       9.15434       3.26650       3.05356
     8  H(1)              -0.00645     -28.82851     -10.28673      -9.61616
     9  H(1)              -0.00645     -28.82851     -10.28673      -9.61616
    10  H(1)               0.00205       9.15434       3.26650       3.05356
    11  H(1)              -0.00645     -28.82851     -10.28673      -9.61616
    12  H(1)              -0.00645     -28.82851     -10.28673      -9.61616
 --------------------------------------------------------
       Center         ----  Spin Dipole Couplings  ----
                      3XX-RR        3YY-RR        3ZZ-RR
 --------------------------------------------------------
     1   Atom        0.072276      0.064481     -0.136757
     2   Atom       -0.188721     -0.181401      0.370122
     3   Atom       -0.188721     -0.181401      0.370122
     4   Atom        0.072276      0.064481     -0.136757
     5   Atom       -0.188721     -0.181401      0.370122
     6   Atom       -0.188721     -0.181401      0.370122
     7   Atom        0.006699     -0.001084     -0.005615
     8   Atom        0.011249     -0.003677     -0.007572
     9   Atom        0.011249     -0.003677     -0.007572
    10   Atom        0.006699     -0.001084     -0.005615
    11   Atom        0.011249     -0.003677     -0.007572
    12   Atom        0.011249     -0.003677     -0.007572
 --------------------------------------------------------
                        XY            XZ            YZ
 --------------------------------------------------------
     1   Atom        0.000000      0.000000      0.000000
     2   Atom       -0.004918     -0.000000     -0.000000
     3   Atom        0.004918     -0.000000      0.000000
     4   Atom       -0.000000      0.000000     -0.000000
     5   Atom       -0.004918      0.000000      0.000000
     6   Atom        0.004918      0.000000     -0.000000
     7   Atom        0.000000      0.000000     -0.000000
     8   Atom       -0.028570     -0.000000      0.000000
     9   Atom        0.028570     -0.000000     -0.000000
    10   Atom       -0.000000     -0.000000      0.000000
    11   Atom       -0.028570      0.000000     -0.000000
    12   Atom        0.028570      0.000000      0.000000
 --------------------------------------------------------


 ---------------------------------------------------------------------------------
              Anisotropic Spin Dipole Couplings in Principal Axis System
 ---------------------------------------------------------------------------------

       Atom             a.u.   MegaHertz   Gauss  10(-4) cm-1        Axes

              Baa    -0.1368   -18.351    -6.548    -6.121  0.0000  0.0000  1.0000
     1 C(13)  Bbb     0.0645     8.653     3.087     2.886 -0.0000  1.0000 -0.0000
              Bcc     0.0723     9.699     3.461     3.235  1.0000  0.0000 -0.0000
 
              Baa    -0.1912   -25.656    -9.155    -8.558  0.8936  0.4489 -0.0000
     2 C(13)  Bbb    -0.1789   -24.011    -8.568    -8.009 -0.4489  0.8936 -0.0000
              Bcc     0.3701    49.667    17.722    16.567  0.0000  0.0000  1.0000
 
              Baa    -0.1912   -25.656    -9.155    -8.558  0.8936 -0.4489  0.0000
     3 C(13)  Bbb    -0.1789   -24.011    -8.568    -8.009  0.4489  0.8936 -0.0000
              Bcc     0.3701    49.667    17.722    16.567  0.0000  0.0000  1.0000
 
              Baa    -0.1368   -18.351    -6.548    -6.121  0.0000  0.0000  1.0000
     4 C(13)  Bbb     0.0645     8.653     3.087     2.886  0.0000  1.0000  0.0000
              Bcc     0.0723     9.699     3.461     3.235  1.0000 -0.0000  0.0000
 
              Baa    -0.1912   -25.656    -9.155    -8.558  0.8936  0.4489 -0.0000
     5 C(13)  Bbb    -0.1789   -24.011    -8.568    -8.009 -0.4489  0.8936 -0.0000
              Bcc     0.3701    49.667    17.722    16.567  0.0000  0.0000  1.0000
 
              Baa    -0.1912   -25.656    -9.155    -8.558  0.8936 -0.4489  0.0000
     6 C(13)  Bbb    -0.1789   -24.011    -8.568    -8.009  0.4489  0.8936 -0.0000
              Bcc     0.3701    49.667    17.722    16.567  0.0000  0.0000  1.0000
 
              Baa    -0.0056    -2.996    -1.069    -0.999  0.0000  0.0000  1.0000
     7 H(1)   Bbb    -0.0011    -0.578    -0.206    -0.193 -0.0000  1.0000 -0.0000
              Bcc     0.0067     3.574     1.275     1.192  1.0000  0.0000 -0.0000
 
              Baa    -0.0257   -13.735    -4.901    -4.581  0.6113  0.7914  0.0000
     8 H(1)   Bbb    -0.0076    -4.040    -1.442    -1.348  0.0000  0.0000  1.0000
              Bcc     0.0333    17.775     6.343     5.929  0.7914 -0.6113  0.0000
 
              Baa    -0.0257   -13.735    -4.901    -4.581 -0.6113  0.7914  0.0000
     9 H(1)   Bbb    -0.0076    -4.040    -1.442    -1.348  0.0000  0.0000  1.0000
              Bcc     0.0333    17.775     6.343     5.929  0.7914  0.6113 -0.0000
 
              Baa    -0.0056    -2.996    -1.069    -0.999  0.0000  0.0000  1.0000
    10 H(1)   Bbb    -0.0011    -0.578    -0.206    -0.193  0.0000  1.0000  0.0000
              Bcc     0.0067     3.574     1.275     1.192  1.0000 -0.0000  0.0000
 
              Baa    -0.0257   -13.735    -4.901    -4.581  0.6113  0.7914  0.0000
    11 H(1)   Bbb    -0.0076    -4.040    -1.442    -1.348  0.0000  0.0000  1.0000
              Bcc     0.0333    17.775     6.343     5.929  0.7914 -0.6113  0.0000
 
              Baa    -0.0257   -13.735    -4.901    -4.581 -0.6113  0.7914  0.0000
    12 H(1)   Bbb    -0.0076    -4.040    -1.442    -1.348  0.0000  0.0000  1.0000
              Bcc     0.0333    17.775     6.343     5.929  0.7914  0.6113 -0.0000
 

 ---------------------------------------------------------------------------------

 No NMR shielding tensors so no spin-rotation constants.
 Leave Link  601 at Wed Apr 22 20:37:39 2020, MaxMem=  6710886400 cpu:               4.3 elap:               0.3
 (Enter /opt/ohpc/pub/libs/gaussian/g16-A.03/sandybridge/g16/l9999.exe)

 Test job not archived.
 1\1\GINC-CNODE130\SP\ULC-wHPBE\6-31G\C6H6(1+,2)\QAI222\22-Apr-2020\0\\
 #P uLC-wHPBE/6-31G iop(3/107=0328100000, 3/108=0328100000) scf=(conver
 =6,fermi,ndamp=35,noincfock,novaracc,vshift=500,xqc)\\H6 C6\\1,2\C,0,0
 .,1.39316,0.\C,0,-1.206512,0.69658,0.\C,0,-1.206512,-0.69658,0.\C,0,0.
 ,-1.39316,0.\C,0,1.206512,-0.69658,0.\C,0,1.206512,0.69658,0.\H,0,0.,2
 .482681,0.\H,0,-2.150065,1.24134,0.\H,0,-2.150065,-1.24134,0.\H,0,0.,-
 2.482681,0.\H,0,2.150065,-1.24134,0.\H,0,2.150065,1.24134,0.\\Version=
 EM64L-G16RevA.03\HF=-231.6696941\S2=0.777888\S2-1=0.\S2A=0.750372\RMSD
 =6.578e-07\Dipole=0.,0.,0.\Quadrupole=5.1478801,2.3832104,-7.5310905,0
 .,0.,0.\PG=D06H [3C2'(H1C1.C1H1)]\\@


 KNOWLEDGE IS CHIMERA - FOR BEYOND IT LIES OTHER KNOWLEDGE,
 AND THE INCOMPLETENESS OF WHAT IS KNOWN RENDERS THE KNOWING FALSE.
     -- THE THOMAS COVENANT CHRONICLES
 Job cpu time:       0 days  0 hours  0 minutes 43.4 seconds.
 Elapsed time:       0 days  0 hours  0 minutes  3.1 seconds.
 File lengths (MBytes):  RWF=    272 Int=      0 D2E=      0 Chk=     32 Scr=     32
 Normal termination of Gaussian 16 at Wed Apr 22 20:37:39 2020.
