 Entering Gaussian System, Link 0=g16
 Input=1b_tune_n7.gjf
 Output=1b_tune_n7.log
 Initial command:
 /opt/ohpc/pub/libs/gaussian/g16-A.03/haswell/g16/l1.exe "/scratch/smgo234/Ocelot/test/1b/tuning_1b_ocycle0/Gau-34926.inp" -scrdir="/scratch/smgo234/Ocelot/test/1b/tuning_1b_ocycle0/"
 Entering Link 1 = /opt/ohpc/pub/libs/gaussian/g16-A.03/haswell/g16/l1.exe PID=     34927.
  
 Copyright (c) 1988,1990,1992,1993,1995,1998,2003,2009,2016,
            Gaussian, Inc.  All Rights Reserved.
  
 This is part of the Gaussian(R) 16 program.  It is based on
 the Gaussian(R) 09 system (copyright 2009, Gaussian, Inc.),
 the Gaussian(R) 03 system (copyright 2003, Gaussian, Inc.),
 the Gaussian(R) 98 system (copyright 1998, Gaussian, Inc.),
 the Gaussian(R) 94 system (copyright 1995, Gaussian, Inc.),
 the Gaussian 92(TM) system (copyright 1992, Gaussian, Inc.),
 the Gaussian 90(TM) system (copyright 1990, Gaussian, Inc.),
 the Gaussian 88(TM) system (copyright 1988, Gaussian, Inc.),
 the Gaussian 86(TM) system (copyright 1986, Carnegie Mellon
 University), and the Gaussian 82(TM) system (copyright 1983,
 Carnegie Mellon University). Gaussian is a federally registered
 trademark of Gaussian, Inc.
  
 This software contains proprietary and confidential information,
 including trade secrets, belonging to Gaussian, Inc.
  
 This software is provided under written license and may be
 used, copied, transmitted, or stored only in accord with that
 written license.
  
 The following legend is applicable only to US Government
 contracts under FAR:
  
                    RESTRICTED RIGHTS LEGEND
  
 Use, reproduction and disclosure by the US Government is
 subject to restrictions as set forth in subparagraphs (a)
 and (c) of the Commercial Computer Software - Restricted
 Rights clause in FAR 52.227-19.
  
 Gaussian, Inc.
 340 Quinnipiac St., Bldg. 40, Wallingford CT 06492
  
  
 ---------------------------------------------------------------
 Warning -- This program may not be used in any manner that
 competes with the business of Gaussian, Inc. or will provide
 assistance to any competitor of Gaussian, Inc.  The licensee
 of this program is prohibited from giving any competitor of
 Gaussian, Inc. access to this program.  By using this program,
 the user acknowledges that Gaussian, Inc. is engaged in the
 business of creating and licensing software in the field of
 computational chemistry and represents and warrants to the
 licensee that it is not a competitor of Gaussian, Inc. and that
 it will not use this program in any manner prohibited above.
 ---------------------------------------------------------------
  

 Cite this work as:
 Gaussian 16, Revision A.03,
 M. J. Frisch, G. W. Trucks, H. B. Schlegel, G. E. Scuseria, 
 M. A. Robb, J. R. Cheeseman, G. Scalmani, V. Barone, 
 G. A. Petersson, H. Nakatsuji, X. Li, M. Caricato, A. V. Marenich, 
 J. Bloino, B. G. Janesko, R. Gomperts, B. Mennucci, H. P. Hratchian, 
 J. V. Ortiz, A. F. Izmaylov, J. L. Sonnenberg, D. Williams-Young, 
 F. Ding, F. Lipparini, F. Egidi, J. Goings, B. Peng, A. Petrone, 
 T. Henderson, D. Ranasinghe, V. G. Zakrzewski, J. Gao, N. Rega, 
 G. Zheng, W. Liang, M. Hada, M. Ehara, K. Toyota, R. Fukuda, 
 J. Hasegawa, M. Ishida, T. Nakajima, Y. Honda, O. Kitao, H. Nakai, 
 T. Vreven, K. Throssell, J. A. Montgomery, Jr., J. E. Peralta, 
 F. Ogliaro, M. J. Bearpark, J. J. Heyd, E. N. Brothers, K. N. Kudin, 
 V. N. Staroverov, T. A. Keith, R. Kobayashi, J. Normand, 
 K. Raghavachari, A. P. Rendell, J. C. Burant, S. S. Iyengar, 
 J. Tomasi, M. Cossi, J. M. Millam, M. Klene, C. Adamo, R. Cammi, 
 J. W. Ochterski, R. L. Martin, K. Morokuma, O. Farkas, 
 J. B. Foresman, and D. J. Fox, Gaussian, Inc., Wallingford CT, 2016.
 
 ******************************************
 Gaussian 16:  ES64L-G16RevA.03 25-Dec-2016
                25-Feb-2020 
 ******************************************
 %mem=50GB
 %nproc=16
 Will use up to   16 processors via shared memory.
 ----------------------------------------------------------------------
 #P uLC-wHPBE/6-31G iop(3/107=0268500000, 3/108=0268500000) scf=(conver
 =6,fermi,ndamp=35,noincfock,novaracc,vshift=500,xqc)
 ----------------------------------------------------------------------
 1/38=1,172=1/1;
 2/12=2,17=6,18=5,40=1/2;
 3/5=1,6=6,11=2,25=1,30=1,74=-71,107=268500000,108=268500000,116=2/1,2,3;
 4//1;
 5/5=100002,6=6,8=3,10=500,13=1,18=-1,22=13,38=1,93=35/2,8;
 6/7=2,8=2,9=2,10=2,28=1/1;
 99/5=1,9=1/99;
 Leave Link    1 at Tue Feb 25 12:20:17 2020, MaxMem=  6710886400 cpu:               9.0 elap:               0.6
 (Enter /opt/ohpc/pub/libs/gaussian/g16-A.03/haswell/g16/l101.exe)
 -----
 H6 C5
 -----
 Symbolic Z-matrix:
 Charge =  0 Multiplicity = 1
 C                    -1.20651   0.69658   0. 
 C                    -1.20651  -0.69658   0. 
 C                     0.       -1.39316   0. 
 C                     1.20651  -0.69658   0. 
 C                     1.20651   0.69658   0. 
 H                     0.        2.48268   0. 
 H                    -2.15007   1.24134   0. 
 H                    -2.15007  -1.24134   0. 
 H                     0.       -2.48268   0. 
 H                     2.15007  -1.24134   0. 
 H                     2.15007   1.24134   0. 
 
 ITRead=  0  0  0  0  0  0  0  0  0  0  0
 MicOpt= -1 -1 -1 -1 -1 -1 -1 -1 -1 -1 -1
 NAtoms=     11 NQM=       11 NQMF=       0 NMMI=      0 NMMIF=      0
                NMic=       0 NMicF=      0.
                    Isotopes and Nuclear Properties:
 (Nuclear quadrupole moments (NQMom) in fm**2, nuclear magnetic moments (NMagM)
  in nuclear magnetons)

  Atom         1           2           3           4           5           6           7           8           9          10
 IAtWgt=          12          12          12          12          12           1           1           1           1           1
 AtmWgt=  12.0000000  12.0000000  12.0000000  12.0000000  12.0000000   1.0078250   1.0078250   1.0078250   1.0078250   1.0078250
 NucSpn=           0           0           0           0           0           1           1           1           1           1
 AtZEff=  -0.0000000  -0.0000000  -0.0000000  -0.0000000  -0.0000000  -0.0000000  -0.0000000  -0.0000000  -0.0000000  -0.0000000
 NQMom=    0.0000000   0.0000000   0.0000000   0.0000000   0.0000000   0.0000000   0.0000000   0.0000000   0.0000000   0.0000000
 NMagM=    0.0000000   0.0000000   0.0000000   0.0000000   0.0000000   2.7928460   2.7928460   2.7928460   2.7928460   2.7928460
 AtZNuc=   6.0000000   6.0000000   6.0000000   6.0000000   6.0000000   1.0000000   1.0000000   1.0000000   1.0000000   1.0000000

  Atom        11
 IAtWgt=           1
 AtmWgt=   1.0078250
 NucSpn=           1
 AtZEff=  -0.0000000
 NQMom=    0.0000000
 NMagM=    2.7928460
 AtZNuc=   1.0000000
 Leave Link  101 at Tue Feb 25 12:20:17 2020, MaxMem=  6710886400 cpu:               2.8 elap:               0.2
 (Enter /opt/ohpc/pub/libs/gaussian/g16-A.03/haswell/g16/l202.exe)
                          Input orientation:                          
 ---------------------------------------------------------------------
 Center     Atomic      Atomic             Coordinates (Angstroms)
 Number     Number       Type             X           Y           Z
 ---------------------------------------------------------------------
      1          6           0       -1.206512    0.696580    0.000000
      2          6           0       -1.206512   -0.696580    0.000000
      3          6           0        0.000000   -1.393160    0.000000
      4          6           0        1.206512   -0.696580    0.000000
      5          6           0        1.206512    0.696580    0.000000
      6          1           0        0.000000    2.482681    0.000000
      7          1           0       -2.150065    1.241340    0.000000
      8          1           0       -2.150065   -1.241340    0.000000
      9          1           0        0.000000   -2.482681    0.000000
     10          1           0        2.150065   -1.241340    0.000000
     11          1           0        2.150065    1.241340    0.000000
 ---------------------------------------------------------------------
                    Distance matrix (angstroms):
                    1          2          3          4          5
     1  C    0.000000
     2  C    1.393160   0.000000
     3  C    2.413024   1.393160   0.000000
     4  C    2.786320   2.413024   1.393160   0.000000
     5  C    2.413024   2.786320   2.413024   1.393160   0.000000
     6  H    2.155418   3.400496   3.875841   3.400496   2.155418
     7  H    1.089521   2.155418   3.400496   3.875841   3.400496
     8  H    2.155418   1.089521   2.155418   3.400496   3.875841
     9  H    3.400496   2.155418   1.089521   2.155418   3.400496
    10  H    3.875841   3.400496   2.155418   1.089521   2.155418
    11  H    3.400496   3.875841   3.400496   2.155418   1.089521
                    6          7          8          9         10
     6  H    0.000000
     7  H    2.482681   0.000000
     8  H    4.300129   2.482680   0.000000
     9  H    4.965362   4.300129   2.482681   0.000000
    10  H    4.300129   4.965362   4.300130   2.482681   0.000000
    11  H    2.482681   4.300130   4.965362   4.300129   2.482680
                   11
    11  H    0.000000
 Stoichiometry    C5H6
 Framework group  C2V[C2(HCH),SGV(C4H4)]
 Deg. of freedom    10
 Full point group                 C2V     NOp   4
 Largest Abelian subgroup         C2V     NOp   4
 Largest concise Abelian subgroup C2      NOp   2
                         Standard orientation:                         
 ---------------------------------------------------------------------
 Center     Atomic      Atomic             Coordinates (Angstroms)
 Number     Number       Type             X           Y           Z
 ---------------------------------------------------------------------
      1          6           0       -0.000000    1.206512   -0.928773
      2          6           0       -0.000000    1.206512    0.464387
      3          6           0        0.000000    0.000000    1.160967
      4          6           0       -0.000000   -1.206512    0.464387
      5          6           0       -0.000000   -1.206512   -0.928773
      6          1           0       -0.000000   -0.000000   -2.714874
      7          1           0       -0.000000    2.150065   -1.473533
      8          1           0       -0.000000    2.150065    1.009147
      9          1           0        0.000000    0.000000    2.250488
     10          1           0       -0.000000   -2.150065    1.009147
     11          1           0       -0.000000   -2.150065   -1.473533
 ---------------------------------------------------------------------
 Rotational constants (GHZ):           8.2868568           5.7099792           3.3806054
 Leave Link  202 at Tue Feb 25 12:20:17 2020, MaxMem=  6710886400 cpu:               0.2 elap:               0.0
 (Enter /opt/ohpc/pub/libs/gaussian/g16-A.03/haswell/g16/l301.exe)
 Standard basis: 6-31G (6D, 7F)
 Ernie: Thresh=  0.10000D-02 Tol=  0.10000D-05 Strict=F.
 There are    27 symmetry adapted cartesian basis functions of A1  symmetry.
 There are     4 symmetry adapted cartesian basis functions of A2  symmetry.
 There are     6 symmetry adapted cartesian basis functions of B1  symmetry.
 There are    20 symmetry adapted cartesian basis functions of B2  symmetry.
 There are    27 symmetry adapted basis functions of A1  symmetry.
 There are     4 symmetry adapted basis functions of A2  symmetry.
 There are     6 symmetry adapted basis functions of B1  symmetry.
 There are    20 symmetry adapted basis functions of B2  symmetry.
    57 basis functions,   134 primitive gaussians,    57 cartesian basis functions
    18 alpha electrons       18 beta electrons
       nuclear repulsion energy       145.0218997931 Hartrees.
 IExCor=33909 DFT=T Ex+Corr=LC-wHPBE ExCW=0 ScaHFX=  1.000000
 ScaDFX=  1.000000  1.000000  1.000000  1.000000 ScalE2=  1.000000  1.000000
 IRadAn=      5 IRanWt=     -1 IRanGd=            0 ICorTp=0 IEmpDi=  4
 HFx  wShort=  0.000000 wLong=  0.268500 cFull=  0.000000 cShort=  0.000000 cLong=  1.000000
 DFx  wShort=  0.000000 wLong=  0.268500 cFull=  0.000000 cShort=  1.000000 cLong=  0.000000
 NAtoms=   11 NActive=   11 NUniq=    7 SFac= 2.47D+00 NAtFMM=   60 NAOKFM=F Big=F
 Integral buffers will be    131072 words long.
 Raffenetti 2 integral format.
 Two-electron integral symmetry is turned on.
 Leave Link  301 at Tue Feb 25 12:20:17 2020, MaxMem=  6710886400 cpu:               1.0 elap:               0.1
 (Enter /opt/ohpc/pub/libs/gaussian/g16-A.03/haswell/g16/l302.exe)
 NPDir=0 NMtPBC=     1 NCelOv=     1 NCel=       1 NClECP=     1 NCelD=      1
         NCelK=      1 NCelE2=     1 NClLst=     1 CellRange=     0.0.
 One-electron integrals computed using PRISM.
 One-electron integral symmetry used in STVInt
 NBasis=    57 RedAO= T EigKep=  2.88D-03  NBF=    27     4     6    20
 NBsUse=    57 1.00D-06 EigRej= -1.00D+00 NBFU=    27     4     6    20
 Precomputing XC quadrature grid using
 IXCGrd= 4 IRadAn=           5 IRanWt=          -1 IRanGd=           0 AccXCQ= 0.00D+00.
 Generated NRdTot=       0 NPtTot=           0 NUsed=           0 NTot=          32
 NSgBfM=    57    57    57    57    57 MxSgAt=    11 MxSgA2=    11.
 Leave Link  302 at Tue Feb 25 12:20:17 2020, MaxMem=  6710886400 cpu:               2.8 elap:               0.2
 (Enter /opt/ohpc/pub/libs/gaussian/g16-A.03/haswell/g16/l303.exe)
 DipDrv:  MaxL=1.
 Leave Link  303 at Tue Feb 25 12:20:17 2020, MaxMem=  6710886400 cpu:               0.5 elap:               0.1
 (Enter /opt/ohpc/pub/libs/gaussian/g16-A.03/haswell/g16/l401.exe)
 ExpMin= 1.61D-01 ExpMax= 3.05D+03 ExpMxC= 4.57D+02 IAcc=3 IRadAn=         5 AccDes= 0.00D+00
 Harris functional with IExCor=33909 and IRadAn=       5 diagonalized for initial guess.
 HarFok:  IExCor=33909 AccDes= 0.00D+00 IRadAn=         5 IDoV= 1 UseB2=F ITyADJ=14
 ICtDFT=  3500011 ScaDFX=  1.000000  1.000000  1.000000  1.000000
 FoFCou: FMM=F IPFlag=           0 FMFlag=      100000 FMFlg1=           0
         NFxFlg=           0 DoJE=T BraDBF=F KetDBF=T FulRan=T
         wScrn=  0.000000 ICntrl=       500 IOpCl=  0 I1Cent=   200000004 NGrid=           0
         NMat0=    1 NMatS0=      1 NMatT0=    0 NMatD0=    1 NMtDS0=    0 NMtDT0=    0
 Petite list used in FoFCou.
 Harris En= -188.627670383398    
 JPrj=0 DoOrth=F DoCkMO=F.
 Initial guess orbital symmetries:
 Alpha Orbitals:
       Occupied  (A1) (B2) (A1) (B2) (A1) (A1) (B2) (A1) (B2) (A1)
                 (A1) (B2) (B2) (A1) (B1) (A1) (A2) (B1)
       Virtual   (B2) (A1) (A2) (B1) (A1) (B2) (A1) (B2) (A1) (A1)
                 (B2) (A1) (B2) (B1) (B2) (A1) (B1) (A1) (A2) (B2)
                 (A1) (A2) (B1) (B2) (A1) (A1) (B2) (A1) (B2) (A1)
                 (A1) (B2) (A1) (A1) (B2) (B2) (A1) (A1) (B2)
 Beta  Orbitals:
       Occupied  (A1) (B2) (A1) (B2) (A1) (A1) (B2) (A1) (B2) (A1)
                 (A1) (B2) (B2) (A1) (B1) (A1) (A2) (B1)
       Virtual   (B2) (A1) (A2) (B1) (A1) (B2) (A1) (B2) (A1) (A1)
                 (B2) (A1) (B2) (B1) (B2) (A1) (B1) (A1) (A2) (B2)
                 (A1) (A2) (B1) (B2) (A1) (A1) (B2) (A1) (B2) (A1)
                 (A1) (B2) (A1) (A1) (B2) (B2) (A1) (A1) (B2)
 The electronic state of the initial guess is 1-A1.
 Initial guess <Sx>= 0.0000 <Sy>= 0.0000 <Sz>= 0.0000 <S**2>=-0.0000 S=-0.0000
 Leave Link  401 at Tue Feb 25 12:20:18 2020, MaxMem=  6710886400 cpu:               4.4 elap:               0.3
 (Enter /opt/ohpc/pub/libs/gaussian/g16-A.03/haswell/g16/l502.exe)
 Keep R1 and R2 ints in memory in symmetry-blocked form, NReq=16815659.
 FoFCou: FMM=F IPFlag=           0 FMFlag=           0 FMFlg1=           0
         NFxFlg=           0 DoJE=F BraDBF=F KetDBF=F FulRan=T
         wScrn=  0.000000 ICntrl=       600 IOpCl=  0 I1Cent=           0 NGrid=           0
         NMat0=    1 NMatS0=   1653 NMatT0=    0 NMatD0=    1 NMtDS0=    0 NMtDT0=    0
 Petite list used in FoFCou.
 UHF open shell SCF:
 Using DIIS extrapolation, IDIIS=    10.
 NGot=  6710886400 LenX=  6710059583 LenY=  6710055893
 Requested convergence on RMS density matrix=1.00D-06 within  32 cycles.
 Requested convergence on MAX density matrix=1.00D-04.
 Requested convergence on             energy=1.00D-04.
 Virtual orbitals will be shifted by   0.500 hartree.
 No special actions if energy rises.
 Dynamic level shift is on during FON iterations.

 Cycle   1  Pass 1  IDiag  1:
 E= -193.357027794811    
 DIIS: error= 4.79D-02 at cycle   1 NSaved=   1.
 NSaved= 1 IEnMin= 1 EnMin= -193.357027794811     IErMin= 1 ErrMin= 4.79D-02
 ErrMax= 4.79D-02  0.00D+00 EMaxC= 1.00D+00 BMatC= 4.82D-01 BMatP= 4.82D-01
 IDIUse=1 WtCom= 1.00D+00 WtEn= 0.00D+00
 Coeff-Com:  0.100D+01
 Coeff:      0.100D+01
 Gap=     0.041 Goal=   None    Shift=    0.500
 T= 1777. Gap= 0.490 NK=0 IS=   19 IE=   57 IFin=   18
          NO(<0.9)=   0  NV(>0.1)=   0     18.00e < EF      0.00e >EF  Err=0.0D+00
 Gap=     0.041 Goal=   None    Shift=    0.500
 T= 1777. Gap= 0.490 NK=0 IS=   19 IE=   57 IFin=   18
          NO(<0.9)=   0  NV(>0.1)=   0     18.00e < EF      0.00e >EF  Err=0.0D+00
 GapD=    0.041 DampG=0.250 DampE=0.500 DampFc=0.1250 IDamp=-1.
 Damping current iteration by 1.25D-01
 RMSDP=2.25D-02 MaxDP=4.93D-01              OVMax= 1.43D-01

 Cycle   2  Pass 1  IDiag  1:
 E= -193.390647138147     Delta-E=       -0.033619343336 Rises=F Damp=T
 DIIS: error= 3.38D-02 at cycle   2 NSaved=   2.
 NSaved= 2 IEnMin= 2 EnMin= -193.390647138147     IErMin= 2 ErrMin= 3.38D-02
 ErrMax= 3.38D-02  0.00D+00 EMaxC= 1.00D+00 BMatC= 2.73D-01 BMatP= 4.82D-01
 IDIUse=1 WtCom= 1.00D+00 WtEn= 0.00D+00
 Coeff-Com: -0.276D+01 0.376D+01
 Coeff:     -0.276D+01 0.376D+01
 Gap=     0.003 Goal=   None    Shift=    0.500
 T= 1715. Gap= 0.515 NK=0 IS=   19 IE=   57 IFin=   18
          NO(<0.9)=   0  NV(>0.1)=   0     18.00e < EF      0.00e >EF  Err=0.0D+00
 Gap=     0.003 Goal=   None    Shift=    0.500
 T= 1715. Gap= 0.515 NK=0 IS=   19 IE=   57 IFin=   18
          NO(<0.9)=   0  NV(>0.1)=   0     18.00e < EF      0.00e >EF  Err=0.0D+00
 GapD=    0.003 DampG=0.250 DampE=0.500 DampFc=0.1250 IDamp=-1.
 Damping current iteration by 1.25D-01
 RMSDP=8.01D-03 MaxDP=5.48D-02 DE=-3.36D-02 OVMax= 1.15D-01

 Cycle   3  Pass 1  IDiag  1:
 E= -193.412416434646     Delta-E=       -0.021769296499 Rises=F Damp=T
 DIIS: error= 2.96D-02 at cycle   3 NSaved=   3.
 NSaved= 3 IEnMin= 3 EnMin= -193.412416434646     IErMin= 3 ErrMin= 2.96D-02
 ErrMax= 2.96D-02  0.00D+00 EMaxC= 1.00D+00 BMatC= 2.04D-01 BMatP= 2.73D-01
 IDIUse=1 WtCom= 1.00D+00 WtEn= 0.00D+00
 Coeff-Com: -0.120D+01-0.220D+01 0.440D+01
 Coeff:     -0.120D+01-0.220D+01 0.440D+01
 Gap=     0.103 Goal=   None    Shift=    0.500
 T= 1623. Gap= 0.604 NK=0 IS=   19 IE=   57 IFin=   18
          NO(<0.9)=   0  NV(>0.1)=   0     18.00e < EF      0.00e >EF  Err=0.0D+00
 Gap=     0.103 Goal=   None    Shift=    0.500
 T= 1623. Gap= 0.604 NK=0 IS=   19 IE=   57 IFin=   18
          NO(<0.9)=   0  NV(>0.1)=   0     18.00e < EF      0.00e >EF  Err=0.0D+00
 GapD=    0.103 DampG=1.000 DampE=0.500 DampFc=0.5000 IDamp=-1.
 Damping current iteration by 5.00D-01
 RMSDP=6.47D-03 MaxDP=4.12D-02 DE=-2.18D-02 OVMax= 3.69D-02

 Cycle   4  Pass 1  IDiag  1:
 E= -193.481347537707     Delta-E=       -0.068931103061 Rises=F Damp=T
 DIIS: error= 1.74D-02 at cycle   4 NSaved=   4.
 NSaved= 4 IEnMin= 4 EnMin= -193.481347537707     IErMin= 4 ErrMin= 1.74D-02
 ErrMax= 1.74D-02  0.00D+00 EMaxC= 1.00D+00 BMatC= 5.91D-02 BMatP= 2.04D-01
 IDIUse=1 WtCom= 1.00D+00 WtEn= 0.00D+00
 Coeff-Com: -0.628D+00 0.482D+01-0.621D+01 0.302D+01
 Coeff:     -0.628D+00 0.482D+01-0.621D+01 0.302D+01
 Gap=     0.138 Goal=   None    Shift=    0.500
 T= 1431. Gap= 0.638 NK=0 IS=   19 IE=   57 IFin=   18
          NO(<0.9)=   0  NV(>0.1)=   0     18.00e < EF      0.00e >EF  Err=0.0D+00
 Gap=     0.138 Goal=   None    Shift=    0.500
 T= 1431. Gap= 0.638 NK=0 IS=   19 IE=   57 IFin=   18
          NO(<0.9)=   0  NV(>0.1)=   0     18.00e < EF      0.00e >EF  Err=0.0D+00
 GapD=    0.138 DampG=1.000 DampE=0.500 DampFc=0.5000 IDamp=-1.
 Damping current iteration by 5.00D-01
 RMSDP=3.55D-03 MaxDP=2.59D-02 DE=-6.89D-02 OVMax= 7.77D-03

 Cycle   5  Pass 1  IDiag  1:
 E= -193.514572561591     Delta-E=       -0.033225023883 Rises=F Damp=T
 DIIS: error= 1.09D-02 at cycle   5 NSaved=   5.
 NSaved= 5 IEnMin= 5 EnMin= -193.514572561591     IErMin= 5 ErrMin= 1.09D-02
 ErrMax= 1.09D-02  0.00D+00 EMaxC= 1.00D+00 BMatC= 2.01D-02 BMatP= 5.91D-02
 IDIUse=1 WtCom= 1.00D+00 WtEn= 0.00D+00
 Coeff-Com: -0.267D+00-0.455D+00 0.207D+01-0.447D+01 0.412D+01
 Coeff:     -0.267D+00-0.455D+00 0.207D+01-0.447D+01 0.412D+01
 Gap=     0.155 Goal=   None    Shift=    0.500
 T= 1231. Gap= 0.655 NK=0 IS=   19 IE=   57 IFin=   18
          NO(<0.9)=   0  NV(>0.1)=   0     18.00e < EF      0.00e >EF  Err=0.0D+00
 Gap=     0.155 Goal=   None    Shift=    0.500
 T= 1231. Gap= 0.655 NK=0 IS=   19 IE=   57 IFin=   18
          NO(<0.9)=   0  NV(>0.1)=   0     18.00e < EF      0.00e >EF  Err=0.0D+00
 GapD=    0.155 DampG=1.000 DampE=0.500 DampFc=0.5000 IDamp=-1.
 Damping current iteration by 5.00D-01
 RMSDP=2.15D-03 MaxDP=1.67D-02 DE=-3.32D-02 OVMax= 7.62D-03

 Cycle   6  Pass 1  IDiag  1:
 E= -193.531385305610     Delta-E=       -0.016812744019 Rises=F Damp=T
 DIIS: error= 7.00D-03 at cycle   6 NSaved=   6.
 NSaved= 6 IEnMin= 6 EnMin= -193.531385305610     IErMin= 6 ErrMin= 7.00D-03
 ErrMax= 7.00D-03  0.00D+00 EMaxC= 1.00D+00 BMatC= 7.16D-03 BMatP= 2.01D-02
 IDIUse=1 WtCom= 1.00D+00 WtEn= 0.00D+00
 Coeff-Com: -0.998D-01-0.122D+01 0.223D+01-0.139D+01-0.146D+01 0.294D+01
 Coeff:     -0.998D-01-0.122D+01 0.223D+01-0.139D+01-0.146D+01 0.294D+01
 Gap=     0.162 Goal=   None    Shift=    0.500
 T=  935. Gap= 0.662 NK=0 IS=   19 IE=   57 IFin=   18
          NO(<0.9)=   0  NV(>0.1)=   0     18.00e < EF      0.00e >EF  Err=0.0D+00
 Gap=     0.162 Goal=   None    Shift=    0.500
 T=  935. Gap= 0.662 NK=0 IS=   19 IE=   57 IFin=   18
          NO(<0.9)=   0  NV(>0.1)=   0     18.00e < EF      0.00e >EF  Err=0.0D+00
 GapD=    0.162 DampG=1.000 DampE=1.000 DampFc=1.0000 IDamp=-1.
 RMSDP=1.32D-03 MaxDP=1.03D-02 DE=-1.68D-02 OVMax= 5.36D-03

 Cycle   7  Pass 1  IDiag  1:
 E= -193.548339587034     Delta-E=       -0.016954281425 Rises=F Damp=F
 DIIS: error= 1.97D-03 at cycle   7 NSaved=   7.
 NSaved= 7 IEnMin= 7 EnMin= -193.548339587034     IErMin= 7 ErrMin= 1.97D-03
 ErrMax= 1.97D-03  0.00D+00 EMaxC= 1.00D+00 BMatC= 3.33D-04 BMatP= 7.16D-03
 IDIUse=1 WtCom= 1.00D+00 WtEn= 0.00D+00
 Coeff-Com: -0.307D-01 0.110D+01-0.184D+01 0.123D+01 0.308D+01-0.615D+01
 Coeff-Com:  0.361D+01
 Coeff:     -0.307D-01 0.110D+01-0.184D+01 0.123D+01 0.308D+01-0.615D+01
 Coeff:      0.361D+01
 Gap=     0.168 Goal=   None    Shift=    0.500
 T=  589. Gap= 0.668 NK=0 IS=   19 IE=   57 IFin=   18
          NO(<0.9)=   0  NV(>0.1)=   0     18.00e < EF      0.00e >EF  Err=0.0D+00
 Gap=     0.168 Goal=   None    Shift=    0.500
 T=  589. Gap= 0.668 NK=0 IS=   19 IE=   57 IFin=   18
          NO(<0.9)=   0  NV(>0.1)=   0     18.00e < EF      0.00e >EF  Err=0.0D+00
 GapD=    0.168 DampG=1.000 DampE=1.000 DampFc=1.0000 IDamp=-1.
 RMSDP=1.63D-04 MaxDP=2.06D-03 DE=-1.70D-02 OVMax= 4.07D-03

 Cycle   8  Pass 1  IDiag  1:
 E= -193.548512150101     Delta-E=       -0.000172563067 Rises=F Damp=F
 DIIS: error= 1.30D-03 at cycle   8 NSaved=   8.
 NSaved= 8 IEnMin= 8 EnMin= -193.548512150101     IErMin= 8 ErrMin= 1.30D-03
 ErrMax= 1.30D-03  0.00D+00 EMaxC= 1.00D+00 BMatC= 1.11D-04 BMatP= 3.33D-04
 IDIUse=1 WtCom= 1.00D+00 WtEn= 0.00D+00
 Coeff-Com: -0.206D-01 0.450D+00-0.722D+00 0.288D+00 0.182D+01-0.292D+01
 Coeff-Com:  0.589D+00 0.152D+01
 Coeff:     -0.206D-01 0.450D+00-0.722D+00 0.288D+00 0.182D+01-0.292D+01
 Coeff:      0.589D+00 0.152D+01
 Gap=     0.168 Goal=   None    Shift=    0.500
 T=  193. Gap= 0.668 NK=0 IS=   19 IE=   57 IFin=   18
          NO(<0.9)=   0  NV(>0.1)=   0     18.00e < EF      0.00e >EF  Err=0.0D+00
 Gap=     0.168 Goal=   None    Shift=    0.500
 T=  193. Gap= 0.668 NK=0 IS=   19 IE=   57 IFin=   18
          NO(<0.9)=   0  NV(>0.1)=   0     18.00e < EF      0.00e >EF  Err=0.0D+00
 GapD=    0.168 DampG=1.000 DampE=1.000 DampFc=1.0000 IDamp=-1.
 RMSDP=8.64D-05 MaxDP=1.36D-03 DE=-1.73D-04 OVMax= 2.66D-03

 Cycle   9  Pass 1  IDiag  1:
 E= -193.548570935809     Delta-E=       -0.000058785707 Rises=F Damp=F
 DIIS: error= 8.53D-04 at cycle   9 NSaved=   9.
 NSaved= 9 IEnMin= 9 EnMin= -193.548570935809     IErMin= 9 ErrMin= 8.53D-04
 ErrMax= 8.53D-04  0.00D+00 EMaxC= 1.00D+00 BMatC= 4.07D-05 BMatP= 1.11D-04
 IDIUse=1 WtCom= 1.00D+00 WtEn= 0.00D+00
 Coeff-Com: -0.925D-02 0.907D-01-0.974D-01-0.706D-01 0.378D+00-0.443D+00
 Coeff-Com:  0.788D+00-0.284D+01 0.320D+01
 Coeff:     -0.925D-02 0.907D-01-0.974D-01-0.706D-01 0.378D+00-0.443D+00
 Coeff:      0.788D+00-0.284D+01 0.320D+01
 Gap=     0.169 Goal=   None    Shift=    0.500
 Gap=     0.169 Goal=   None    Shift=    0.500
 RMSDP=5.41D-05 MaxDP=8.61D-04 DE=-5.88D-05 OVMax= 1.83D-03

 Cycle  10  Pass 1  IDiag  1:
 E= -193.548593208576     Delta-E=       -0.000022272767 Rises=F Damp=F
 DIIS: error= 5.32D-04 at cycle  10 NSaved=  10.
 NSaved=10 IEnMin=10 EnMin= -193.548593208576     IErMin=10 ErrMin= 5.32D-04
 ErrMax= 5.32D-04  0.00D+00 EMaxC= 1.00D+00 BMatC= 1.43D-05 BMatP= 4.07D-05
 IDIUse=1 WtCom= 1.00D+00 WtEn= 0.00D+00
 Coeff-Com: -0.601D-02 0.238D-01-0.205D-01-0.141D-01 0.774D-01-0.902D-01
 Coeff-Com:  0.400D+00-0.104D+01-0.469D+00 0.213D+01
 Coeff:     -0.601D-02 0.238D-01-0.205D-01-0.141D-01 0.774D-01-0.902D-01
 Coeff:      0.400D+00-0.104D+01-0.469D+00 0.213D+01
 Gap=     0.169 Goal=   None    Shift=    0.500
 Gap=     0.169 Goal=   None    Shift=    0.500
 RMSDP=3.13D-05 MaxDP=5.07D-04 DE=-2.23D-05 OVMax= 1.10D-03

 Cycle  11  Pass 1  IDiag  1:
 E= -193.548600829296     Delta-E=       -0.000007620720 Rises=F Damp=F
 DIIS: error= 3.43D-04 at cycle  11 NSaved=  11.
 NSaved=11 IEnMin=11 EnMin= -193.548600829296     IErMin=11 ErrMin= 3.43D-04
 ErrMax= 3.43D-04  0.00D+00 EMaxC= 1.00D+00 BMatC= 5.22D-06 BMatP= 1.43D-05
 IDIUse=1 WtCom= 1.00D+00 WtEn= 0.00D+00
 Coeff-Com: -0.450D-02 0.352D-01-0.470D-01 0.119D-01 0.125D+00-0.195D+00
 Coeff-Com:  0.211D+00 0.426D-01-0.114D+01 0.436D+00 0.152D+01
 Coeff:     -0.450D-02 0.352D-01-0.470D-01 0.119D-01 0.125D+00-0.195D+00
 Coeff:      0.211D+00 0.426D-01-0.114D+01 0.436D+00 0.152D+01
 Gap=     0.169 Goal=   None    Shift=    0.500
 Gap=     0.169 Goal=   None    Shift=    0.500
 RMSDP=1.77D-05 MaxDP=3.10D-04 DE=-7.62D-06 OVMax= 6.98D-04

 Cycle  12  Pass 1  IDiag  1:
 E= -193.548603546938     Delta-E=       -0.000002717643 Rises=F Damp=F
 DIIS: error= 2.19D-04 at cycle  12 NSaved=  12.
 NSaved=12 IEnMin=12 EnMin= -193.548603546938     IErMin=12 ErrMin= 2.19D-04
 ErrMax= 2.19D-04  0.00D+00 EMaxC= 1.00D+00 BMatC= 2.05D-06 BMatP= 5.22D-06
 IDIUse=1 WtCom= 1.00D+00 WtEn= 0.00D+00
 Coeff-Com: -0.172D-02-0.314D-02 0.141D-01-0.291D-01 0.267D-01-0.394D-02
 Coeff-Com: -0.611D-01 0.262D-01 0.875D+00-0.153D+01-0.147D+01 0.316D+01
 Coeff:     -0.172D-02-0.314D-02 0.141D-01-0.291D-01 0.267D-01-0.394D-02
 Coeff:     -0.611D-01 0.262D-01 0.875D+00-0.153D+01-0.147D+01 0.316D+01
 Gap=     0.169 Goal=   None    Shift=    0.500
 Gap=     0.169 Goal=   None    Shift=    0.500
 RMSDP=1.17D-05 MaxDP=2.06D-04 DE=-2.72D-06 OVMax= 4.79D-04

 Cycle  13  Pass 1  IDiag  1:
 E= -193.548604650271     Delta-E=       -0.000001103333 Rises=F Damp=F
 DIIS: error= 1.33D-04 at cycle  13 NSaved=  13.
 NSaved=13 IEnMin=13 EnMin= -193.548604650271     IErMin=13 ErrMin= 1.33D-04
 ErrMax= 1.33D-04  0.00D+00 EMaxC= 1.00D+00 BMatC= 7.25D-07 BMatP= 2.05D-06
 IDIUse=1 WtCom= 1.00D+00 WtEn= 0.00D+00
 Coeff-Com: -0.685D-03 0.370D-02-0.295D-02-0.388D-02 0.575D-02 0.123D-02
 Coeff-Com:  0.742D-01-0.215D+00-0.713D-01 0.438D+00 0.742D+00-0.352D+01
 Coeff-Com:  0.355D+01
 Coeff:     -0.685D-03 0.370D-02-0.295D-02-0.388D-02 0.575D-02 0.123D-02
 Coeff:      0.742D-01-0.215D+00-0.713D-01 0.438D+00 0.742D+00-0.352D+01
 Coeff:      0.355D+01
 Gap=     0.169 Goal=   None    Shift=    0.500
 Gap=     0.169 Goal=   None    Shift=    0.500
 RMSDP=7.01D-06 MaxDP=1.31D-04 DE=-1.10D-06 OVMax= 2.94D-04

 Cycle  14  Pass 1  IDiag  1:
 E= -193.548605043413     Delta-E=       -0.000000393142 Rises=F Damp=F
 DIIS: error= 8.14D-05 at cycle  14 NSaved=  14.
 NSaved=14 IEnMin=14 EnMin= -193.548605043413     IErMin=14 ErrMin= 8.14D-05
 ErrMax= 8.14D-05  0.00D+00 EMaxC= 1.00D+00 BMatC= 2.50D-07 BMatP= 7.25D-07
 IDIUse=1 WtCom= 1.00D+00 WtEn= 0.00D+00
 Coeff-Com: -0.147D-03 0.375D-02-0.539D-02-0.530D-03 0.208D-01-0.287D-01
 Coeff-Com:  0.581D-01-0.755D-01-0.238D+00 0.567D+00 0.116D+00-0.854D+00
 Coeff-Com: -0.115D+01 0.259D+01
 Coeff:     -0.147D-03 0.375D-02-0.539D-02-0.530D-03 0.208D-01-0.287D-01
 Coeff:      0.581D-01-0.755D-01-0.238D+00 0.567D+00 0.116D+00-0.854D+00
 Coeff:     -0.115D+01 0.259D+01
 Gap=     0.169 Goal=   None    Shift=    0.500
 Gap=     0.169 Goal=   None    Shift=    0.500
 RMSDP=4.17D-06 MaxDP=8.11D-05 DE=-3.93D-07 OVMax= 1.82D-04

 Cycle  15  Pass 1  IDiag  1:
 E= -193.548605183135     Delta-E=       -0.000000139721 Rises=F Damp=F
 DIIS: error= 4.88D-05 at cycle  15 NSaved=  15.
 NSaved=15 IEnMin=15 EnMin= -193.548605183135     IErMin=15 ErrMin= 4.88D-05
 ErrMax= 4.88D-05  0.00D+00 EMaxC= 1.00D+00 BMatC= 8.38D-08 BMatP= 2.50D-07
 IDIUse=1 WtCom= 1.00D+00 WtEn= 0.00D+00
 Coeff-Com: -0.587D-05 0.167D-02-0.268D-02 0.169D-02 0.216D-02-0.469D-02
 Coeff-Com:  0.177D-01-0.298D-01-0.460D-01 0.122D+00 0.556D-01-0.394D+00
 Coeff-Com:  0.125D+01-0.365D+01 0.367D+01
 Coeff:     -0.587D-05 0.167D-02-0.268D-02 0.169D-02 0.216D-02-0.469D-02
 Coeff:      0.177D-01-0.298D-01-0.460D-01 0.122D+00 0.556D-01-0.394D+00
 Coeff:      0.125D+01-0.365D+01 0.367D+01
 Gap=     0.169 Goal=   None    Shift=    0.500
 Gap=     0.169 Goal=   None    Shift=    0.500
 RMSDP=2.42D-06 MaxDP=4.84D-05 DE=-1.40D-07 OVMax= 1.10D-04

 Cycle  16  Pass 1  IDiag  1:
 E= -193.548605231111     Delta-E=       -0.000000047977 Rises=F Damp=F
 DIIS: error= 2.89D-05 at cycle  16 NSaved=  16.
 NSaved=16 IEnMin=16 EnMin= -193.548605231111     IErMin=16 ErrMin= 2.89D-05
 ErrMax= 2.89D-05  0.00D+00 EMaxC= 1.00D+00 BMatC= 2.79D-08 BMatP= 8.38D-08
 IDIUse=1 WtCom= 1.00D+00 WtEn= 0.00D+00
 Coeff-Com:  0.123D-04 0.535D-03-0.777D-03-0.422D-03 0.312D-02-0.327D-02
 Coeff-Com:  0.131D-01-0.203D-01-0.698D-01 0.151D+00 0.118D+00-0.462D+00
 Coeff-Com:  0.134D+00 0.967D+00-0.302D+01 0.319D+01
 Coeff:      0.123D-04 0.535D-03-0.777D-03-0.422D-03 0.312D-02-0.327D-02
 Coeff:      0.131D-01-0.203D-01-0.698D-01 0.151D+00 0.118D+00-0.462D+00
 Coeff:      0.134D+00 0.967D+00-0.302D+01 0.319D+01
 Gap=     0.169 Goal=   None    Shift=    0.500
 Gap=     0.169 Goal=   None    Shift=    0.500
 RMSDP=1.39D-06 MaxDP=2.87D-05 DE=-4.80D-08 OVMax= 6.48D-05

 Cycle  17  Pass 1  IDiag  1:
 E= -193.548605247269     Delta-E=       -0.000000016157 Rises=F Damp=F
 DIIS: error= 1.70D-05 at cycle  17 NSaved=  17.
 NSaved=17 IEnMin=17 EnMin= -193.548605247269     IErMin=17 ErrMin= 1.70D-05
 ErrMax= 1.70D-05  0.00D+00 EMaxC= 1.00D+00 BMatC= 9.32D-09 BMatP= 2.79D-08
 IDIUse=1 WtCom= 1.00D+00 WtEn= 0.00D+00
 Coeff-Com:  0.166D-04 0.914D-04-0.187D-03 0.135D-03 0.144D-03-0.319D-03
 Coeff-Com:  0.297D-02-0.472D-02-0.172D-01 0.455D-01 0.327D-02-0.691D-01
 Coeff-Com:  0.123D-02 0.257D-01 0.726D+00-0.318D+01 0.347D+01
 Coeff:      0.166D-04 0.914D-04-0.187D-03 0.135D-03 0.144D-03-0.319D-03
 Coeff:      0.297D-02-0.472D-02-0.172D-01 0.455D-01 0.327D-02-0.691D-01
 Coeff:      0.123D-02 0.257D-01 0.726D+00-0.318D+01 0.347D+01
 Gap=     0.169 Goal=   None    Shift=    0.500
 Gap=     0.169 Goal=   None    Shift=    0.500
 RMSDP=8.01D-07 MaxDP=1.70D-05 DE=-1.62D-08 OVMax= 3.82D-05

 SCF Done:  E(ULC-wHPBE) =  -193.548605247     A.U. after   17 cycles
            NFock= 17  Conv=0.80D-06     -V/T= 2.0086
 <Sx>= 0.0000 <Sy>= 0.0000 <Sz>= 0.0000 <S**2>=-0.0000 S=-0.0000
 <L.S>= 0.000000000000E+00
 KE= 1.918973023530D+02 PE=-7.384365252432D+02 EE= 2.079687178498D+02
 Annihilation of the first spin contaminant:
 S**2 before annihilation    -0.0000,   after     0.0000
 Leave Link  502 at Tue Feb 25 12:20:19 2020, MaxMem=  6710886400 cpu:              23.3 elap:               1.5
 (Enter /opt/ohpc/pub/libs/gaussian/g16-A.03/haswell/g16/l508.exe)
 QCSCF skips out because SCF is already converged.
 Leave Link  508 at Tue Feb 25 12:20:19 2020, MaxMem=  6710886400 cpu:               0.1 elap:               0.0
 (Enter /opt/ohpc/pub/libs/gaussian/g16-A.03/haswell/g16/l601.exe)
 Copying SCF densities to generalized density rwf, IOpCl= 1 IROHF=0.

 **********************************************************************

            Population analysis using the SCF density.

 **********************************************************************

 Orbital symmetries:
 Alpha Orbitals:
       Occupied  (B2) (A1) (B2) (A1) (A1) (A1) (B2) (A1) (B2) (A1)
                 (A1) (B2) (B2) (A1) (B1) (A1) (A2) (B1)
       Virtual   (A1) (B2) (A2) (A1) (B1) (B2) (A1) (B2) (A1) (A1)
                 (B2) (A1) (B2) (B2) (B1) (A2) (B1) (A1) (A1) (B2)
                 (A1) (A2) (A1) (B1) (B2) (A1) (B2) (A1) (B2) (A1)
                 (A1) (A1) (B2) (A1) (B2) (B2) (A1) (A1) (B2)
 Beta  Orbitals:
       Occupied  (B2) (A1) (B2) (A1) (A1) (A1) (B2) (A1) (B2) (A1)
                 (A1) (B2) (B2) (A1) (B1) (A1) (A2) (B1)
       Virtual   (A1) (B2) (A2) (A1) (B1) (B2) (A1) (B2) (A1) (A1)
                 (B2) (A1) (B2) (B2) (B1) (A2) (B1) (A1) (A1) (B2)
                 (A1) (A2) (A1) (B1) (B2) (A1) (B2) (A1) (B2) (A1)
                 (A1) (A1) (B2) (A1) (B2) (B2) (A1) (A1) (B2)
 The electronic state is 1-A1.
 Alpha  occ. eigenvalues --  -10.10245 -10.10244 -10.05644 -10.05643 -10.00314
 Alpha  occ. eigenvalues --   -0.89597  -0.81919  -0.74161  -0.65288  -0.59683
 Alpha  occ. eigenvalues --   -0.57945  -0.51139  -0.46647  -0.43763  -0.42441
 Alpha  occ. eigenvalues --   -0.41597  -0.33349  -0.23578
 Alpha virt. eigenvalues --   -0.06636  -0.02378   0.08386   0.18492   0.19300
 Alpha virt. eigenvalues --    0.22278   0.26124   0.27053   0.28651   0.39478
 Alpha virt. eigenvalues --    0.40686   0.48644   0.49818   0.60810   0.60963
 Alpha virt. eigenvalues --    0.69673   0.69910   0.70765   0.71631   0.73397
 Alpha virt. eigenvalues --    0.74049   0.75553   0.78683   0.79153   0.80126
 Alpha virt. eigenvalues --    0.87088   0.92497   0.94554   0.97082   0.99020
 Alpha virt. eigenvalues --    1.03713   1.06267   1.08611   1.14583   1.20904
 Alpha virt. eigenvalues --    1.26294   1.30334   1.54020   1.54707
  Beta  occ. eigenvalues --  -10.10245 -10.10244 -10.05644 -10.05643 -10.00314
  Beta  occ. eigenvalues --   -0.89597  -0.81919  -0.74161  -0.65288  -0.59683
  Beta  occ. eigenvalues --   -0.57945  -0.51139  -0.46647  -0.43763  -0.42441
  Beta  occ. eigenvalues --   -0.41597  -0.33349  -0.23578
  Beta virt. eigenvalues --   -0.06636  -0.02378   0.08386   0.18492   0.19300
  Beta virt. eigenvalues --    0.22278   0.26124   0.27053   0.28651   0.39478
  Beta virt. eigenvalues --    0.40686   0.48644   0.49818   0.60810   0.60963
  Beta virt. eigenvalues --    0.69673   0.69910   0.70765   0.71631   0.73397
  Beta virt. eigenvalues --    0.74049   0.75553   0.78683   0.79153   0.80126
  Beta virt. eigenvalues --    0.87088   0.92497   0.94554   0.97082   0.99020
  Beta virt. eigenvalues --    1.03713   1.06267   1.08611   1.14583   1.20904
  Beta virt. eigenvalues --    1.26294   1.30334   1.54020   1.54707
          Condensed to atoms (all electrons):
               1          2          3          4          5          6
     1  C    5.286094   0.513445  -0.077156  -0.042532   0.148062   0.116014
     2  C    0.513445   4.901199   0.548998  -0.050561  -0.042532  -0.002571
     3  C   -0.077156   0.548998   4.870897   0.548998  -0.077156  -0.000533
     4  C   -0.042532  -0.050561   0.548998   4.901199   0.513445  -0.002571
     5  C    0.148062  -0.042532  -0.077156   0.513445   5.286094   0.116014
     6  H    0.116014  -0.002571  -0.000533  -0.002571   0.116014   0.660699
     7  H    0.352167  -0.036816   0.003055   0.000943  -0.003909  -0.008463
     8  H   -0.035880   0.356569  -0.013862   0.004625   0.000525   0.000207
     9  H    0.005923  -0.040917   0.370250  -0.040917   0.005923  -0.000004
    10  H    0.000525   0.004625  -0.013862   0.356569  -0.035880   0.000207
    11  H   -0.003909   0.000943   0.003055  -0.036816   0.352167  -0.008463
               7          8          9         10         11
     1  C    0.352167  -0.035880   0.005923   0.000525  -0.003909
     2  C   -0.036816   0.356569  -0.040917   0.004625   0.000943
     3  C    0.003055  -0.013862   0.370250  -0.013862   0.003055
     4  C    0.000943   0.004625  -0.040917   0.356569  -0.036816
     5  C   -0.003909   0.000525   0.005923  -0.035880   0.352167
     6  H   -0.008463   0.000207  -0.000004   0.000207  -0.008463
     7  H    0.514819   0.000978  -0.000161  -0.000012   0.000039
     8  H    0.000978   0.495643  -0.004484  -0.000104  -0.000012
     9  H   -0.000161  -0.004484   0.591849  -0.004484  -0.000161
    10  H   -0.000012  -0.000104  -0.004484   0.495643   0.000978
    11  H    0.000039  -0.000012  -0.000161   0.000978   0.514819
          Atomic-Atomic Spin Densities.
               1          2          3          4          5          6
     1  C    0.000000   0.000000   0.000000   0.000000   0.000000   0.000000
     2  C    0.000000   0.000000   0.000000   0.000000   0.000000   0.000000
     3  C    0.000000   0.000000   0.000000   0.000000   0.000000   0.000000
     4  C    0.000000   0.000000   0.000000   0.000000   0.000000   0.000000
     5  C    0.000000   0.000000   0.000000   0.000000   0.000000   0.000000
     6  H    0.000000   0.000000   0.000000   0.000000   0.000000   0.000000
     7  H    0.000000   0.000000   0.000000   0.000000   0.000000   0.000000
     8  H    0.000000   0.000000   0.000000   0.000000   0.000000   0.000000
     9  H    0.000000   0.000000   0.000000   0.000000   0.000000   0.000000
    10  H    0.000000   0.000000   0.000000   0.000000   0.000000   0.000000
    11  H    0.000000   0.000000   0.000000   0.000000   0.000000   0.000000
               7          8          9         10         11
     1  C    0.000000   0.000000   0.000000   0.000000   0.000000
     2  C    0.000000   0.000000   0.000000   0.000000   0.000000
     3  C    0.000000   0.000000   0.000000   0.000000   0.000000
     4  C    0.000000   0.000000   0.000000   0.000000   0.000000
     5  C    0.000000   0.000000   0.000000   0.000000   0.000000
     6  H    0.000000   0.000000   0.000000   0.000000   0.000000
     7  H    0.000000   0.000000   0.000000   0.000000   0.000000
     8  H    0.000000   0.000000   0.000000   0.000000   0.000000
     9  H    0.000000   0.000000   0.000000   0.000000   0.000000
    10  H    0.000000   0.000000   0.000000   0.000000   0.000000
    11  H    0.000000   0.000000   0.000000   0.000000   0.000000
 Mulliken charges and spin densities:
               1          2
     1  C   -0.262754   0.000000
     2  C   -0.152382   0.000000
     3  C   -0.162686   0.000000
     4  C   -0.152382   0.000000
     5  C   -0.262754   0.000000
     6  H    0.129464   0.000000
     7  H    0.177360   0.000000
     8  H    0.195795   0.000000
     9  H    0.117183   0.000000
    10  H    0.195795   0.000000
    11  H    0.177360   0.000000
 Sum of Mulliken charges =  -0.00000   0.00000
 Mulliken charges and spin densities with hydrogens summed into heavy atoms:
               1          2
     1  C    0.044071   0.000000
     2  C    0.043413   0.000000
     3  C   -0.045503   0.000000
     4  C    0.043413   0.000000
     5  C   -0.085394   0.000000
 Electronic spatial extent (au):  <R**2>=            395.7087
 Charge=             -0.0000 electrons
 Dipole moment (field-independent basis, Debye):
    X=             -0.0000    Y=              0.0000    Z=             -1.2265  Tot=              1.2265
 Quadrupole moment (field-independent basis, Debye-Ang):
   XX=            -36.6321   YY=            -23.4489   ZZ=            -24.1746
   XY=              0.0000   XZ=             -0.0000   YZ=             -0.0000
 Traceless Quadrupole moment (field-independent basis, Debye-Ang):
   XX=             -8.5469   YY=              4.6363   ZZ=              3.9106
   XY=              0.0000   XZ=             -0.0000   YZ=             -0.0000
 Octapole moment (field-independent basis, Debye-Ang**2):
  XXX=              0.0000  YYY=              0.0000  ZZZ=            -11.6066  XYY=              0.0000
  XXY=             -0.0000  XXZ=              2.6318  XZZ=              0.0000  YZZ=              0.0000
  YYZ=              1.5718  XYZ=             -0.0000
 Hexadecapole moment (field-independent basis, Debye-Ang**3):
 XXXX=            -39.9289 YYYY=           -235.7635 ZZZZ=           -178.9141 XXXY=             -0.0000
 XXXZ=             -0.0000 YYYX=             -0.0000 YYYZ=              0.0000 ZZZX=             -0.0000
 ZZZY=              0.0000 XXYY=            -62.0734 XXZZ=            -52.7293 YYZZ=            -71.9853
 XXYZ=              0.0000 YYXZ=             -0.0000 ZZXY=             -0.0000
 N-N= 1.450218997931D+02 E-N=-7.384362420182D+02  KE= 1.918973023530D+02
 Symmetry A1   KE= 1.102424723983D+02
 Symmetry A2   KE= 2.318066979481D+00
 Symmetry B1   KE= 4.314928286738D+00
 Symmetry B2   KE= 7.502183468850D+01
 Symmetry A1   SP= 0.000000000000D+00
 Symmetry A2   SP= 0.000000000000D+00
 Symmetry B1   SP= 0.000000000000D+00
 Symmetry B2   SP= 0.000000000000D+00
                          Isotropic Fermi Contact Couplings
        Atom                 a.u.       MegaHertz       Gauss      10(-4) cm-1
     1  C(13)              0.00000       0.00000       0.00000       0.00000
     2  C(13)              0.00000       0.00000       0.00000       0.00000
     3  C(13)              0.00000       0.00000       0.00000       0.00000
     4  C(13)              0.00000       0.00000       0.00000       0.00000
     5  C(13)              0.00000       0.00000       0.00000       0.00000
     6  H(1)               0.00000       0.00000       0.00000       0.00000
     7  H(1)               0.00000       0.00000       0.00000       0.00000
     8  H(1)               0.00000       0.00000       0.00000       0.00000
     9  H(1)               0.00000       0.00000       0.00000       0.00000
    10  H(1)               0.00000       0.00000       0.00000       0.00000
    11  H(1)               0.00000       0.00000       0.00000       0.00000
 --------------------------------------------------------
       Center         ----  Spin Dipole Couplings  ----
                      3XX-RR        3YY-RR        3ZZ-RR
 --------------------------------------------------------
     1   Atom        0.000000      0.000000      0.000000
     2   Atom        0.000000      0.000000      0.000000
     3   Atom        0.000000      0.000000      0.000000
     4   Atom        0.000000      0.000000      0.000000
     5   Atom        0.000000      0.000000      0.000000
     6   Atom        0.000000      0.000000      0.000000
     7   Atom        0.000000      0.000000      0.000000
     8   Atom        0.000000      0.000000      0.000000
     9   Atom        0.000000      0.000000      0.000000
    10   Atom        0.000000      0.000000      0.000000
    11   Atom        0.000000      0.000000      0.000000
 --------------------------------------------------------
                        XY            XZ            YZ
 --------------------------------------------------------
     1   Atom        0.000000      0.000000      0.000000
     2   Atom        0.000000      0.000000      0.000000
     3   Atom        0.000000      0.000000      0.000000
     4   Atom        0.000000      0.000000      0.000000
     5   Atom        0.000000      0.000000      0.000000
     6   Atom        0.000000      0.000000      0.000000
     7   Atom        0.000000      0.000000      0.000000
     8   Atom        0.000000      0.000000      0.000000
     9   Atom        0.000000      0.000000      0.000000
    10   Atom        0.000000      0.000000      0.000000
    11   Atom        0.000000      0.000000      0.000000
 --------------------------------------------------------


 ---------------------------------------------------------------------------------
              Anisotropic Spin Dipole Couplings in Principal Axis System
 ---------------------------------------------------------------------------------

       Atom             a.u.   MegaHertz   Gauss  10(-4) cm-1        Axes

              Baa     0.0000     0.000     0.000     0.000  1.0000  0.0000  0.0000
     1 C(13)  Bbb     0.0000     0.000     0.000     0.000 -0.0000  1.0000  0.0000
              Bcc     0.0000     0.000     0.000     0.000  0.0000  0.0000  1.0000
 
              Baa     0.0000     0.000     0.000     0.000  1.0000  0.0000  0.0000
     2 C(13)  Bbb     0.0000     0.000     0.000     0.000 -0.0000  1.0000  0.0000
              Bcc     0.0000     0.000     0.000     0.000  0.0000  0.0000  1.0000
 
              Baa     0.0000     0.000     0.000     0.000  1.0000  0.0000  0.0000
     3 C(13)  Bbb     0.0000     0.000     0.000     0.000 -0.0000  1.0000  0.0000
              Bcc     0.0000     0.000     0.000     0.000  0.0000  0.0000  1.0000
 
              Baa     0.0000     0.000     0.000     0.000  1.0000  0.0000  0.0000
     4 C(13)  Bbb     0.0000     0.000     0.000     0.000 -0.0000  1.0000  0.0000
              Bcc     0.0000     0.000     0.000     0.000  0.0000  0.0000  1.0000
 
              Baa     0.0000     0.000     0.000     0.000  1.0000  0.0000  0.0000
     5 C(13)  Bbb     0.0000     0.000     0.000     0.000 -0.0000  1.0000  0.0000
              Bcc     0.0000     0.000     0.000     0.000  0.0000  0.0000  1.0000
 
              Baa     0.0000     0.000     0.000     0.000  1.0000  0.0000  0.0000
     6 H(1)   Bbb     0.0000     0.000     0.000     0.000 -0.0000  1.0000  0.0000
              Bcc     0.0000     0.000     0.000     0.000  0.0000  0.0000  1.0000
 
              Baa     0.0000     0.000     0.000     0.000  1.0000  0.0000  0.0000
     7 H(1)   Bbb     0.0000     0.000     0.000     0.000 -0.0000  1.0000  0.0000
              Bcc     0.0000     0.000     0.000     0.000  0.0000  0.0000  1.0000
 
              Baa     0.0000     0.000     0.000     0.000  1.0000  0.0000  0.0000
     8 H(1)   Bbb     0.0000     0.000     0.000     0.000 -0.0000  1.0000  0.0000
              Bcc     0.0000     0.000     0.000     0.000  0.0000  0.0000  1.0000
 
              Baa     0.0000     0.000     0.000     0.000  1.0000  0.0000  0.0000
     9 H(1)   Bbb     0.0000     0.000     0.000     0.000 -0.0000  1.0000  0.0000
              Bcc     0.0000     0.000     0.000     0.000  0.0000  0.0000  1.0000
 
              Baa     0.0000     0.000     0.000     0.000  1.0000  0.0000  0.0000
    10 H(1)   Bbb     0.0000     0.000     0.000     0.000 -0.0000  1.0000  0.0000
              Bcc     0.0000     0.000     0.000     0.000  0.0000  0.0000  1.0000
 
              Baa     0.0000     0.000     0.000     0.000  1.0000  0.0000  0.0000
    11 H(1)   Bbb     0.0000     0.000     0.000     0.000 -0.0000  1.0000  0.0000
              Bcc     0.0000     0.000     0.000     0.000  0.0000  0.0000  1.0000
 

 ---------------------------------------------------------------------------------

 No NMR shielding tensors so no spin-rotation constants.
 Leave Link  601 at Tue Feb 25 12:20:19 2020, MaxMem=  6710886400 cpu:               3.0 elap:               0.2
 (Enter /opt/ohpc/pub/libs/gaussian/g16-A.03/haswell/g16/l9999.exe)

 Test job not archived.
 1\1\GINC-HASWELL008\SP\ULC-wHPBE\6-31G\C5H6\SMGO234\25-Feb-2020\0\\#P 
 uLC-wHPBE/6-31G iop(3/107=0268500000, 3/108=0268500000) scf=(conver=6,
 fermi,ndamp=35,noincfock,novaracc,vshift=500,xqc)\\H6 C5\\0,1\C,0,-1.2
 06512,0.69658,0.\C,0,-1.206512,-0.69658,0.\C,0,0.,-1.39316,0.\C,0,1.20
 6512,-0.69658,0.\C,0,1.206512,0.69658,0.\H,0,0.,2.482681,0.\H,0,-2.150
 065,1.24134,0.\H,0,-2.150065,-1.24134,0.\H,0,0.,-2.482681,0.\H,0,2.150
 065,-1.24134,0.\H,0,2.150065,1.24134,0.\\Version=ES64L-G16RevA.03\Stat
 e=1-A1\HF=-193.5486052\S2=0.\S2-1=0.\S2A=0.\RMSD=8.009e-07\Dipole=0.,0
 .4825499,0.\Quadrupole=3.4469646,2.9074251,-6.3543897,0.,0.,0.\PG=C02V
  [C2(H1C1H1),SGV(C4H4)]\\@


 I FIND THAT THE THREE TRULY GREAT TIMES FOR THINKING THOUGHTS
 ARE WHEN I AM STANDING IN THE SHOWER, SITTING ON THE JOHN, OR WALKING.

                                    -- COLIN FLETCHER
 Job cpu time:       0 days  0 hours  0 minutes 47.7 seconds.
 Elapsed time:       0 days  0 hours  0 minutes  3.3 seconds.
 File lengths (MBytes):  RWF=    272 Int=      0 D2E=      0 Chk=     32 Scr=     32
 Normal termination of Gaussian 16 at Tue Feb 25 12:20:20 2020.
