 Entering Gaussian System, Link 0=g16
 Input=1b_tune_c6.gjf
 Output=1b_tune_c6.log
 Initial command:
 /opt/ohpc/pub/libs/gaussian/g16-A.03/sandybridge/g16/l1.exe "/scratch/qai222/ocelot_api/tests/wtuning_test/1b/tuning_1b_ocycle0/Gau-5737.inp" -scrdir="/scratch/qai222/ocelot_api/tests/wtuning_test/1b/tuning_1b_ocycle0/"
 Entering Link 1 = /opt/ohpc/pub/libs/gaussian/g16-A.03/sandybridge/g16/l1.exe PID=      5738.
  
 Copyright (c) 1988,1990,1992,1993,1995,1998,2003,2009,2016,
            Gaussian, Inc.  All Rights Reserved.
  
 This is part of the Gaussian(R) 16 program.  It is based on
 the Gaussian(R) 09 system (copyright 2009, Gaussian, Inc.),
 the Gaussian(R) 03 system (copyright 2003, Gaussian, Inc.),
 the Gaussian(R) 98 system (copyright 1998, Gaussian, Inc.),
 the Gaussian(R) 94 system (copyright 1995, Gaussian, Inc.),
 the Gaussian 92(TM) system (copyright 1992, Gaussian, Inc.),
 the Gaussian 90(TM) system (copyright 1990, Gaussian, Inc.),
 the Gaussian 88(TM) system (copyright 1988, Gaussian, Inc.),
 the Gaussian 86(TM) system (copyright 1986, Carnegie Mellon
 University), and the Gaussian 82(TM) system (copyright 1983,
 Carnegie Mellon University). Gaussian is a federally registered
 trademark of Gaussian, Inc.
  
 This software contains proprietary and confidential information,
 including trade secrets, belonging to Gaussian, Inc.
  
 This software is provided under written license and may be
 used, copied, transmitted, or stored only in accord with that
 written license.
  
 The following legend is applicable only to US Government
 contracts under FAR:
  
                    RESTRICTED RIGHTS LEGEND
  
 Use, reproduction and disclosure by the US Government is
 subject to restrictions as set forth in subparagraphs (a)
 and (c) of the Commercial Computer Software - Restricted
 Rights clause in FAR 52.227-19.
  
 Gaussian, Inc.
 340 Quinnipiac St., Bldg. 40, Wallingford CT 06492
  
  
 ---------------------------------------------------------------
 Warning -- This program may not be used in any manner that
 competes with the business of Gaussian, Inc. or will provide
 assistance to any competitor of Gaussian, Inc.  The licensee
 of this program is prohibited from giving any competitor of
 Gaussian, Inc. access to this program.  By using this program,
 the user acknowledges that Gaussian, Inc. is engaged in the
 business of creating and licensing software in the field of
 computational chemistry and represents and warrants to the
 licensee that it is not a competitor of Gaussian, Inc. and that
 it will not use this program in any manner prohibited above.
 ---------------------------------------------------------------
  

 Cite this work as:
 Gaussian 16, Revision A.03,
 M. J. Frisch, G. W. Trucks, H. B. Schlegel, G. E. Scuseria, 
 M. A. Robb, J. R. Cheeseman, G. Scalmani, V. Barone, 
 G. A. Petersson, H. Nakatsuji, X. Li, M. Caricato, A. V. Marenich, 
 J. Bloino, B. G. Janesko, R. Gomperts, B. Mennucci, H. P. Hratchian, 
 J. V. Ortiz, A. F. Izmaylov, J. L. Sonnenberg, D. Williams-Young, 
 F. Ding, F. Lipparini, F. Egidi, J. Goings, B. Peng, A. Petrone, 
 T. Henderson, D. Ranasinghe, V. G. Zakrzewski, J. Gao, N. Rega, 
 G. Zheng, W. Liang, M. Hada, M. Ehara, K. Toyota, R. Fukuda, 
 J. Hasegawa, M. Ishida, T. Nakajima, Y. Honda, O. Kitao, H. Nakai, 
 T. Vreven, K. Throssell, J. A. Montgomery, Jr., J. E. Peralta, 
 F. Ogliaro, M. J. Bearpark, J. J. Heyd, E. N. Brothers, K. N. Kudin, 
 V. N. Staroverov, T. A. Keith, R. Kobayashi, J. Normand, 
 K. Raghavachari, A. P. Rendell, J. C. Burant, S. S. Iyengar, 
 J. Tomasi, M. Cossi, J. M. Millam, M. Klene, C. Adamo, R. Cammi, 
 J. W. Ochterski, R. L. Martin, K. Morokuma, O. Farkas, 
 J. B. Foresman, and D. J. Fox, Gaussian, Inc., Wallingford CT, 2016.
 
 ******************************************
 Gaussian 16:  EM64L-G16RevA.03 25-Dec-2016
                22-Apr-2020 
 ******************************************
 %mem=50GB
 %nproc=16
 Will use up to   16 processors via shared memory.
 ----------------------------------------------------------------------
 #P uLC-wHPBE/6-31G iop(3/107=0305800000, 3/108=0305800000) scf=(conver
 =6,fermi,ndamp=35,noincfock,novaracc,vshift=500,xqc)
 ----------------------------------------------------------------------
 1/38=1,172=1/1;
 2/12=2,17=6,18=5,40=1/2;
 3/5=1,6=6,11=2,25=1,30=1,74=-71,107=305800000,108=305800000,116=2/1,2,3;
 4//1;
 5/5=100002,6=6,8=3,10=500,13=1,18=-1,22=13,38=1,93=35/2,8;
 6/7=2,8=2,9=2,10=2,28=1/1;
 99/5=1,9=1/99;
 Leave Link    1 at Wed Apr 22 20:38:04 2020, MaxMem=  6710886400 cpu:               8.3 elap:               0.6
 (Enter /opt/ohpc/pub/libs/gaussian/g16-A.03/sandybridge/g16/l101.exe)
 -----
 H6 C6
 -----
 Symbolic Z-matrix:
 Charge =  1 Multiplicity = 2
 C                     0.        1.39316   0. 
 C                    -1.20651   0.69658   0. 
 C                    -1.20651  -0.69658   0. 
 C                     0.       -1.39316   0. 
 C                     1.20651  -0.69658   0. 
 C                     1.20651   0.69658   0. 
 H                     0.        2.48268   0. 
 H                    -2.15007   1.24134   0. 
 H                    -2.15007  -1.24134   0. 
 H                     0.       -2.48268   0. 
 H                     2.15007  -1.24134   0. 
 H                     2.15007   1.24134   0. 
 
 ITRead=  0  0  0  0  0  0  0  0  0  0  0  0
 MicOpt= -1 -1 -1 -1 -1 -1 -1 -1 -1 -1 -1 -1
 NAtoms=     12 NQM=       12 NQMF=       0 NMMI=      0 NMMIF=      0
                NMic=       0 NMicF=      0.
                    Isotopes and Nuclear Properties:
 (Nuclear quadrupole moments (NQMom) in fm**2, nuclear magnetic moments (NMagM)
  in nuclear magnetons)

  Atom         1           2           3           4           5           6           7           8           9          10
 IAtWgt=          12          12          12          12          12          12           1           1           1           1
 AtmWgt=  12.0000000  12.0000000  12.0000000  12.0000000  12.0000000  12.0000000   1.0078250   1.0078250   1.0078250   1.0078250
 NucSpn=           0           0           0           0           0           0           1           1           1           1
 AtZEff=  -0.0000000  -0.0000000  -0.0000000  -0.0000000  -0.0000000  -0.0000000  -0.0000000  -0.0000000  -0.0000000  -0.0000000
 NQMom=    0.0000000   0.0000000   0.0000000   0.0000000   0.0000000   0.0000000   0.0000000   0.0000000   0.0000000   0.0000000
 NMagM=    0.0000000   0.0000000   0.0000000   0.0000000   0.0000000   0.0000000   2.7928460   2.7928460   2.7928460   2.7928460
 AtZNuc=   6.0000000   6.0000000   6.0000000   6.0000000   6.0000000   6.0000000   1.0000000   1.0000000   1.0000000   1.0000000

  Atom        11          12
 IAtWgt=           1           1
 AtmWgt=   1.0078250   1.0078250
 NucSpn=           1           1
 AtZEff=  -0.0000000  -0.0000000
 NQMom=    0.0000000   0.0000000
 NMagM=    2.7928460   2.7928460
 AtZNuc=   1.0000000   1.0000000
 Leave Link  101 at Wed Apr 22 20:38:04 2020, MaxMem=  6710886400 cpu:               2.6 elap:               0.2
 (Enter /opt/ohpc/pub/libs/gaussian/g16-A.03/sandybridge/g16/l202.exe)
                          Input orientation:                          
 ---------------------------------------------------------------------
 Center     Atomic      Atomic             Coordinates (Angstroms)
 Number     Number       Type             X           Y           Z
 ---------------------------------------------------------------------
      1          6           0        0.000000    1.393160    0.000000
      2          6           0       -1.206512    0.696580    0.000000
      3          6           0       -1.206512   -0.696580    0.000000
      4          6           0        0.000000   -1.393160    0.000000
      5          6           0        1.206512   -0.696580    0.000000
      6          6           0        1.206512    0.696580    0.000000
      7          1           0        0.000000    2.482681    0.000000
      8          1           0       -2.150065    1.241340    0.000000
      9          1           0       -2.150065   -1.241340    0.000000
     10          1           0        0.000000   -2.482681    0.000000
     11          1           0        2.150065   -1.241340    0.000000
     12          1           0        2.150065    1.241340    0.000000
 ---------------------------------------------------------------------
                    Distance matrix (angstroms):
                    1          2          3          4          5
     1  C    0.000000
     2  C    1.393160   0.000000
     3  C    2.413024   1.393160   0.000000
     4  C    2.786320   2.413024   1.393160   0.000000
     5  C    2.413024   2.786320   2.413024   1.393160   0.000000
     6  C    1.393160   2.413024   2.786320   2.413024   1.393160
     7  H    1.089521   2.155418   3.400496   3.875841   3.400496
     8  H    2.155418   1.089521   2.155418   3.400496   3.875841
     9  H    3.400496   2.155418   1.089521   2.155418   3.400496
    10  H    3.875841   3.400496   2.155418   1.089521   2.155418
    11  H    3.400496   3.875841   3.400496   2.155418   1.089521
    12  H    2.155418   3.400496   3.875841   3.400496   2.155418
                    6          7          8          9         10
     6  C    0.000000
     7  H    2.155418   0.000000
     8  H    3.400496   2.482681   0.000000
     9  H    3.875841   4.300129   2.482680   0.000000
    10  H    3.400496   4.965362   4.300129   2.482681   0.000000
    11  H    2.155418   4.300129   4.965362   4.300130   2.482681
    12  H    1.089521   2.482681   4.300130   4.965362   4.300129
                   11         12
    11  H    0.000000
    12  H    2.482680   0.000000
 Stoichiometry    C6H6(1+,2)
 Framework group  D6H[3C2'(HC.CH)]
 Deg. of freedom     2
 Full point group                 D6H     NOp  24
 Largest Abelian subgroup         D2H     NOp   8
 Largest concise Abelian subgroup D2      NOp   4
                         Standard orientation:                         
 ---------------------------------------------------------------------
 Center     Atomic      Atomic             Coordinates (Angstroms)
 Number     Number       Type             X           Y           Z
 ---------------------------------------------------------------------
      1          6           0       -0.000000    1.393160   -0.000000
      2          6           0       -1.206512    0.696580   -0.000000
      3          6           0       -1.206512   -0.696580   -0.000000
      4          6           0       -0.000000   -1.393160   -0.000000
      5          6           0        1.206512   -0.696580   -0.000000
      6          6           0        1.206512    0.696580   -0.000000
      7          1           0        0.000000    2.482681   -0.000000
      8          1           0       -2.150065    1.241341   -0.000000
      9          1           0       -2.150065   -1.241340   -0.000000
     10          1           0       -0.000000   -2.482681   -0.000000
     11          1           0        2.150065   -1.241341   -0.000000
     12          1           0        2.150065    1.241340   -0.000000
 ---------------------------------------------------------------------
 Rotational constants (GHZ):           5.7099798           5.7099798           2.8549899
 Leave Link  202 at Wed Apr 22 20:38:04 2020, MaxMem=  6710886400 cpu:               0.3 elap:               0.0
 (Enter /opt/ohpc/pub/libs/gaussian/g16-A.03/sandybridge/g16/l301.exe)
 Standard basis: 6-31G (6D, 7F)
 Ernie: Thresh=  0.10000D-02 Tol=  0.10000D-05 Strict=F.
 There are    16 symmetry adapted cartesian basis functions of AG  symmetry.
 There are    11 symmetry adapted cartesian basis functions of B1G symmetry.
 There are     2 symmetry adapted cartesian basis functions of B2G symmetry.
 There are     4 symmetry adapted cartesian basis functions of B3G symmetry.
 There are     2 symmetry adapted cartesian basis functions of AU  symmetry.
 There are     4 symmetry adapted cartesian basis functions of B1U symmetry.
 There are    16 symmetry adapted cartesian basis functions of B2U symmetry.
 There are    11 symmetry adapted cartesian basis functions of B3U symmetry.
 There are    16 symmetry adapted basis functions of AG  symmetry.
 There are    11 symmetry adapted basis functions of B1G symmetry.
 There are     2 symmetry adapted basis functions of B2G symmetry.
 There are     4 symmetry adapted basis functions of B3G symmetry.
 There are     2 symmetry adapted basis functions of AU  symmetry.
 There are     4 symmetry adapted basis functions of B1U symmetry.
 There are    16 symmetry adapted basis functions of B2U symmetry.
 There are    11 symmetry adapted basis functions of B3U symmetry.
    66 basis functions,   156 primitive gaussians,    66 cartesian basis functions
    21 alpha electrons       20 beta electrons
       nuclear repulsion energy       203.5439980921 Hartrees.
 IExCor=33909 DFT=T Ex+Corr=LC-wHPBE ExCW=0 ScaHFX=  1.000000
 ScaDFX=  1.000000  1.000000  1.000000  1.000000 ScalE2=  1.000000  1.000000
 IRadAn=      5 IRanWt=     -1 IRanGd=            0 ICorTp=0 IEmpDi=  4
 HFx  wShort=  0.000000 wLong=  0.305800 cFull=  0.000000 cShort=  0.000000 cLong=  1.000000
 DFx  wShort=  0.000000 wLong=  0.305800 cFull=  0.000000 cShort=  1.000000 cLong=  0.000000
 NAtoms=   12 NActive=   12 NUniq=    2 SFac= 4.00D+00 NAtFMM=   60 NAOKFM=F Big=F
 Integral buffers will be    131072 words long.
 Raffenetti 2 integral format.
 Two-electron integral symmetry is turned on.
 Leave Link  301 at Wed Apr 22 20:38:04 2020, MaxMem=  6710886400 cpu:               1.0 elap:               0.1
 (Enter /opt/ohpc/pub/libs/gaussian/g16-A.03/sandybridge/g16/l302.exe)
 NPDir=0 NMtPBC=     1 NCelOv=     1 NCel=       1 NClECP=     1 NCelD=      1
         NCelK=      1 NCelE2=     1 NClLst=     1 CellRange=     0.0.
 One-electron integrals computed using PRISM.
 One-electron integral symmetry used in STVInt
 NBasis=    66 RedAO= T EigKep=  6.87D-04  NBF=    16    11     2     4     2     4    16    11
 NBsUse=    66 1.00D-06 EigRej= -1.00D+00 NBFU=    16    11     2     4     2     4    16    11
 Precomputing XC quadrature grid using
 IXCGrd= 4 IRadAn=           5 IRanWt=          -1 IRanGd=           0 AccXCQ= 0.00D+00.
 Generated NRdTot=       0 NPtTot=           0 NUsed=           0 NTot=          32
 NSgBfM=    66    66    66    66    66 MxSgAt=    12 MxSgA2=    12.
 Leave Link  302 at Wed Apr 22 20:38:04 2020, MaxMem=  6710886400 cpu:               2.2 elap:               0.2
 (Enter /opt/ohpc/pub/libs/gaussian/g16-A.03/sandybridge/g16/l303.exe)
 DipDrv:  MaxL=1.
 Leave Link  303 at Wed Apr 22 20:38:05 2020, MaxMem=  6710886400 cpu:               0.8 elap:               0.1
 (Enter /opt/ohpc/pub/libs/gaussian/g16-A.03/sandybridge/g16/l401.exe)
 ExpMin= 1.61D-01 ExpMax= 3.05D+03 ExpMxC= 4.57D+02 IAcc=3 IRadAn=         5 AccDes= 0.00D+00
 Harris functional with IExCor=33909 and IRadAn=       5 diagonalized for initial guess.
 HarFok:  IExCor=33909 AccDes= 0.00D+00 IRadAn=         5 IDoV= 1 UseB2=F ITyADJ=14
 ICtDFT=  3500011 ScaDFX=  1.000000  1.000000  1.000000  1.000000
 FoFCou: FMM=F IPFlag=           0 FMFlag=      100000 FMFlg1=           0
         NFxFlg=           0 DoJE=T BraDBF=F KetDBF=T FulRan=T
         wScrn=  0.000000 ICntrl=       500 IOpCl=  0 I1Cent=   200000004 NGrid=           0
         NMat0=    1 NMatS0=      1 NMatT0=    0 NMatD0=    1 NMtDS0=    0 NMtDT0=    0
 Petite list used in FoFCou.
 Harris En= -225.254311055435    
 JPrj=0 DoOrth=F DoCkMO=F.
 Initial guess orbital symmetries:
 Alpha Orbitals:
       Occupied  (A1G) (E1U) (E1U) (E2G) (E2G) (B1U) (A1G) (E1U)
                 (E1U) (E2G) (E2G) (A1G) (B2U) (B1U) (E1U) (E1U)
                 (A2U) (E2G) (E2G) (E1G) (E1G)
       Virtual   (E2U) (E2U) (A1G) (B2G) (E1U) (E1U) (E2G) (E2G)
                 (B1U) (E2G) (E2G) (E1U) (E1U) (B2U) (A2U) (B1U)
                 (A2G) (A1G) (E2G) (E2G) (E1G) (E1G) (A1G) (E1U)
                 (E1U) (E2U) (E2U) (B2G) (B1U) (E2G) (E2G) (E1U)
                 (E1U) (A2G) (A1G) (E1U) (E1U) (E2G) (E2G) (E1U)
                 (E1U) (B1U) (E2G) (E2G) (B1U)
 Beta  Orbitals:
       Occupied  (A1G) (E1U) (E1U) (E2G) (E2G) (B1U) (A1G) (E1U)
                 (E1U) (E2G) (E2G) (A1G) (B2U) (B1U) (E1U) (E1U)
                 (A2U) (E2G) (E2G) (E1G)
       Virtual   (E1G) (E2U) (E2U) (A1G) (B2G) (E1U) (E1U) (E2G)
                 (E2G) (B1U) (E2G) (E2G) (E1U) (E1U) (B2U) (A2U)
                 (B1U) (A2G) (A1G) (E2G) (E2G) (E1G) (E1G) (A1G)
                 (E1U) (E1U) (E2U) (E2U) (B2G) (B1U) (E2G) (E2G)
                 (E1U) (E1U) (A2G) (A1G) (E1U) (E1U) (E2G) (E2G)
                 (E1U) (E1U) (B1U) (E2G) (E2G) (B1U)
 Initial guess <Sx>= 0.0000 <Sy>= 0.0000 <Sz>= 0.5000 <S**2>= 0.7500 S= 0.5000
 Leave Link  401 at Wed Apr 22 20:38:05 2020, MaxMem=  6710886400 cpu:               2.8 elap:               0.2
 (Enter /opt/ohpc/pub/libs/gaussian/g16-A.03/sandybridge/g16/l502.exe)
 Keep R1 and R2 ints in memory in symmetry-blocked form, NReq=19109854.
 FoFCou: FMM=F IPFlag=           0 FMFlag=           0 FMFlg1=           0
         NFxFlg=           0 DoJE=F BraDBF=F KetDBF=F FulRan=T
         wScrn=  0.000000 ICntrl=       600 IOpCl=  0 I1Cent=           0 NGrid=           0
         NMat0=    1 NMatS0=   2211 NMatT0=    0 NMatD0=    1 NMtDS0=    0 NMtDT0=    0
 Petite list used in FoFCou.
 UHF open shell SCF:
 Using DIIS extrapolation, IDIIS=    10.
 NGot=  6710886400 LenX=  6710146038 LenY=  6710141241
 Requested convergence on RMS density matrix=1.00D-06 within  32 cycles.
 Requested convergence on MAX density matrix=1.00D-04.
 Requested convergence on             energy=1.00D-04.
 Virtual orbitals will be shifted by   0.500 hartree.
 No special actions if energy rises.
 Dynamic level shift is on during FON iterations.

 Cycle   1  Pass 1  IDiag  1:
 Density matrix breaks symmetry, PCut= 1.00D-04
 Density has only Abelian symmetry.
 E= -231.642688730955    
 DIIS: error= 1.72D-02 at cycle   1 NSaved=   1.
 NSaved= 1 IEnMin= 1 EnMin= -231.642688730955     IErMin= 1 ErrMin= 1.72D-02
 ErrMax= 1.72D-02  0.00D+00 EMaxC= 1.00D+00 BMatC= 7.43D-02 BMatP= 7.43D-02
 IDIUse=1 WtCom= 1.00D+00 WtEn= 0.00D+00
 Coeff-Com:  0.100D+01
 Coeff:      0.100D+01
 Gap=     0.383 Goal=   None    Shift=    0.500
 T= 1161. Gap= 0.884 NK=0 IS=   22 IE=   66 IFin=   21
          NO(<0.9)=   0  NV(>0.1)=   0     21.00e < EF      0.00e >EF  Err=0.0D+00
 Gap=     0.196 Goal=   None    Shift=    0.500
 T= 1161. Gap= 0.695 NK=0 IS=   21 IE=   66 IFin=   20
          NO(<0.9)=   0  NV(>0.1)=   0     20.00e < EF      0.00e >EF  Err=0.0D+00
 GapD=    0.196 DampG=1.000 DampE=0.500 DampFc=0.5000 IDamp=-1.
 Damping current iteration by 5.00D-01
 RMSDP=3.27D-03 MaxDP=2.98D-02              OVMax= 3.54D-02

 Cycle   2  Pass 1  IDiag  1:
 Density matrix breaks symmetry, PCut= 1.00D-04
 Density has only Abelian symmetry.
 E= -231.654630239530     Delta-E=       -0.011941508576 Rises=F Damp=T
 DIIS: error= 9.90D-03 at cycle   2 NSaved=   2.
 NSaved= 2 IEnMin= 2 EnMin= -231.654630239530     IErMin= 2 ErrMin= 9.90D-03
 ErrMax= 9.90D-03  0.00D+00 EMaxC= 1.00D+00 BMatC= 1.79D-02 BMatP= 7.43D-02
 IDIUse=1 WtCom= 1.00D+00 WtEn= 0.00D+00
 Coeff-Com: -0.822D+00 0.182D+01
 Coeff:     -0.822D+00 0.182D+01
 Gap=     0.402 Goal=   None    Shift=    0.500
 T= 1070. Gap= 0.902 NK=0 IS=   22 IE=   66 IFin=   21
          NO(<0.9)=   0  NV(>0.1)=   0     21.00e < EF      0.00e >EF  Err=0.0D+00
 Gap=     0.220 Goal=   None    Shift=    0.500
 T= 1070. Gap= 0.720 NK=0 IS=   21 IE=   66 IFin=   20
          NO(<0.9)=   0  NV(>0.1)=   0     20.00e < EF      0.00e >EF  Err=0.0D+00
 GapD=    0.220 DampG=1.000 DampE=1.000 DampFc=1.0000 IDamp=-1.
 RMSDP=2.32D-03 MaxDP=1.69D-02 DE=-1.19D-02 OVMax= 1.64D-02

 Cycle   3  Pass 1  IDiag  1:
 Density matrix breaks symmetry, PCut= 1.00D-04
 Density has only Abelian symmetry.
 E= -231.664375220629     Delta-E=       -0.009744981099 Rises=F Damp=F
 DIIS: error= 5.27D-03 at cycle   3 NSaved=   3.
 NSaved= 3 IEnMin= 3 EnMin= -231.664375220629     IErMin= 3 ErrMin= 5.27D-03
 ErrMax= 5.27D-03  0.00D+00 EMaxC= 1.00D+00 BMatC= 7.48D-04 BMatP= 1.79D-02
 IDIUse=1 WtCom= 1.00D+00 WtEn= 0.00D+00
 Coeff-Com:  0.145D+00-0.318D+00 0.117D+01
 Coeff:      0.145D+00-0.318D+00 0.117D+01
 Gap=     0.397 Goal=   None    Shift=    0.500
 T=  882. Gap= 0.897 NK=0 IS=   22 IE=   66 IFin=   21
          NO(<0.9)=   0  NV(>0.1)=   0     21.00e < EF      0.00e >EF  Err=0.0D+00
 Gap=     0.219 Goal=   None    Shift=    0.500
 T=  882. Gap= 0.719 NK=0 IS=   21 IE=   66 IFin=   20
          NO(<0.9)=   0  NV(>0.1)=   0     20.00e < EF      0.00e >EF  Err=0.0D+00
 GapD=    0.219 DampG=1.000 DampE=1.000 DampFc=1.0000 IDamp=-1.
 RMSDP=3.90D-04 MaxDP=3.43D-03 DE=-9.74D-03 OVMax= 1.08D-02

 Cycle   4  Pass 1  IDiag  1:
 Density matrix breaks symmetry, PCut= 1.00D-04
 Density has only Abelian symmetry.
 E= -231.664936188924     Delta-E=       -0.000560968295 Rises=F Damp=F
 DIIS: error= 4.17D-03 at cycle   4 NSaved=   4.
 NSaved= 4 IEnMin= 4 EnMin= -231.664936188924     IErMin= 4 ErrMin= 4.17D-03
 ErrMax= 4.17D-03  0.00D+00 EMaxC= 1.00D+00 BMatC= 3.60D-04 BMatP= 7.48D-04
 IDIUse=1 WtCom= 1.00D+00 WtEn= 0.00D+00
 Coeff-Com:  0.123D+00-0.277D+00-0.601D+00 0.175D+01
 Coeff:      0.123D+00-0.277D+00-0.601D+00 0.175D+01
 Gap=     0.395 Goal=   None    Shift=    0.500
 T=  574. Gap= 0.895 NK=0 IS=   22 IE=   66 IFin=   21
          NO(<0.9)=   0  NV(>0.1)=   0     21.00e < EF      0.00e >EF  Err=0.0D+00
 Gap=     0.224 Goal=   None    Shift=    0.500
 T=  574. Gap= 0.724 NK=0 IS=   21 IE=   66 IFin=   20
          NO(<0.9)=   0  NV(>0.1)=   0     20.00e < EF      0.00e >EF  Err=0.0D+00
 GapD=    0.224 DampG=1.000 DampE=1.000 DampFc=1.0000 IDamp=-1.
 RMSDP=2.76D-04 MaxDP=3.46D-03 DE=-5.61D-04 OVMax= 1.12D-02

 Cycle   5  Pass 1  IDiag  1:
 Density matrix breaks symmetry, PCut= 1.00D-04
 Density has only Abelian symmetry.
 E= -231.665304231363     Delta-E=       -0.000368042439 Rises=F Damp=F
 DIIS: error= 2.59D-03 at cycle   5 NSaved=   5.
 NSaved= 5 IEnMin= 5 EnMin= -231.665304231363     IErMin= 5 ErrMin= 2.59D-03
 ErrMax= 2.59D-03  0.00D+00 EMaxC= 1.00D+00 BMatC= 1.52D-04 BMatP= 3.60D-04
 IDIUse=1 WtCom= 1.00D+00 WtEn= 0.00D+00
 Coeff-Com: -0.126D+00 0.273D+00-0.514D+00-0.104D+01 0.241D+01
 Coeff:     -0.126D+00 0.273D+00-0.514D+00-0.104D+01 0.241D+01
 Gap=     0.393 Goal=   None    Shift=    0.500
 T=  289. Gap= 0.893 NK=0 IS=   22 IE=   66 IFin=   21
          NO(<0.9)=   0  NV(>0.1)=   0     21.00e < EF      0.00e >EF  Err=0.0D+00
 Gap=     0.226 Goal=   None    Shift=    0.500
 T=  289. Gap= 0.726 NK=0 IS=   21 IE=   66 IFin=   20
          NO(<0.9)=   0  NV(>0.1)=   0     20.00e < EF      0.00e >EF  Err=0.0D+00
 GapD=    0.226 DampG=1.000 DampE=1.000 DampFc=1.0000 IDamp=-1.
 RMSDP=2.31D-04 MaxDP=3.47D-03 DE=-3.68D-04 OVMax= 1.01D-02

 Cycle   6  Pass 1  IDiag  1:
 Density matrix breaks symmetry, PCut= 1.00D-04
 Density has only Abelian symmetry.
 E= -231.665517935396     Delta-E=       -0.000213704032 Rises=F Damp=F
 DIIS: error= 1.42D-03 at cycle   6 NSaved=   6.
 NSaved= 6 IEnMin= 6 EnMin= -231.665517935396     IErMin= 6 ErrMin= 1.42D-03
 ErrMax= 1.42D-03  0.00D+00 EMaxC= 1.00D+00 BMatC= 4.28D-05 BMatP= 1.52D-04
 IDIUse=1 WtCom= 1.00D+00 WtEn= 0.00D+00
 Coeff-Com:  0.180D-01-0.361D-01 0.174D+00-0.230D-01-0.140D+01 0.227D+01
 Coeff:      0.180D-01-0.361D-01 0.174D+00-0.230D-01-0.140D+01 0.227D+01
 Gap=     0.392 Goal=   None    Shift=    0.500
 T=   57. Gap= 0.892 NK=0 IS=   22 IE=   66 IFin=   21
          NO(<0.9)=   0  NV(>0.1)=   0     21.00e < EF      0.00e >EF  Err=0.0D+00
 Gap=     0.227 Goal=   None    Shift=    0.500
 T=   57. Gap= 0.727 NK=0 IS=   21 IE=   66 IFin=   20
          NO(<0.9)=   0  NV(>0.1)=   0     20.00e < EF      0.00e >EF  Err=0.0D+00
 GapD=    0.227 DampG=1.000 DampE=1.000 DampFc=1.0000 IDamp=-1.
 RMSDP=1.25D-04 MaxDP=2.11D-03 DE=-2.14D-04 OVMax= 5.76D-03

 Cycle   7  Pass 1  IDiag  1:
 Density matrix breaks symmetry, PCut= 1.00D-04
 Density has only Abelian symmetry.
 E= -231.665581480543     Delta-E=       -0.000063545147 Rises=F Damp=F
 DIIS: error= 7.38D-04 at cycle   7 NSaved=   7.
 NSaved= 7 IEnMin= 7 EnMin= -231.665581480543     IErMin= 7 ErrMin= 7.38D-04
 ErrMax= 7.38D-04  0.00D+00 EMaxC= 1.00D+00 BMatC= 1.19D-05 BMatP= 4.28D-05
 IDIUse=1 WtCom= 1.00D+00 WtEn= 0.00D+00
 Coeff-Com: -0.231D-01 0.475D-01-0.185D+00-0.610D-01 0.156D+01-0.399D+01
 Coeff-Com:  0.365D+01
 Coeff:     -0.231D-01 0.475D-01-0.185D+00-0.610D-01 0.156D+01-0.399D+01
 Coeff:      0.365D+01
 Gap=     0.392 Goal=   None    Shift=    0.500
 Gap=     0.227 Goal=   None    Shift=    0.500
 RMSDP=6.45D-05 MaxDP=1.10D-03 DE=-6.35D-05 OVMax= 3.10D-03

 Cycle   8  Pass 1  IDiag  1:
 Density matrix breaks symmetry, PCut= 1.00D-04
 Density has only Abelian symmetry.
 E= -231.665598580679     Delta-E=       -0.000017100136 Rises=F Damp=F
 DIIS: error= 3.76D-04 at cycle   8 NSaved=   8.
 NSaved= 8 IEnMin= 8 EnMin= -231.665598580679     IErMin= 8 ErrMin= 3.76D-04
 ErrMax= 3.76D-04  0.00D+00 EMaxC= 1.00D+00 BMatC= 3.03D-06 BMatP= 1.19D-05
 IDIUse=1 WtCom= 1.00D+00 WtEn= 0.00D+00
 Coeff-Com:  0.554D-02-0.101D-01 0.415D-01-0.204D-01-0.436D+00 0.162D+01
 Coeff-Com: -0.315D+01 0.295D+01
 Coeff:      0.554D-02-0.101D-01 0.415D-01-0.204D-01-0.436D+00 0.162D+01
 Coeff:     -0.315D+01 0.295D+01
 Gap=     0.392 Goal=   None    Shift=    0.500
 Gap=     0.227 Goal=   None    Shift=    0.500
 RMSDP=3.11D-05 MaxDP=4.98D-04 DE=-1.71D-05 OVMax= 1.58D-03

 Cycle   9  Pass 1  IDiag  1:
 Density matrix breaks symmetry, PCut= 1.00D-04
 Density has only Abelian symmetry.
 E= -231.665602697727     Delta-E=       -0.000004117048 Rises=F Damp=F
 DIIS: error= 1.85D-04 at cycle   9 NSaved=   9.
 NSaved= 9 IEnMin= 9 EnMin= -231.665602697727     IErMin= 9 ErrMin= 1.85D-04
 ErrMax= 1.85D-04  0.00D+00 EMaxC= 1.00D+00 BMatC= 6.90D-07 BMatP= 3.03D-06
 IDIUse=1 WtCom= 1.00D+00 WtEn= 0.00D+00
 Coeff-Com: -0.450D-02 0.863D-02-0.272D-01-0.437D-02 0.286D+00-0.999D+00
 Coeff-Com:  0.198D+01-0.322D+01 0.299D+01
 Coeff:     -0.450D-02 0.863D-02-0.272D-01-0.437D-02 0.286D+00-0.999D+00
 Coeff:      0.198D+01-0.322D+01 0.299D+01
 Gap=     0.392 Goal=   None    Shift=    0.500
 Gap=     0.227 Goal=   None    Shift=    0.500
 RMSDP=1.44D-05 MaxDP=2.32D-04 DE=-4.12D-06 OVMax= 7.70D-04

 Cycle  10  Pass 1  IDiag  1:
 Density matrix breaks symmetry, PCut= 1.00D-04
 Density has only Abelian symmetry.
 E= -231.665603628050     Delta-E=       -0.000000930323 Rises=F Damp=F
 DIIS: error= 9.15D-05 at cycle  10 NSaved=  10.
 NSaved=10 IEnMin=10 EnMin= -231.665603628050     IErMin=10 ErrMin= 9.15D-05
 ErrMax= 9.15D-05  0.00D+00 EMaxC= 1.00D+00 BMatC= 1.53D-07 BMatP= 6.90D-07
 IDIUse=1 WtCom= 1.00D+00 WtEn= 0.00D+00
 Coeff-Com:  0.166D-02-0.301D-02 0.895D-02-0.526D-02-0.881D-01 0.355D+00
 Coeff-Com: -0.798D+00 0.149D+01-0.269D+01 0.272D+01
 Coeff:      0.166D-02-0.301D-02 0.895D-02-0.526D-02-0.881D-01 0.355D+00
 Coeff:     -0.798D+00 0.149D+01-0.269D+01 0.272D+01
 Gap=     0.392 Goal=   None    Shift=    0.500
 Gap=     0.227 Goal=   None    Shift=    0.500
 RMSDP=6.73D-06 MaxDP=1.10D-04 DE=-9.30D-07 OVMax= 3.73D-04

 Cycle  11  Pass 1  IDiag  1:
 Density matrix breaks symmetry, PCut= 1.00D-04
 Density has only Abelian symmetry.
 E= -231.665603833097     Delta-E=       -0.000000205046 Rises=F Damp=F
 DIIS: error= 4.48D-05 at cycle  11 NSaved=  11.
 NSaved=11 IEnMin=11 EnMin= -231.665603833097     IErMin=11 ErrMin= 4.48D-05
 ErrMax= 4.48D-05  0.00D+00 EMaxC= 1.00D+00 BMatC= 3.33D-08 BMatP= 1.53D-07
 IDIUse=1 WtCom= 1.00D+00 WtEn= 0.00D+00
 Coeff-Com: -0.367D-03 0.681D-03-0.145D-02 0.392D-03 0.988D-02-0.407D-01
 Coeff-Com:  0.104D+00-0.290D+00 0.809D+00-0.209D+01 0.250D+01
 Coeff:     -0.367D-03 0.681D-03-0.145D-02 0.392D-03 0.988D-02-0.407D-01
 Coeff:      0.104D+00-0.290D+00 0.809D+00-0.209D+01 0.250D+01
 Gap=     0.392 Goal=   None    Shift=    0.500
 Gap=     0.227 Goal=   None    Shift=    0.500
 RMSDP=3.12D-06 MaxDP=5.05D-05 DE=-2.05D-07 OVMax= 1.79D-04

 Cycle  12  Pass 1  IDiag  1:
 Density matrix breaks symmetry, PCut= 1.00D-04
 Density has only Abelian symmetry.
 E= -231.665603877790     Delta-E=       -0.000000044694 Rises=F Damp=F
 DIIS: error= 2.22D-05 at cycle  12 NSaved=  12.
 NSaved=12 IEnMin=12 EnMin= -231.665603877790     IErMin=12 ErrMin= 2.22D-05
 ErrMax= 2.22D-05  0.00D+00 EMaxC= 1.00D+00 BMatC= 7.39D-09 BMatP= 3.33D-08
 IDIUse=1 WtCom= 1.00D+00 WtEn= 0.00D+00
 Coeff-Com: -0.214D-03 0.435D-03-0.135D-02-0.109D-02 0.182D-01-0.603D-01
 Coeff-Com:  0.122D+00-0.189D+00 0.146D+00 0.505D+00-0.238D+01 0.284D+01
 Coeff:     -0.214D-03 0.435D-03-0.135D-02-0.109D-02 0.182D-01-0.603D-01
 Coeff:      0.122D+00-0.189D+00 0.146D+00 0.505D+00-0.238D+01 0.284D+01
 Gap=     0.392 Goal=   None    Shift=    0.500
 Gap=     0.227 Goal=   None    Shift=    0.500
 RMSDP=1.43D-06 MaxDP=2.33D-05 DE=-4.47D-08 OVMax= 8.73D-05

 Cycle  13  Pass 1  IDiag  1:
 Density matrix breaks symmetry, PCut= 1.00D-04
 Density has only Abelian symmetry.
 E= -231.665603887651     Delta-E=       -0.000000009861 Rises=F Damp=F
 DIIS: error= 1.09D-05 at cycle  13 NSaved=  13.
 NSaved=13 IEnMin=13 EnMin= -231.665603887651     IErMin=13 ErrMin= 1.09D-05
 ErrMax= 1.09D-05  0.00D+00 EMaxC= 1.00D+00 BMatC= 1.64D-09 BMatP= 7.39D-09
 IDIUse=1 WtCom= 1.00D+00 WtEn= 0.00D+00
 Coeff-Com:  0.125D-03-0.245D-03 0.761D-03 0.101D-03-0.847D-02 0.292D-01
 Coeff-Com: -0.589D-01 0.909D-01-0.774D-01-0.227D+00 0.132D+01-0.319D+01
 Coeff-Com:  0.312D+01
 Coeff:      0.125D-03-0.245D-03 0.761D-03 0.101D-03-0.847D-02 0.292D-01
 Coeff:     -0.589D-01 0.909D-01-0.774D-01-0.227D+00 0.132D+01-0.319D+01
 Coeff:      0.312D+01
 Gap=     0.392 Goal=   None    Shift=    0.500
 Gap=     0.227 Goal=   None    Shift=    0.500
 RMSDP=6.59D-07 MaxDP=1.08D-05 DE=-9.86D-09 OVMax= 4.23D-05

 Density matrix breaks symmetry, PCut= 1.00D-04
 Density has only Abelian symmetry.
 SCF Done:  E(ULC-wHPBE) =  -231.665603888     A.U. after   13 cycles
            NFock= 13  Conv=0.66D-06     -V/T= 2.0046
 <Sx>= 0.0000 <Sy>= 0.0000 <Sz>= 0.5000 <S**2>= 0.7750 S= 0.5124
 <L.S>= 0.000000000000E+00
 KE= 2.306017300967D+02 PE=-9.349098187312D+02 EE= 2.690984866548D+02
 Annihilation of the first spin contaminant:
 S**2 before annihilation     0.7750,   after     0.7503
 Leave Link  502 at Wed Apr 22 20:38:06 2020, MaxMem=  6710886400 cpu:              17.6 elap:               1.1
 (Enter /opt/ohpc/pub/libs/gaussian/g16-A.03/sandybridge/g16/l508.exe)
 QCSCF skips out because SCF is already converged.
 Leave Link  508 at Wed Apr 22 20:38:06 2020, MaxMem=  6710886400 cpu:               0.1 elap:               0.0
 (Enter /opt/ohpc/pub/libs/gaussian/g16-A.03/sandybridge/g16/l601.exe)
 Copying SCF densities to generalized density rwf, IOpCl= 1 IROHF=0.
 SCF density gives NOpUse=  8 NOpAll= 24.
 Marking SCF density as not fully symmetric.

 **********************************************************************

            Population analysis using the SCF density.

 **********************************************************************

 Orbital symmetries:
 Alpha Orbitals:
       Occupied  (?A) (?A) (?A) (?A) (?A) (?A) (?B) (?B) (?B) (?B)
                 (?B) (?B) (?B) (?B) (?B) (?B) (?C) (?B) (?B) (?C)
                 (?C)
       Virtual   (?C) (?C) (?B) (?C) (?B) (?B) (?B) (?B) (?B) (?B)
                 (?B) (?B) (?B) (?B) (?C) (?B) (?B) (?B) (?C) (?C)
                 (?B) (?B) (?B) (?C) (?B) (?B) (?C) (?C) (?B) (?B)
                 (?B) (?B) (?B) (?B) (?B) (?B) (?B) (?B) (?B) (?B)
                 (?B) (?B) (?B) (?B) (?B)
 Beta  Orbitals:
       Occupied  (?A) (?A) (?A) (?A) (?A) (?A) (?B) (B2G) (B2G)
                 (?B) (?B) (?B) (B2G) (B2G) (B2G) (B2G) (?C) (?B)
                 (?B) (?D)
       Virtual   (?D) (?C) (?C) (?D) (?D) (B2G) (B2G) (?D) (?D)
                 (B2G) (?D) (?D) (B2G) (B2G) (B2G) (?C) (B2G) (?D)
                 (?D) (?D) (?D) (?D) (?D) (?D) (B2G) (B2G) (?C)
                 (?C) (?D) (B2G) (?A) (?A) (B2G) (B2G) (?A) (?D)
                 (B2G) (B2G) (?D) (?D) (B2G) (B2G) (B2G) (E2G)
                 (E2G) (B1U)
 Unable to determine electronic state:  an orbital has unidentified symmetry.
 Alpha  occ. eigenvalues --  -10.32724 -10.32721 -10.32698 -10.32693 -10.28946
 Alpha  occ. eigenvalues --  -10.28942  -1.21175  -1.10664  -1.08039  -0.93904
 Alpha  occ. eigenvalues --   -0.93896  -0.85597  -0.78779  -0.77588  -0.75718
 Alpha  occ. eigenvalues --   -0.73643  -0.72669  -0.66214  -0.65907  -0.61079
 Alpha  occ. eigenvalues --   -0.57129
 Alpha virt. eigenvalues --   -0.17942  -0.14505  -0.00961   0.01539   0.04202
 Alpha virt. eigenvalues --    0.05323   0.07733   0.08811   0.10256   0.17781
 Alpha virt. eigenvalues --    0.18271   0.19051   0.19616   0.37727   0.38521
 Alpha virt. eigenvalues --    0.40956   0.43440   0.43751   0.46634   0.48882
 Alpha virt. eigenvalues --    0.49135   0.49655   0.52533   0.53048   0.53630
 Alpha virt. eigenvalues --    0.54088   0.55045   0.62306   0.72279   0.73644
 Alpha virt. eigenvalues --    0.75027   0.78025   0.79705   0.85376   0.85770
 Alpha virt. eigenvalues --    0.87977   0.87994   1.00031   1.01618   1.05997
 Alpha virt. eigenvalues --    1.06950   1.11254   1.33431   1.33685   1.78880
  Beta  occ. eigenvalues --  -10.32256 -10.32255 -10.32234 -10.32230 -10.29143
  Beta  occ. eigenvalues --  -10.29140  -1.20037  -1.08396  -1.07831  -0.93369
  Beta  occ. eigenvalues --   -0.92946  -0.85291  -0.78304  -0.77141  -0.75178
  Beta  occ. eigenvalues --   -0.73657  -0.67794  -0.65995  -0.65617  -0.56951
  Beta virt. eigenvalues --   -0.34221  -0.12726  -0.12676  -0.00770   0.03818
  Beta virt. eigenvalues --    0.04471   0.05376   0.08530   0.08960   0.10571
  Beta virt. eigenvalues --    0.18388   0.18473   0.19538   0.19984   0.38072
  Beta virt. eigenvalues --    0.40066   0.42030   0.43900   0.44118   0.49259
  Beta virt. eigenvalues --    0.49274   0.49809   0.50223   0.52860   0.54370
  Beta virt. eigenvalues --    0.54816   0.55170   0.55400   0.63270   0.72584
  Beta virt. eigenvalues --    0.73999   0.75111   0.78672   0.79726   0.85609
  Beta virt. eigenvalues --    0.85997   0.88268   0.88965   1.01354   1.01916
  Beta virt. eigenvalues --    1.06876   1.07060   1.11754   1.33962   1.34502
  Beta virt. eigenvalues --    1.79659
          Condensed to atoms (all electrons):
               1          2          3          4          5          6
     1  C    4.911403   0.521207  -0.063490  -0.023225  -0.063490   0.521207
     2  C    0.521207   4.965108   0.412721  -0.063490  -0.023960  -0.049379
     3  C   -0.063490   0.412721   4.965108   0.521207  -0.049379  -0.023960
     4  C   -0.023225  -0.063490   0.521207   4.911403   0.521207  -0.063490
     5  C   -0.063490  -0.023960  -0.049379   0.521207   4.965108   0.412721
     6  C    0.521207  -0.049379  -0.023960  -0.063490   0.412721   4.965108
     7  H    0.371483  -0.024262   0.003296   0.000064   0.003296  -0.024262
     8  H   -0.020571   0.365793  -0.028432   0.003033   0.000063   0.003206
     9  H    0.003033  -0.028432   0.365793  -0.020571   0.003206   0.000063
    10  H    0.000064   0.003296  -0.024262   0.371483  -0.024262   0.003296
    11  H    0.003033   0.000063   0.003206  -0.020571   0.365793  -0.028432
    12  H   -0.020571   0.003206   0.000063   0.003033  -0.028432   0.365793
               7          8          9         10         11         12
     1  C    0.371483  -0.020571   0.003033   0.000064   0.003033  -0.020571
     2  C   -0.024262   0.365793  -0.028432   0.003296   0.000063   0.003206
     3  C    0.003296  -0.028432   0.365793  -0.024262   0.003206   0.000063
     4  C    0.000064   0.003033  -0.020571   0.371483  -0.020571   0.003033
     5  C    0.003296   0.000063   0.003206  -0.024262   0.365793  -0.028432
     6  C   -0.024262   0.003206   0.000063   0.003296  -0.028432   0.365793
     7  H    0.418521  -0.002657  -0.000071   0.000002  -0.000071  -0.002657
     8  H   -0.002657   0.408802  -0.002356  -0.000071   0.000004  -0.000068
     9  H   -0.000071  -0.002356   0.408802  -0.002657  -0.000068   0.000004
    10  H    0.000002  -0.000071  -0.002657   0.418521  -0.002657  -0.000071
    11  H   -0.000071   0.000004  -0.000068  -0.002657   0.408802  -0.002356
    12  H   -0.002657  -0.000068   0.000004  -0.000071  -0.002356   0.408802
          Atomic-Atomic Spin Densities.
               1          2          3          4          5          6
     1  C   -0.179647  -0.007104  -0.007400   0.005891  -0.007400  -0.007104
     2  C   -0.007104   0.354077   0.040200  -0.007400  -0.007285  -0.005995
     3  C   -0.007400   0.040200   0.354077  -0.007104  -0.005995  -0.007285
     4  C    0.005891  -0.007400  -0.007104  -0.179647  -0.007104  -0.007400
     5  C   -0.007400  -0.007285  -0.005995  -0.007104   0.354077   0.040200
     6  C   -0.007104  -0.005995  -0.007285  -0.007400   0.040200   0.354077
     7  H    0.001540  -0.000943   0.000154  -0.000054   0.000154  -0.000943
     8  H    0.000055   0.000442  -0.001802  -0.000007  -0.000056   0.000083
     9  H   -0.000007  -0.001802   0.000442   0.000055   0.000083  -0.000056
    10  H   -0.000054   0.000154  -0.000943   0.001540  -0.000943   0.000154
    11  H   -0.000007  -0.000056   0.000083   0.000055   0.000442  -0.001802
    12  H    0.000055   0.000083  -0.000056  -0.000007  -0.001802   0.000442
               7          8          9         10         11         12
     1  C    0.001540   0.000055  -0.000007  -0.000054  -0.000007   0.000055
     2  C   -0.000943   0.000442  -0.001802   0.000154  -0.000056   0.000083
     3  C    0.000154  -0.001802   0.000442  -0.000943   0.000083  -0.000056
     4  C   -0.000054  -0.000007   0.000055   0.001540   0.000055  -0.000007
     5  C    0.000154  -0.000056   0.000083  -0.000943   0.000442  -0.001802
     6  C   -0.000943   0.000083  -0.000056   0.000154  -0.001802   0.000442
     7  H    0.004965  -0.000002   0.000004  -0.000001   0.000004  -0.000002
     8  H   -0.000002  -0.014890  -0.000046   0.000004  -0.000000   0.000005
     9  H    0.000004  -0.000046  -0.014890  -0.000002   0.000005  -0.000000
    10  H   -0.000001   0.000004  -0.000002   0.004965  -0.000002   0.000004
    11  H    0.000004  -0.000000   0.000005  -0.000002  -0.014890  -0.000046
    12  H   -0.000002   0.000005  -0.000000   0.000004  -0.000046  -0.014890
 Mulliken charges and spin densities:
               1          2
     1  C   -0.140081  -0.201183
     2  C   -0.081871   0.364370
     3  C   -0.081871   0.364370
     4  C   -0.140081  -0.201183
     5  C   -0.081871   0.364370
     6  C   -0.081871   0.364370
     7  H    0.257317   0.004875
     8  H    0.273253  -0.016216
     9  H    0.273253  -0.016216
    10  H    0.257317   0.004875
    11  H    0.273253  -0.016216
    12  H    0.273253  -0.016216
 Sum of Mulliken charges =   1.00000   1.00000
 Mulliken charges and spin densities with hydrogens summed into heavy atoms:
               1          2
     1  C    0.117237  -0.196308
     2  C    0.191382   0.348154
     3  C    0.191382   0.348154
     4  C    0.117237  -0.196308
     5  C    0.191382   0.348154
     6  C    0.191382   0.348154
 Electronic spatial extent (au):  <R**2>=            437.1479
 Charge=              1.0000 electrons
 Dipole moment (field-independent basis, Debye):
    X=              0.0000    Y=              0.0000    Z=             -0.0000  Tot=              0.0000
 Quadrupole moment (field-independent basis, Debye-Ang):
   XX=            -18.0454   YY=            -21.6841   ZZ=            -35.0056
   XY=             -0.0000   XZ=              0.0000   YZ=              0.0000
 Traceless Quadrupole moment (field-independent basis, Debye-Ang):
   XX=              6.8663   YY=              3.2276   ZZ=            -10.0939
   XY=             -0.0000   XZ=              0.0000   YZ=              0.0000
 Octapole moment (field-independent basis, Debye-Ang**2):
  XXX=              0.0000  YYY=             -0.0000  ZZZ=              0.0000  XYY=             -0.0000
  XXY=             -0.0000  XXZ=              0.0000  XZZ=             -0.0000  YZZ=              0.0000
  YYZ=              0.0000  XYZ=              0.0000
 Hexadecapole moment (field-independent basis, Debye-Ang**3):
 XXXX=           -195.8269 YYYY=           -210.0649 ZZZZ=            -34.1070 XXXY=              0.0000
 XXXZ=              0.0000 YYYX=              0.0000 YYYZ=              0.0000 ZZZX=             -0.0000
 ZZZY=             -0.0000 XXYY=            -66.1471 XXZZ=            -51.9820 YYZZ=            -55.2586
 XXYZ=              0.0000 YYXZ=              0.0000 ZZXY=              0.0000
 N-N= 2.035439980921D+02 E-N=-9.349098203587D+02  KE= 2.306017300967D+02
 Symmetry AG   KE= 7.452091697121D+01
 Symmetry B1G  KE= 3.776539126529D+01
 Symmetry B2G  KE= 1.198131096685D+00
 Symmetry B3G  KE= 2.344295699862D+00
 Symmetry AU   KE= 4.134604662263D-17
 Symmetry B1U  KE= 1.958935508701D+00
 Symmetry B2U  KE= 7.220324864884D+01
 Symmetry B3U  KE= 4.061081090607D+01
 Symmetry AG   SP= 4.119968255445D-16
 Symmetry B1G  SP=-1.253711507033D-14
 Symmetry B2G  SP= 1.000000000000D+00
 Symmetry B3G  SP=-7.915001119796D-15
 Symmetry AU   SP= 5.365348454629D-17
 Symmetry B1U  SP=-6.689812007306D-15
 Symmetry B2U  SP= 4.508826512563D-14
 Symmetry B3U  SP= 1.166140751671D-14
                          Isotropic Fermi Contact Couplings
        Atom                 a.u.       MegaHertz       Gauss      10(-4) cm-1
     1  C(13)             -0.03107     -34.92393     -12.46173     -11.64937
     2  C(13)              0.04296      48.29455      17.23270      16.10933
     3  C(13)              0.04296      48.29455      17.23270      16.10933
     4  C(13)             -0.03107     -34.92393     -12.46173     -11.64937
     5  C(13)              0.04296      48.29455      17.23270      16.10933
     6  C(13)              0.04296      48.29455      17.23270      16.10933
     7  H(1)               0.00190       8.47959       3.02573       2.82849
     8  H(1)              -0.00632     -28.25837     -10.08329      -9.42598
     9  H(1)              -0.00632     -28.25837     -10.08329      -9.42598
    10  H(1)               0.00190       8.47959       3.02573       2.82849
    11  H(1)              -0.00632     -28.25837     -10.08329      -9.42598
    12  H(1)              -0.00632     -28.25837     -10.08329      -9.42598
 --------------------------------------------------------
       Center         ----  Spin Dipole Couplings  ----
                      3XX-RR        3YY-RR        3ZZ-RR
 --------------------------------------------------------
     1   Atom        0.068757      0.060971     -0.129728
     2   Atom       -0.187033     -0.179569      0.366602
     3   Atom       -0.187033     -0.179569      0.366602
     4   Atom        0.068757      0.060971     -0.129728
     5   Atom       -0.187033     -0.179569      0.366602
     6   Atom       -0.187033     -0.179569      0.366602
     7   Atom        0.006236     -0.000605     -0.005632
     8   Atom        0.011233     -0.003669     -0.007564
     9   Atom        0.011233     -0.003669     -0.007564
    10   Atom        0.006236     -0.000605     -0.005632
    11   Atom        0.011233     -0.003669     -0.007564
    12   Atom        0.011233     -0.003669     -0.007564
 --------------------------------------------------------
                        XY            XZ            YZ
 --------------------------------------------------------
     1   Atom        0.000000      0.000000      0.000000
     2   Atom       -0.004791     -0.000000     -0.000000
     3   Atom        0.004791     -0.000000      0.000000
     4   Atom       -0.000000      0.000000     -0.000000
     5   Atom       -0.004791      0.000000      0.000000
     6   Atom        0.004791      0.000000     -0.000000
     7   Atom        0.000000     -0.000000     -0.000000
     8   Atom       -0.028299     -0.000000      0.000000
     9   Atom        0.028299     -0.000000     -0.000000
    10   Atom       -0.000000     -0.000000      0.000000
    11   Atom       -0.028299      0.000000     -0.000000
    12   Atom        0.028299      0.000000      0.000000
 --------------------------------------------------------


 ---------------------------------------------------------------------------------
              Anisotropic Spin Dipole Couplings in Principal Axis System
 ---------------------------------------------------------------------------------

       Atom             a.u.   MegaHertz   Gauss  10(-4) cm-1        Axes

              Baa    -0.1297   -17.408    -6.212    -5.807  0.0000  0.0000  1.0000
     1 C(13)  Bbb     0.0610     8.182     2.919     2.729 -0.0000  1.0000 -0.0000
              Bcc     0.0688     9.227     3.292     3.078  1.0000  0.0000 -0.0000
 
              Baa    -0.1894   -25.412    -9.068    -8.477  0.8985  0.4390 -0.0000
     2 C(13)  Bbb    -0.1772   -23.782    -8.486    -7.933 -0.4390  0.8985 -0.0000
              Bcc     0.3666    49.195    17.554    16.410  0.0000  0.0000  1.0000
 
              Baa    -0.1894   -25.412    -9.068    -8.477  0.8985 -0.4390  0.0000
     3 C(13)  Bbb    -0.1772   -23.782    -8.486    -7.933  0.4390  0.8985 -0.0000
              Bcc     0.3666    49.195    17.554    16.410  0.0000  0.0000  1.0000
 
              Baa    -0.1297   -17.408    -6.212    -5.807  0.0000  0.0000  1.0000
     4 C(13)  Bbb     0.0610     8.182     2.919     2.729  0.0000  1.0000  0.0000
              Bcc     0.0688     9.227     3.292     3.078  1.0000 -0.0000  0.0000
 
              Baa    -0.1894   -25.412    -9.068    -8.477  0.8985  0.4390 -0.0000
     5 C(13)  Bbb    -0.1772   -23.782    -8.486    -7.933 -0.4390  0.8985 -0.0000
              Bcc     0.3666    49.195    17.554    16.410  0.0000  0.0000  1.0000
 
              Baa    -0.1894   -25.412    -9.068    -8.477  0.8985 -0.4390  0.0000
     6 C(13)  Bbb    -0.1772   -23.782    -8.486    -7.933  0.4390  0.8985 -0.0000
              Bcc     0.3666    49.195    17.554    16.410  0.0000  0.0000  1.0000
 
              Baa    -0.0056    -3.005    -1.072    -1.002  0.0000  0.0000  1.0000
     7 H(1)   Bbb    -0.0006    -0.323    -0.115    -0.108 -0.0000  1.0000 -0.0000
              Bcc     0.0062     3.327     1.187     1.110  1.0000  0.0000 -0.0000
 
              Baa    -0.0255   -13.595    -4.851    -4.535  0.6105  0.7920  0.0000
     8 H(1)   Bbb    -0.0076    -4.036    -1.440    -1.346  0.0000  0.0000  1.0000
              Bcc     0.0330    17.631     6.291     5.881  0.7920 -0.6105  0.0000
 
              Baa    -0.0255   -13.595    -4.851    -4.535 -0.6105  0.7920  0.0000
     9 H(1)   Bbb    -0.0076    -4.036    -1.440    -1.346  0.0000  0.0000  1.0000
              Bcc     0.0330    17.631     6.291     5.881  0.7920  0.6105 -0.0000
 
              Baa    -0.0056    -3.005    -1.072    -1.002  0.0000  0.0000  1.0000
    10 H(1)   Bbb    -0.0006    -0.323    -0.115    -0.108  0.0000  1.0000  0.0000
              Bcc     0.0062     3.327     1.187     1.110  1.0000 -0.0000  0.0000
 
              Baa    -0.0255   -13.595    -4.851    -4.535  0.6105  0.7920  0.0000
    11 H(1)   Bbb    -0.0076    -4.036    -1.440    -1.346  0.0000  0.0000  1.0000
              Bcc     0.0330    17.631     6.291     5.881  0.7920 -0.6105  0.0000
 
              Baa    -0.0255   -13.595    -4.851    -4.535 -0.6105  0.7920  0.0000
    12 H(1)   Bbb    -0.0076    -4.036    -1.440    -1.346  0.0000  0.0000  1.0000
              Bcc     0.0330    17.631     6.291     5.881  0.7920  0.6105 -0.0000
 

 ---------------------------------------------------------------------------------

 No NMR shielding tensors so no spin-rotation constants.
 Leave Link  601 at Wed Apr 22 20:38:06 2020, MaxMem=  6710886400 cpu:               3.6 elap:               0.3
 (Enter /opt/ohpc/pub/libs/gaussian/g16-A.03/sandybridge/g16/l9999.exe)

 Test job not archived.
 1\1\GINC-CNODE130\SP\ULC-wHPBE\6-31G\C6H6(1+,2)\QAI222\22-Apr-2020\0\\
 #P uLC-wHPBE/6-31G iop(3/107=0305800000, 3/108=0305800000) scf=(conver
 =6,fermi,ndamp=35,noincfock,novaracc,vshift=500,xqc)\\H6 C6\\1,2\C,0,0
 .,1.39316,0.\C,0,-1.206512,0.69658,0.\C,0,-1.206512,-0.69658,0.\C,0,0.
 ,-1.39316,0.\C,0,1.206512,-0.69658,0.\C,0,1.206512,0.69658,0.\H,0,0.,2
 .482681,0.\H,0,-2.150065,1.24134,0.\H,0,-2.150065,-1.24134,0.\H,0,0.,-
 2.482681,0.\H,0,2.150065,-1.24134,0.\H,0,2.150065,1.24134,0.\\Version=
 EM64L-G16RevA.03\HF=-231.6656039\S2=0.775023\S2-1=0.\S2A=0.750303\RMSD
 =6.591e-07\Dipole=0.,0.,0.\Quadrupole=5.1049024,2.3996712,-7.5045736,0
 .,0.,0.\PG=D06H [3C2'(H1C1.C1H1)]\\@


 WOE UNTO THEM THAT CALL EVIL GOOD, AND GOOD EVIL      
 Job cpu time:       0 days  0 hours  0 minutes 39.9 seconds.
 Elapsed time:       0 days  0 hours  0 minutes  2.8 seconds.
 File lengths (MBytes):  RWF=    272 Int=      0 D2E=      0 Chk=     32 Scr=     32
 Normal termination of Gaussian 16 at Wed Apr 22 20:38:06 2020.
