 Entering Gaussian System, Link 0=g16
 Input=1b_tune_c9.gjf
 Output=1b_tune_c9.log
 Initial command:
 /opt/ohpc/pub/libs/gaussian/g16-A.03/sandybridge/g16/l1.exe "/scratch/qai222/ocelot_api/tests/wtuning_test/1b/tuning_1b_ocycle0/Gau-113688.inp" -scrdir="/scratch/qai222/ocelot_api/tests/wtuning_test/1b/tuning_1b_ocycle0/"
 Entering Link 1 = /opt/ohpc/pub/libs/gaussian/g16-A.03/sandybridge/g16/l1.exe PID=    113689.
  
 Copyright (c) 1988,1990,1992,1993,1995,1998,2003,2009,2016,
            Gaussian, Inc.  All Rights Reserved.
  
 This is part of the Gaussian(R) 16 program.  It is based on
 the Gaussian(R) 09 system (copyright 2009, Gaussian, Inc.),
 the Gaussian(R) 03 system (copyright 2003, Gaussian, Inc.),
 the Gaussian(R) 98 system (copyright 1998, Gaussian, Inc.),
 the Gaussian(R) 94 system (copyright 1995, Gaussian, Inc.),
 the Gaussian 92(TM) system (copyright 1992, Gaussian, Inc.),
 the Gaussian 90(TM) system (copyright 1990, Gaussian, Inc.),
 the Gaussian 88(TM) system (copyright 1988, Gaussian, Inc.),
 the Gaussian 86(TM) system (copyright 1986, Carnegie Mellon
 University), and the Gaussian 82(TM) system (copyright 1983,
 Carnegie Mellon University). Gaussian is a federally registered
 trademark of Gaussian, Inc.
  
 This software contains proprietary and confidential information,
 including trade secrets, belonging to Gaussian, Inc.
  
 This software is provided under written license and may be
 used, copied, transmitted, or stored only in accord with that
 written license.
  
 The following legend is applicable only to US Government
 contracts under FAR:
  
                    RESTRICTED RIGHTS LEGEND
  
 Use, reproduction and disclosure by the US Government is
 subject to restrictions as set forth in subparagraphs (a)
 and (c) of the Commercial Computer Software - Restricted
 Rights clause in FAR 52.227-19.
  
 Gaussian, Inc.
 340 Quinnipiac St., Bldg. 40, Wallingford CT 06492
  
  
 ---------------------------------------------------------------
 Warning -- This program may not be used in any manner that
 competes with the business of Gaussian, Inc. or will provide
 assistance to any competitor of Gaussian, Inc.  The licensee
 of this program is prohibited from giving any competitor of
 Gaussian, Inc. access to this program.  By using this program,
 the user acknowledges that Gaussian, Inc. is engaged in the
 business of creating and licensing software in the field of
 computational chemistry and represents and warrants to the
 licensee that it is not a competitor of Gaussian, Inc. and that
 it will not use this program in any manner prohibited above.
 ---------------------------------------------------------------
  

 Cite this work as:
 Gaussian 16, Revision A.03,
 M. J. Frisch, G. W. Trucks, H. B. Schlegel, G. E. Scuseria, 
 M. A. Robb, J. R. Cheeseman, G. Scalmani, V. Barone, 
 G. A. Petersson, H. Nakatsuji, X. Li, M. Caricato, A. V. Marenich, 
 J. Bloino, B. G. Janesko, R. Gomperts, B. Mennucci, H. P. Hratchian, 
 J. V. Ortiz, A. F. Izmaylov, J. L. Sonnenberg, D. Williams-Young, 
 F. Ding, F. Lipparini, F. Egidi, J. Goings, B. Peng, A. Petrone, 
 T. Henderson, D. Ranasinghe, V. G. Zakrzewski, J. Gao, N. Rega, 
 G. Zheng, W. Liang, M. Hada, M. Ehara, K. Toyota, R. Fukuda, 
 J. Hasegawa, M. Ishida, T. Nakajima, Y. Honda, O. Kitao, H. Nakai, 
 T. Vreven, K. Throssell, J. A. Montgomery, Jr., J. E. Peralta, 
 F. Ogliaro, M. J. Bearpark, J. J. Heyd, E. N. Brothers, K. N. Kudin, 
 V. N. Staroverov, T. A. Keith, R. Kobayashi, J. Normand, 
 K. Raghavachari, A. P. Rendell, J. C. Burant, S. S. Iyengar, 
 J. Tomasi, M. Cossi, J. M. Millam, M. Klene, C. Adamo, R. Cammi, 
 J. W. Ochterski, R. L. Martin, K. Morokuma, O. Farkas, 
 J. B. Foresman, and D. J. Fox, Gaussian, Inc., Wallingford CT, 2016.
 
 ******************************************
 Gaussian 16:  EM64L-G16RevA.03 25-Dec-2016
                22-Apr-2020 
 ******************************************
 %mem=50GB
 %nproc=16
 Will use up to   16 processors via shared memory.
 ----------------------------------------------------------------------
 #P uLC-wHPBE/6-31G iop(3/107=0313700000, 3/108=0313700000) scf=(conver
 =6,fermi,ndamp=35,noincfock,novaracc,vshift=500,xqc)
 ----------------------------------------------------------------------
 1/38=1,172=1/1;
 2/12=2,17=6,18=5,40=1/2;
 3/5=1,6=6,11=2,25=1,30=1,74=-71,107=313700000,108=313700000,116=2/1,2,3;
 4//1;
 5/5=100002,6=6,8=3,10=500,13=1,18=-1,22=13,38=1,93=35/2,8;
 6/7=2,8=2,9=2,10=2,28=1/1;
 99/5=1,9=1/99;
 Leave Link    1 at Wed Apr 22 16:21:11 2020, MaxMem=  6710886400 cpu:               9.5 elap:               0.6
 (Enter /opt/ohpc/pub/libs/gaussian/g16-A.03/sandybridge/g16/l101.exe)
 -----
 H6 C6
 -----
 Symbolic Z-matrix:
 Charge =  1 Multiplicity = 2
 C                     0.        1.39316   0. 
 C                    -1.20651   0.69658   0. 
 C                    -1.20651  -0.69658   0. 
 C                     0.       -1.39316   0. 
 C                     1.20651  -0.69658   0. 
 C                     1.20651   0.69658   0. 
 H                     0.        2.48268   0. 
 H                    -2.15007   1.24134   0. 
 H                    -2.15007  -1.24134   0. 
 H                     0.       -2.48268   0. 
 H                     2.15007  -1.24134   0. 
 H                     2.15007   1.24134   0. 
 
 ITRead=  0  0  0  0  0  0  0  0  0  0  0  0
 MicOpt= -1 -1 -1 -1 -1 -1 -1 -1 -1 -1 -1 -1
 NAtoms=     12 NQM=       12 NQMF=       0 NMMI=      0 NMMIF=      0
                NMic=       0 NMicF=      0.
                    Isotopes and Nuclear Properties:
 (Nuclear quadrupole moments (NQMom) in fm**2, nuclear magnetic moments (NMagM)
  in nuclear magnetons)

  Atom         1           2           3           4           5           6           7           8           9          10
 IAtWgt=          12          12          12          12          12          12           1           1           1           1
 AtmWgt=  12.0000000  12.0000000  12.0000000  12.0000000  12.0000000  12.0000000   1.0078250   1.0078250   1.0078250   1.0078250
 NucSpn=           0           0           0           0           0           0           1           1           1           1
 AtZEff=  -0.0000000  -0.0000000  -0.0000000  -0.0000000  -0.0000000  -0.0000000  -0.0000000  -0.0000000  -0.0000000  -0.0000000
 NQMom=    0.0000000   0.0000000   0.0000000   0.0000000   0.0000000   0.0000000   0.0000000   0.0000000   0.0000000   0.0000000
 NMagM=    0.0000000   0.0000000   0.0000000   0.0000000   0.0000000   0.0000000   2.7928460   2.7928460   2.7928460   2.7928460
 AtZNuc=   6.0000000   6.0000000   6.0000000   6.0000000   6.0000000   6.0000000   1.0000000   1.0000000   1.0000000   1.0000000

  Atom        11          12
 IAtWgt=           1           1
 AtmWgt=   1.0078250   1.0078250
 NucSpn=           1           1
 AtZEff=  -0.0000000  -0.0000000
 NQMom=    0.0000000   0.0000000
 NMagM=    2.7928460   2.7928460
 AtZNuc=   1.0000000   1.0000000
 Leave Link  101 at Wed Apr 22 16:21:11 2020, MaxMem=  6710886400 cpu:               2.0 elap:               0.1
 (Enter /opt/ohpc/pub/libs/gaussian/g16-A.03/sandybridge/g16/l202.exe)
                          Input orientation:                          
 ---------------------------------------------------------------------
 Center     Atomic      Atomic             Coordinates (Angstroms)
 Number     Number       Type             X           Y           Z
 ---------------------------------------------------------------------
      1          6           0        0.000000    1.393160    0.000000
      2          6           0       -1.206512    0.696580    0.000000
      3          6           0       -1.206512   -0.696580    0.000000
      4          6           0        0.000000   -1.393160    0.000000
      5          6           0        1.206512   -0.696580    0.000000
      6          6           0        1.206512    0.696580    0.000000
      7          1           0        0.000000    2.482681    0.000000
      8          1           0       -2.150065    1.241340    0.000000
      9          1           0       -2.150065   -1.241340    0.000000
     10          1           0        0.000000   -2.482681    0.000000
     11          1           0        2.150065   -1.241340    0.000000
     12          1           0        2.150065    1.241340    0.000000
 ---------------------------------------------------------------------
                    Distance matrix (angstroms):
                    1          2          3          4          5
     1  C    0.000000
     2  C    1.393160   0.000000
     3  C    2.413024   1.393160   0.000000
     4  C    2.786320   2.413024   1.393160   0.000000
     5  C    2.413024   2.786320   2.413024   1.393160   0.000000
     6  C    1.393160   2.413024   2.786320   2.413024   1.393160
     7  H    1.089521   2.155418   3.400496   3.875841   3.400496
     8  H    2.155418   1.089521   2.155418   3.400496   3.875841
     9  H    3.400496   2.155418   1.089521   2.155418   3.400496
    10  H    3.875841   3.400496   2.155418   1.089521   2.155418
    11  H    3.400496   3.875841   3.400496   2.155418   1.089521
    12  H    2.155418   3.400496   3.875841   3.400496   2.155418
                    6          7          8          9         10
     6  C    0.000000
     7  H    2.155418   0.000000
     8  H    3.400496   2.482681   0.000000
     9  H    3.875841   4.300129   2.482680   0.000000
    10  H    3.400496   4.965362   4.300129   2.482681   0.000000
    11  H    2.155418   4.300129   4.965362   4.300130   2.482681
    12  H    1.089521   2.482681   4.300130   4.965362   4.300129
                   11         12
    11  H    0.000000
    12  H    2.482680   0.000000
 Stoichiometry    C6H6(1+,2)
 Framework group  D6H[3C2'(HC.CH)]
 Deg. of freedom     2
 Full point group                 D6H     NOp  24
 Largest Abelian subgroup         D2H     NOp   8
 Largest concise Abelian subgroup D2      NOp   4
                         Standard orientation:                         
 ---------------------------------------------------------------------
 Center     Atomic      Atomic             Coordinates (Angstroms)
 Number     Number       Type             X           Y           Z
 ---------------------------------------------------------------------
      1          6           0       -0.000000    1.393160   -0.000000
      2          6           0       -1.206512    0.696580   -0.000000
      3          6           0       -1.206512   -0.696580   -0.000000
      4          6           0       -0.000000   -1.393160   -0.000000
      5          6           0        1.206512   -0.696580   -0.000000
      6          6           0        1.206512    0.696580   -0.000000
      7          1           0        0.000000    2.482681   -0.000000
      8          1           0       -2.150065    1.241341   -0.000000
      9          1           0       -2.150065   -1.241340   -0.000000
     10          1           0       -0.000000   -2.482681   -0.000000
     11          1           0        2.150065   -1.241341   -0.000000
     12          1           0        2.150065    1.241340   -0.000000
 ---------------------------------------------------------------------
 Rotational constants (GHZ):           5.7099798           5.7099798           2.8549899
 Leave Link  202 at Wed Apr 22 16:21:11 2020, MaxMem=  6710886400 cpu:               0.4 elap:               0.0
 (Enter /opt/ohpc/pub/libs/gaussian/g16-A.03/sandybridge/g16/l301.exe)
 Standard basis: 6-31G (6D, 7F)
 Ernie: Thresh=  0.10000D-02 Tol=  0.10000D-05 Strict=F.
 There are    16 symmetry adapted cartesian basis functions of AG  symmetry.
 There are    11 symmetry adapted cartesian basis functions of B1G symmetry.
 There are     2 symmetry adapted cartesian basis functions of B2G symmetry.
 There are     4 symmetry adapted cartesian basis functions of B3G symmetry.
 There are     2 symmetry adapted cartesian basis functions of AU  symmetry.
 There are     4 symmetry adapted cartesian basis functions of B1U symmetry.
 There are    16 symmetry adapted cartesian basis functions of B2U symmetry.
 There are    11 symmetry adapted cartesian basis functions of B3U symmetry.
 There are    16 symmetry adapted basis functions of AG  symmetry.
 There are    11 symmetry adapted basis functions of B1G symmetry.
 There are     2 symmetry adapted basis functions of B2G symmetry.
 There are     4 symmetry adapted basis functions of B3G symmetry.
 There are     2 symmetry adapted basis functions of AU  symmetry.
 There are     4 symmetry adapted basis functions of B1U symmetry.
 There are    16 symmetry adapted basis functions of B2U symmetry.
 There are    11 symmetry adapted basis functions of B3U symmetry.
    66 basis functions,   156 primitive gaussians,    66 cartesian basis functions
    21 alpha electrons       20 beta electrons
       nuclear repulsion energy       203.5439980921 Hartrees.
 IExCor=33909 DFT=T Ex+Corr=LC-wHPBE ExCW=0 ScaHFX=  1.000000
 ScaDFX=  1.000000  1.000000  1.000000  1.000000 ScalE2=  1.000000  1.000000
 IRadAn=      5 IRanWt=     -1 IRanGd=            0 ICorTp=0 IEmpDi=  4
 HFx  wShort=  0.000000 wLong=  0.313700 cFull=  0.000000 cShort=  0.000000 cLong=  1.000000
 DFx  wShort=  0.000000 wLong=  0.313700 cFull=  0.000000 cShort=  1.000000 cLong=  0.000000
 NAtoms=   12 NActive=   12 NUniq=    2 SFac= 4.00D+00 NAtFMM=   60 NAOKFM=F Big=F
 Integral buffers will be    131072 words long.
 Raffenetti 2 integral format.
 Two-electron integral symmetry is turned on.
 Leave Link  301 at Wed Apr 22 16:21:11 2020, MaxMem=  6710886400 cpu:               1.1 elap:               0.1
 (Enter /opt/ohpc/pub/libs/gaussian/g16-A.03/sandybridge/g16/l302.exe)
 NPDir=0 NMtPBC=     1 NCelOv=     1 NCel=       1 NClECP=     1 NCelD=      1
         NCelK=      1 NCelE2=     1 NClLst=     1 CellRange=     0.0.
 One-electron integrals computed using PRISM.
 One-electron integral symmetry used in STVInt
 NBasis=    66 RedAO= T EigKep=  6.87D-04  NBF=    16    11     2     4     2     4    16    11
 NBsUse=    66 1.00D-06 EigRej= -1.00D+00 NBFU=    16    11     2     4     2     4    16    11
 Precomputing XC quadrature grid using
 IXCGrd= 4 IRadAn=           5 IRanWt=          -1 IRanGd=           0 AccXCQ= 0.00D+00.
 Generated NRdTot=       0 NPtTot=           0 NUsed=           0 NTot=          32
 NSgBfM=    66    66    66    66    66 MxSgAt=    12 MxSgA2=    12.
 Leave Link  302 at Wed Apr 22 16:21:11 2020, MaxMem=  6710886400 cpu:               2.3 elap:               0.2
 (Enter /opt/ohpc/pub/libs/gaussian/g16-A.03/sandybridge/g16/l303.exe)
 DipDrv:  MaxL=1.
 Leave Link  303 at Wed Apr 22 16:21:11 2020, MaxMem=  6710886400 cpu:               0.5 elap:               0.0
 (Enter /opt/ohpc/pub/libs/gaussian/g16-A.03/sandybridge/g16/l401.exe)
 ExpMin= 1.61D-01 ExpMax= 3.05D+03 ExpMxC= 4.57D+02 IAcc=3 IRadAn=         5 AccDes= 0.00D+00
 Harris functional with IExCor=33909 and IRadAn=       5 diagonalized for initial guess.
 HarFok:  IExCor=33909 AccDes= 0.00D+00 IRadAn=         5 IDoV= 1 UseB2=F ITyADJ=14
 ICtDFT=  3500011 ScaDFX=  1.000000  1.000000  1.000000  1.000000
 FoFCou: FMM=F IPFlag=           0 FMFlag=      100000 FMFlg1=           0
         NFxFlg=           0 DoJE=T BraDBF=F KetDBF=T FulRan=T
         wScrn=  0.000000 ICntrl=       500 IOpCl=  0 I1Cent=   200000004 NGrid=           0
         NMat0=    1 NMatS0=      1 NMatT0=    0 NMatD0=    1 NMtDS0=    0 NMtDT0=    0
 Petite list used in FoFCou.
 Harris En= -225.112000990192    
 JPrj=0 DoOrth=F DoCkMO=F.
 Initial guess orbital symmetries:
 Alpha Orbitals:
       Occupied  (A1G) (E1U) (E1U) (E2G) (E2G) (B1U) (A1G) (E1U)
                 (E1U) (E2G) (E2G) (A1G) (B2U) (B1U) (E1U) (E1U)
                 (A2U) (E2G) (E2G) (E1G) (E1G)
       Virtual   (E2U) (E2U) (A1G) (B2G) (E1U) (E1U) (E2G) (E2G)
                 (B1U) (E2G) (E2G) (E1U) (E1U) (B2U) (A2U) (B1U)
                 (A2G) (A1G) (E2G) (E2G) (E1G) (E1G) (A1G) (E1U)
                 (E1U) (E2U) (E2U) (B2G) (B1U) (E2G) (E2G) (E1U)
                 (E1U) (A2G) (A1G) (E1U) (E1U) (E2G) (E2G) (E1U)
                 (E1U) (B1U) (E2G) (E2G) (B1U)
 Beta  Orbitals:
       Occupied  (A1G) (E1U) (E1U) (E2G) (E2G) (B1U) (A1G) (E1U)
                 (E1U) (E2G) (E2G) (A1G) (B2U) (B1U) (E1U) (E1U)
                 (A2U) (E2G) (E2G) (E1G)
       Virtual   (E1G) (E2U) (E2U) (A1G) (B2G) (E1U) (E1U) (E2G)
                 (E2G) (B1U) (E2G) (E2G) (E1U) (E1U) (B2U) (A2U)
                 (B1U) (A2G) (A1G) (E2G) (E2G) (E1G) (E1G) (A1G)
                 (E1U) (E1U) (E2U) (E2U) (B2G) (B1U) (E2G) (E2G)
                 (E1U) (E1U) (A2G) (A1G) (E1U) (E1U) (E2G) (E2G)
                 (E1U) (E1U) (B1U) (E2G) (E2G) (B1U)
 Initial guess <Sx>= 0.0000 <Sy>= 0.0000 <Sz>= 0.5000 <S**2>= 0.7500 S= 0.5000
 Leave Link  401 at Wed Apr 22 16:21:11 2020, MaxMem=  6710886400 cpu:               3.1 elap:               0.2
 (Enter /opt/ohpc/pub/libs/gaussian/g16-A.03/sandybridge/g16/l502.exe)
 Keep R1 and R2 ints in memory in symmetry-blocked form, NReq=19109854.
 FoFCou: FMM=F IPFlag=           0 FMFlag=           0 FMFlg1=           0
         NFxFlg=           0 DoJE=F BraDBF=F KetDBF=F FulRan=T
         wScrn=  0.000000 ICntrl=       600 IOpCl=  0 I1Cent=           0 NGrid=           0
         NMat0=    1 NMatS0=   2211 NMatT0=    0 NMatD0=    1 NMtDS0=    0 NMtDT0=    0
 Petite list used in FoFCou.
 UHF open shell SCF:
 Using DIIS extrapolation, IDIIS=    10.
 NGot=  6710886400 LenX=  6710146038 LenY=  6710141241
 Requested convergence on RMS density matrix=1.00D-06 within  32 cycles.
 Requested convergence on MAX density matrix=1.00D-04.
 Requested convergence on             energy=1.00D-04.
 Virtual orbitals will be shifted by   0.500 hartree.
 No special actions if energy rises.
 Dynamic level shift is on during FON iterations.

 Cycle   1  Pass 1  IDiag  1:
 Density matrix breaks symmetry, PCut= 1.00D-04
 Density has only Abelian symmetry.
 E= -231.644675639479    
 DIIS: error= 1.70D-02 at cycle   1 NSaved=   1.
 NSaved= 1 IEnMin= 1 EnMin= -231.644675639479     IErMin= 1 ErrMin= 1.70D-02
 ErrMax= 1.70D-02  0.00D+00 EMaxC= 1.00D+00 BMatC= 7.23D-02 BMatP= 7.23D-02
 IDIUse=1 WtCom= 1.00D+00 WtEn= 0.00D+00
 Coeff-Com:  0.100D+01
 Coeff:      0.100D+01
 Gap=     0.385 Goal=   None    Shift=    0.500
 T= 1154. Gap= 0.886 NK=0 IS=   22 IE=   66 IFin=   21
          NO(<0.9)=   0  NV(>0.1)=   0     21.00e < EF      0.00e >EF  Err=0.0D+00
 Gap=     0.198 Goal=   None    Shift=    0.500
 T= 1154. Gap= 0.698 NK=0 IS=   21 IE=   66 IFin=   20
          NO(<0.9)=   0  NV(>0.1)=   0     20.00e < EF      0.00e >EF  Err=0.0D+00
 GapD=    0.198 DampG=1.000 DampE=0.500 DampFc=0.5000 IDamp=-1.
 Damping current iteration by 5.00D-01
 RMSDP=3.29D-03 MaxDP=2.93D-02              OVMax= 3.50D-02

 Cycle   2  Pass 1  IDiag  1:
 Density matrix breaks symmetry, PCut= 1.00D-04
 Density has only Abelian symmetry.
 E= -231.656259817118     Delta-E=       -0.011584177639 Rises=F Damp=T
 DIIS: error= 9.95D-03 at cycle   2 NSaved=   2.
 NSaved= 2 IEnMin= 2 EnMin= -231.656259817118     IErMin= 2 ErrMin= 9.95D-03
 ErrMax= 9.95D-03  0.00D+00 EMaxC= 1.00D+00 BMatC= 1.76D-02 BMatP= 7.23D-02
 IDIUse=1 WtCom= 1.00D+00 WtEn= 0.00D+00
 Coeff-Com: -0.828D+00 0.183D+01
 Coeff:     -0.828D+00 0.183D+01
 Gap=     0.405 Goal=   None    Shift=    0.500
 T= 1065. Gap= 0.905 NK=0 IS=   22 IE=   66 IFin=   21
          NO(<0.9)=   0  NV(>0.1)=   0     21.00e < EF      0.00e >EF  Err=0.0D+00
 Gap=     0.222 Goal=   None    Shift=    0.500
 T= 1065. Gap= 0.722 NK=0 IS=   21 IE=   66 IFin=   20
          NO(<0.9)=   0  NV(>0.1)=   0     20.00e < EF      0.00e >EF  Err=0.0D+00
 GapD=    0.222 DampG=1.000 DampE=1.000 DampFc=1.0000 IDamp=-1.
 RMSDP=2.36D-03 MaxDP=1.66D-02 DE=-1.16D-02 OVMax= 1.68D-02

 Cycle   3  Pass 1  IDiag  1:
 Density matrix breaks symmetry, PCut= 1.00D-04
 Density has only Abelian symmetry.
 E= -231.665850386362     Delta-E=       -0.009590569245 Rises=F Damp=F
 DIIS: error= 5.43D-03 at cycle   3 NSaved=   3.
 NSaved= 3 IEnMin= 3 EnMin= -231.665850386362     IErMin= 3 ErrMin= 5.43D-03
 ErrMax= 5.43D-03  0.00D+00 EMaxC= 1.00D+00 BMatC= 7.75D-04 BMatP= 1.76D-02
 IDIUse=1 WtCom= 1.00D+00 WtEn= 0.00D+00
 Coeff-Com:  0.151D+00-0.336D+00 0.119D+01
 Coeff:      0.151D+00-0.336D+00 0.119D+01
 Gap=     0.399 Goal=   None    Shift=    0.500
 T=  882. Gap= 0.899 NK=0 IS=   22 IE=   66 IFin=   21
          NO(<0.9)=   0  NV(>0.1)=   0     21.00e < EF      0.00e >EF  Err=0.0D+00
 Gap=     0.222 Goal=   None    Shift=    0.500
 T=  882. Gap= 0.722 NK=0 IS=   21 IE=   66 IFin=   20
          NO(<0.9)=   0  NV(>0.1)=   0     20.00e < EF      0.00e >EF  Err=0.0D+00
 GapD=    0.222 DampG=1.000 DampE=1.000 DampFc=1.0000 IDamp=-1.
 RMSDP=4.06D-04 MaxDP=3.48D-03 DE=-9.59D-03 OVMax= 1.12D-02

 Cycle   4  Pass 1  IDiag  1:
 Density matrix breaks symmetry, PCut= 1.00D-04
 Density has only Abelian symmetry.
 E= -231.666436908625     Delta-E=       -0.000586522263 Rises=F Damp=F
 DIIS: error= 4.28D-03 at cycle   4 NSaved=   4.
 NSaved= 4 IEnMin= 4 EnMin= -231.666436908625     IErMin= 4 ErrMin= 4.28D-03
 ErrMax= 4.28D-03  0.00D+00 EMaxC= 1.00D+00 BMatC= 3.75D-04 BMatP= 7.75D-04
 IDIUse=1 WtCom= 1.00D+00 WtEn= 0.00D+00
 Coeff-Com:  0.125D+00-0.280D+00-0.627D+00 0.178D+01
 Coeff:      0.125D+00-0.280D+00-0.627D+00 0.178D+01
 Gap=     0.397 Goal=   None    Shift=    0.500
 T=  583. Gap= 0.897 NK=0 IS=   22 IE=   66 IFin=   21
          NO(<0.9)=   0  NV(>0.1)=   0     21.00e < EF      0.00e >EF  Err=0.0D+00
 Gap=     0.226 Goal=   None    Shift=    0.500
 T=  583. Gap= 0.726 NK=0 IS=   21 IE=   66 IFin=   20
          NO(<0.9)=   0  NV(>0.1)=   0     20.00e < EF      0.00e >EF  Err=0.0D+00
 GapD=    0.226 DampG=1.000 DampE=1.000 DampFc=1.0000 IDamp=-1.
 RMSDP=2.87D-04 MaxDP=3.59D-03 DE=-5.87D-04 OVMax= 1.16D-02

 Cycle   5  Pass 1  IDiag  1:
 Density matrix breaks symmetry, PCut= 1.00D-04
 Density has only Abelian symmetry.
 E= -231.666823293321     Delta-E=       -0.000386384696 Rises=F Damp=F
 DIIS: error= 2.65D-03 at cycle   5 NSaved=   5.
 NSaved= 5 IEnMin= 5 EnMin= -231.666823293321     IErMin= 5 ErrMin= 2.65D-03
 ErrMax= 2.65D-03  0.00D+00 EMaxC= 1.00D+00 BMatC= 1.57D-04 BMatP= 3.75D-04
 IDIUse=1 WtCom= 1.00D+00 WtEn= 0.00D+00
 Coeff-Com: -0.127D+00 0.277D+00-0.521D+00-0.102D+01 0.239D+01
 Coeff:     -0.127D+00 0.277D+00-0.521D+00-0.102D+01 0.239D+01
 Gap=     0.395 Goal=   None    Shift=    0.500
 T=  305. Gap= 0.895 NK=0 IS=   22 IE=   66 IFin=   21
          NO(<0.9)=   0  NV(>0.1)=   0     21.00e < EF      0.00e >EF  Err=0.0D+00
 Gap=     0.229 Goal=   None    Shift=    0.500
 T=  305. Gap= 0.729 NK=0 IS=   21 IE=   66 IFin=   20
          NO(<0.9)=   0  NV(>0.1)=   0     20.00e < EF      0.00e >EF  Err=0.0D+00
 GapD=    0.229 DampG=1.000 DampE=1.000 DampFc=1.0000 IDamp=-1.
 RMSDP=2.34D-04 MaxDP=3.56D-03 DE=-3.86D-04 OVMax= 1.03D-02

 Cycle   6  Pass 1  IDiag  1:
 Density matrix breaks symmetry, PCut= 1.00D-04
 Density has only Abelian symmetry.
 E= -231.667044249490     Delta-E=       -0.000220956169 Rises=F Damp=F
 DIIS: error= 1.44D-03 at cycle   6 NSaved=   6.
 NSaved= 6 IEnMin= 6 EnMin= -231.667044249490     IErMin= 6 ErrMin= 1.44D-03
 ErrMax= 1.44D-03  0.00D+00 EMaxC= 1.00D+00 BMatC= 4.42D-05 BMatP= 1.57D-04
 IDIUse=1 WtCom= 1.00D+00 WtEn= 0.00D+00
 Coeff-Com:  0.192D-01-0.386D-01 0.180D+00-0.365D-01-0.139D+01 0.227D+01
 Coeff:      0.192D-01-0.386D-01 0.180D+00-0.365D-01-0.139D+01 0.227D+01
 Gap=     0.394 Goal=   None    Shift=    0.500
 T=   71. Gap= 0.894 NK=0 IS=   22 IE=   66 IFin=   21
          NO(<0.9)=   0  NV(>0.1)=   0     21.00e < EF      0.00e >EF  Err=0.0D+00
 Gap=     0.230 Goal=   None    Shift=    0.500
 T=   71. Gap= 0.730 NK=0 IS=   21 IE=   66 IFin=   20
          NO(<0.9)=   0  NV(>0.1)=   0     20.00e < EF      0.00e >EF  Err=0.0D+00
 GapD=    0.230 DampG=1.000 DampE=1.000 DampFc=1.0000 IDamp=-1.
 RMSDP=1.27D-04 MaxDP=2.16D-03 DE=-2.21D-04 OVMax= 5.89D-03

 Cycle   7  Pass 1  IDiag  1:
 Density matrix breaks symmetry, PCut= 1.00D-04
 Density has only Abelian symmetry.
 E= -231.667110026851     Delta-E=       -0.000065777361 Rises=F Damp=F
 DIIS: error= 7.50D-04 at cycle   7 NSaved=   7.
 NSaved= 7 IEnMin= 7 EnMin= -231.667110026851     IErMin= 7 ErrMin= 7.50D-04
 ErrMax= 7.50D-04  0.00D+00 EMaxC= 1.00D+00 BMatC= 1.23D-05 BMatP= 4.42D-05
 IDIUse=1 WtCom= 1.00D+00 WtEn= 0.00D+00
 Coeff-Com: -0.236D-01 0.487D-01-0.189D+00-0.442D-01 0.154D+01-0.397D+01
 Coeff-Com:  0.364D+01
 Coeff:     -0.236D-01 0.487D-01-0.189D+00-0.442D-01 0.154D+01-0.397D+01
 Coeff:      0.364D+01
 Gap=     0.394 Goal=   None    Shift=    0.500
 Gap=     0.230 Goal=   None    Shift=    0.500
 RMSDP=6.55D-05 MaxDP=1.12D-03 DE=-6.58D-05 OVMax= 3.16D-03

 Cycle   8  Pass 1  IDiag  1:
 Density matrix breaks symmetry, PCut= 1.00D-04
 Density has only Abelian symmetry.
 E= -231.667127599700     Delta-E=       -0.000017572849 Rises=F Damp=F
 DIIS: error= 3.81D-04 at cycle   8 NSaved=   8.
 NSaved= 8 IEnMin= 8 EnMin= -231.667127599700     IErMin= 8 ErrMin= 3.81D-04
 ErrMax= 3.81D-04  0.00D+00 EMaxC= 1.00D+00 BMatC= 3.11D-06 BMatP= 1.23D-05
 IDIUse=1 WtCom= 1.00D+00 WtEn= 0.00D+00
 Coeff-Com:  0.587D-02-0.106D-01 0.435D-01-0.236D-01-0.437D+00 0.162D+01
 Coeff-Com: -0.315D+01 0.295D+01
 Coeff:      0.587D-02-0.106D-01 0.435D-01-0.236D-01-0.437D+00 0.162D+01
 Coeff:     -0.315D+01 0.295D+01
 Gap=     0.394 Goal=   None    Shift=    0.500
 Gap=     0.230 Goal=   None    Shift=    0.500
 RMSDP=3.15D-05 MaxDP=5.05D-04 DE=-1.76D-05 OVMax= 1.60D-03

 Cycle   9  Pass 1  IDiag  1:
 Density matrix breaks symmetry, PCut= 1.00D-04
 Density has only Abelian symmetry.
 E= -231.667131814749     Delta-E=       -0.000004215049 Rises=F Damp=F
 DIIS: error= 1.88D-04 at cycle   9 NSaved=   9.
 NSaved= 9 IEnMin= 9 EnMin= -231.667131814749     IErMin= 9 ErrMin= 1.88D-04
 ErrMax= 1.88D-04  0.00D+00 EMaxC= 1.00D+00 BMatC= 7.05D-07 BMatP= 3.11D-06
 IDIUse=1 WtCom= 1.00D+00 WtEn= 0.00D+00
 Coeff-Com: -0.461D-02 0.882D-02-0.281D-01-0.233D-02 0.284D+00-0.995D+00
 Coeff-Com:  0.198D+01-0.322D+01 0.298D+01
 Coeff:     -0.461D-02 0.882D-02-0.281D-01-0.233D-02 0.284D+00-0.995D+00
 Coeff:      0.198D+01-0.322D+01 0.298D+01
 Gap=     0.394 Goal=   None    Shift=    0.500
 Gap=     0.230 Goal=   None    Shift=    0.500
 RMSDP=1.46D-05 MaxDP=2.35D-04 DE=-4.22D-06 OVMax= 7.81D-04

 Cycle  10  Pass 1  IDiag  1:
 Density matrix breaks symmetry, PCut= 1.00D-04
 Density has only Abelian symmetry.
 E= -231.667132762586     Delta-E=       -0.000000947838 Rises=F Damp=F
 DIIS: error= 9.24D-05 at cycle  10 NSaved=  10.
 NSaved=10 IEnMin=10 EnMin= -231.667132762586     IErMin=10 ErrMin= 9.24D-05
 ErrMax= 9.24D-05  0.00D+00 EMaxC= 1.00D+00 BMatC= 1.55D-07 BMatP= 7.05D-07
 IDIUse=1 WtCom= 1.00D+00 WtEn= 0.00D+00
 Coeff-Com:  0.186D-02-0.339D-02 0.103D-01-0.586D-02-0.976D-01 0.388D+00
 Coeff-Com: -0.865D+00 0.159D+01-0.278D+01 0.276D+01
 Coeff:      0.186D-02-0.339D-02 0.103D-01-0.586D-02-0.976D-01 0.388D+00
 Coeff:     -0.865D+00 0.159D+01-0.278D+01 0.276D+01
 Gap=     0.394 Goal=   None    Shift=    0.500
 Gap=     0.230 Goal=   None    Shift=    0.500
 RMSDP=6.80D-06 MaxDP=1.11D-04 DE=-9.48D-07 OVMax= 3.77D-04

 Cycle  11  Pass 1  IDiag  1:
 Density matrix breaks symmetry, PCut= 1.00D-04
 Density has only Abelian symmetry.
 E= -231.667132970241     Delta-E=       -0.000000207655 Rises=F Damp=F
 DIIS: error= 4.51D-05 at cycle  11 NSaved=  11.
 NSaved=11 IEnMin=11 EnMin= -231.667132970241     IErMin=11 ErrMin= 4.51D-05
 ErrMax= 4.51D-05  0.00D+00 EMaxC= 1.00D+00 BMatC= 3.36D-08 BMatP= 1.55D-07
 IDIUse=1 WtCom= 1.00D+00 WtEn= 0.00D+00
 Coeff-Com: -0.511D-03 0.959D-03-0.232D-02 0.527D-03 0.178D-01-0.694D-01
 Coeff-Com:  0.165D+00-0.392D+00 0.942D+00-0.220D+01 0.254D+01
 Coeff:     -0.511D-03 0.959D-03-0.232D-02 0.527D-03 0.178D-01-0.694D-01
 Coeff:      0.165D+00-0.392D+00 0.942D+00-0.220D+01 0.254D+01
 Gap=     0.394 Goal=   None    Shift=    0.500
 Gap=     0.230 Goal=   None    Shift=    0.500
 RMSDP=3.14D-06 MaxDP=5.10D-05 DE=-2.08D-07 OVMax= 1.80D-04

 Cycle  12  Pass 1  IDiag  1:
 Density matrix breaks symmetry, PCut= 1.00D-04
 Density has only Abelian symmetry.
 E= -231.667133015210     Delta-E=       -0.000000044968 Rises=F Damp=F
 DIIS: error= 2.23D-05 at cycle  12 NSaved=  12.
 NSaved=12 IEnMin=12 EnMin= -231.667133015210     IErMin=12 ErrMin= 2.23D-05
 ErrMax= 2.23D-05  0.00D+00 EMaxC= 1.00D+00 BMatC= 7.42D-09 BMatP= 3.36D-08
 IDIUse=1 WtCom= 1.00D+00 WtEn= 0.00D+00
 Coeff-Com: -0.192D-03 0.394D-03-0.126D-02-0.960D-03 0.166D-01-0.551D-01
 Coeff-Com:  0.111D+00-0.171D+00 0.130D+00 0.489D+00-0.232D+01 0.280D+01
 Coeff:     -0.192D-03 0.394D-03-0.126D-02-0.960D-03 0.166D-01-0.551D-01
 Coeff:      0.111D+00-0.171D+00 0.130D+00 0.489D+00-0.232D+01 0.280D+01
 Gap=     0.394 Goal=   None    Shift=    0.500
 Gap=     0.230 Goal=   None    Shift=    0.500
 RMSDP=1.44D-06 MaxDP=2.34D-05 DE=-4.50D-08 OVMax= 8.78D-05

 Cycle  13  Pass 1  IDiag  1:
 Density matrix breaks symmetry, PCut= 1.00D-04
 Density has only Abelian symmetry.
 E= -231.667133025072     Delta-E=       -0.000000009863 Rises=F Damp=F
 DIIS: error= 1.09D-05 at cycle  13 NSaved=  13.
 NSaved=13 IEnMin=13 EnMin= -231.667133025072     IErMin=13 ErrMin= 1.09D-05
 ErrMax= 1.09D-05  0.00D+00 EMaxC= 1.00D+00 BMatC= 1.64D-09 BMatP= 7.42D-09
 IDIUse=1 WtCom= 1.00D+00 WtEn= 0.00D+00
 Coeff-Com:  0.119D-03-0.234D-03 0.746D-03 0.458D-04-0.802D-02 0.276D-01
 Coeff-Com: -0.554D-01 0.851D-01-0.743D-01-0.210D+00 0.127D+01-0.315D+01
 Coeff-Com:  0.311D+01
 Coeff:      0.119D-03-0.234D-03 0.746D-03 0.458D-04-0.802D-02 0.276D-01
 Coeff:     -0.554D-01 0.851D-01-0.743D-01-0.210D+00 0.127D+01-0.315D+01
 Coeff:      0.311D+01
 Gap=     0.394 Goal=   None    Shift=    0.500
 Gap=     0.230 Goal=   None    Shift=    0.500
 RMSDP=6.59D-07 MaxDP=1.08D-05 DE=-9.86D-09 OVMax= 4.23D-05

 Density matrix breaks symmetry, PCut= 1.00D-04
 Density has only Abelian symmetry.
 SCF Done:  E(ULC-wHPBE) =  -231.667133025     A.U. after   13 cycles
            NFock= 13  Conv=0.66D-06     -V/T= 2.0046
 <Sx>= 0.0000 <Sy>= 0.0000 <Sz>= 0.5000 <S**2>= 0.7760 S= 0.5129
 <L.S>= 0.000000000000E+00
 KE= 2.305970481982D+02 PE=-9.349020803556D+02 EE= 2.690939010403D+02
 Annihilation of the first spin contaminant:
 S**2 before annihilation     0.7760,   after     0.7503
 Leave Link  502 at Wed Apr 22 16:21:13 2020, MaxMem=  6710886400 cpu:              17.5 elap:               1.2
 (Enter /opt/ohpc/pub/libs/gaussian/g16-A.03/sandybridge/g16/l508.exe)
 QCSCF skips out because SCF is already converged.
 Leave Link  508 at Wed Apr 22 16:21:13 2020, MaxMem=  6710886400 cpu:               0.0 elap:               0.0
 (Enter /opt/ohpc/pub/libs/gaussian/g16-A.03/sandybridge/g16/l601.exe)
 Copying SCF densities to generalized density rwf, IOpCl= 1 IROHF=0.
 SCF density gives NOpUse=  8 NOpAll= 24.
 Marking SCF density as not fully symmetric.

 **********************************************************************

            Population analysis using the SCF density.

 **********************************************************************

 Orbital symmetries:
 Alpha Orbitals:
       Occupied  (?A) (?A) (?A) (?A) (?A) (?A) (?B) (?B) (?B) (?B)
                 (?B) (?B) (?B) (?B) (?B) (?B) (?C) (?B) (?B) (?C)
                 (?C)
       Virtual   (?C) (?C) (?B) (?C) (?B) (?B) (?B) (?B) (?B) (?B)
                 (?B) (?B) (?B) (?B) (?C) (?B) (?B) (?B) (?C) (?C)
                 (?B) (?B) (?B) (?C) (?B) (?B) (?C) (?C) (?B) (?B)
                 (?B) (?B) (?B) (?B) (?B) (?B) (?B) (?B) (?B) (?B)
                 (?B) (?B) (?B) (?B) (?B)
 Beta  Orbitals:
       Occupied  (?A) (?A) (?A) (?A) (?A) (?A) (?B) (B2G) (B2G)
                 (?B) (?B) (?B) (B2G) (B2G) (B2G) (B2G) (?C) (?B)
                 (?B) (?D)
       Virtual   (?D) (?C) (?C) (?D) (?D) (B2G) (B2G) (?D) (?D)
                 (B2G) (?D) (?D) (B2G) (B2G) (B2G) (?C) (B2G) (?D)
                 (?D) (?D) (?D) (?D) (?D) (?D) (B2G) (B2G) (?C)
                 (?C) (?D) (B2G) (?A) (?A) (B2G) (B2G) (?A) (?D)
                 (B2G) (B2G) (?D) (?D) (B2G) (B2G) (B2G) (E2G)
                 (E2G) (B1U)
 Unable to determine electronic state:  an orbital has unidentified symmetry.
 Alpha  occ. eigenvalues --  -10.33183 -10.33179 -10.33156 -10.33151 -10.29376
 Alpha  occ. eigenvalues --  -10.29372  -1.21632  -1.11086  -1.08439  -0.94245
 Alpha  occ. eigenvalues --   -0.94242  -0.85907  -0.79053  -0.77869  -0.75993
 Alpha  occ. eigenvalues --   -0.73901  -0.72926  -0.66446  -0.66136  -0.61256
 Alpha  occ. eigenvalues --   -0.57251
 Alpha virt. eigenvalues --   -0.17873  -0.14385  -0.00831   0.01751   0.04339
 Alpha virt. eigenvalues --    0.05468   0.07882   0.08968   0.10412   0.17940
 Alpha virt. eigenvalues --    0.18432   0.19216   0.19784   0.37895   0.38722
 Alpha virt. eigenvalues --    0.41193   0.43616   0.43983   0.46837   0.49101
 Alpha virt. eigenvalues --    0.49373   0.49896   0.52742   0.53268   0.53856
 Alpha virt. eigenvalues --    0.54318   0.55286   0.62537   0.72548   0.73895
 Alpha virt. eigenvalues --    0.75291   0.78269   0.79963   0.85641   0.86042
 Alpha virt. eigenvalues --    0.88226   0.88246   1.00261   1.01858   1.06240
 Alpha virt. eigenvalues --    1.07200   1.11512   1.33694   1.33951   1.79136
  Beta  occ. eigenvalues --  -10.32712 -10.32712 -10.32691 -10.32686 -10.29577
  Beta  occ. eigenvalues --  -10.29573  -1.20481  -1.08784  -1.08237  -0.93709
  Beta  occ. eigenvalues --   -0.93283  -0.85600  -0.78579  -0.77421  -0.75450
  Beta  occ. eigenvalues --   -0.73917  -0.67946  -0.66228  -0.65847  -0.57099
  Beta virt. eigenvalues --   -0.34106  -0.12575  -0.12516  -0.00639   0.04048
  Beta virt. eigenvalues --    0.04609   0.05520   0.08679   0.09115   0.10725
  Beta virt. eigenvalues --    0.18549   0.18632   0.19703   0.20152   0.38239
  Beta virt. eigenvalues --    0.40274   0.42268   0.44074   0.44349   0.49472
  Beta virt. eigenvalues --    0.49492   0.50051   0.50467   0.53067   0.54599
  Beta virt. eigenvalues --    0.55056   0.55397   0.55632   0.63496   0.72856
  Beta virt. eigenvalues --    0.74254   0.75374   0.78916   0.79981   0.85872
  Beta virt. eigenvalues --    0.86270   0.88516   0.89218   1.01582   1.02152
  Beta virt. eigenvalues --    1.07117   1.07307   1.12009   1.34222   1.34763
  Beta virt. eigenvalues --    1.79908
          Condensed to atoms (all electrons):
               1          2          3          4          5          6
     1  C    4.912316   0.521418  -0.063616  -0.022981  -0.063616   0.521418
     2  C    0.521418   4.965493   0.412521  -0.063616  -0.023767  -0.049505
     3  C   -0.063616   0.412521   4.965493   0.521418  -0.049505  -0.023767
     4  C   -0.022981  -0.063616   0.521418   4.912316   0.521418  -0.063616
     5  C   -0.063616  -0.023767  -0.049505   0.521418   4.965493   0.412521
     6  C    0.521418  -0.049505  -0.023767  -0.063616   0.412521   4.965493
     7  H    0.371540  -0.024092   0.003258   0.000064   0.003258  -0.024092
     8  H   -0.020372   0.365819  -0.028265   0.002997   0.000062   0.003168
     9  H    0.002997  -0.028265   0.365819  -0.020372   0.003168   0.000062
    10  H    0.000064   0.003258  -0.024092   0.371540  -0.024092   0.003258
    11  H    0.002997   0.000062   0.003168  -0.020372   0.365819  -0.028265
    12  H   -0.020372   0.003168   0.000062   0.002997  -0.028265   0.365819
               7          8          9         10         11         12
     1  C    0.371540  -0.020372   0.002997   0.000064   0.002997  -0.020372
     2  C   -0.024092   0.365819  -0.028265   0.003258   0.000062   0.003168
     3  C    0.003258  -0.028265   0.365819  -0.024092   0.003168   0.000062
     4  C    0.000064   0.002997  -0.020372   0.371540  -0.020372   0.002997
     5  C    0.003258   0.000062   0.003168  -0.024092   0.365819  -0.028265
     6  C   -0.024092   0.003168   0.000062   0.003258  -0.028265   0.365819
     7  H    0.417164  -0.002606  -0.000071   0.000002  -0.000071  -0.002606
     8  H   -0.002606   0.407370  -0.002305  -0.000071   0.000004  -0.000067
     9  H   -0.000071  -0.002305   0.407370  -0.002606  -0.000067   0.000004
    10  H    0.000002  -0.000071  -0.002606   0.417164  -0.002606  -0.000071
    11  H   -0.000071   0.000004  -0.000067  -0.002606   0.407370  -0.002305
    12  H   -0.002606  -0.000067   0.000004  -0.000071  -0.002305   0.407370
          Atomic-Atomic Spin Densities.
               1          2          3          4          5          6
     1  C   -0.182884  -0.007035  -0.007513   0.005922  -0.007513  -0.007035
     2  C   -0.007035   0.355685   0.040354  -0.007513  -0.007269  -0.006001
     3  C   -0.007513   0.040354   0.355685  -0.007035  -0.006001  -0.007269
     4  C    0.005922  -0.007513  -0.007035  -0.182884  -0.007035  -0.007513
     5  C   -0.007513  -0.007269  -0.006001  -0.007035   0.355685   0.040354
     6  C   -0.007035  -0.006001  -0.007269  -0.007513   0.040354   0.355685
     7  H    0.001537  -0.000935   0.000151  -0.000052   0.000151  -0.000935
     8  H    0.000060   0.000388  -0.001802  -0.000009  -0.000055   0.000083
     9  H   -0.000009  -0.001802   0.000388   0.000060   0.000083  -0.000055
    10  H   -0.000052   0.000151  -0.000935   0.001537  -0.000935   0.000151
    11  H   -0.000009  -0.000055   0.000083   0.000060   0.000388  -0.001802
    12  H    0.000060   0.000083  -0.000055  -0.000009  -0.001802   0.000388
               7          8          9         10         11         12
     1  C    0.001537   0.000060  -0.000009  -0.000052  -0.000009   0.000060
     2  C   -0.000935   0.000388  -0.001802   0.000151  -0.000055   0.000083
     3  C    0.000151  -0.001802   0.000388  -0.000935   0.000083  -0.000055
     4  C   -0.000052  -0.000009   0.000060   0.001537   0.000060  -0.000009
     5  C    0.000151  -0.000055   0.000083  -0.000935   0.000388  -0.001802
     6  C   -0.000935   0.000083  -0.000055   0.000151  -0.001802   0.000388
     7  H    0.005078  -0.000003   0.000004  -0.000001   0.000004  -0.000003
     8  H   -0.000003  -0.014941  -0.000047   0.000004  -0.000000   0.000005
     9  H    0.000004  -0.000047  -0.014941  -0.000003   0.000005  -0.000000
    10  H   -0.000001   0.000004  -0.000003   0.005078  -0.000003   0.000004
    11  H    0.000004  -0.000000   0.000005  -0.000003  -0.014941  -0.000047
    12  H   -0.000003   0.000005  -0.000000   0.000004  -0.000047  -0.014941
 Mulliken charges and spin densities:
               1          2
     1  C   -0.141792  -0.204469
     2  C   -0.082495   0.366053
     3  C   -0.082495   0.366053
     4  C   -0.141792  -0.204469
     5  C   -0.082495   0.366053
     6  C   -0.082495   0.366053
     7  H    0.258251   0.004997
     8  H    0.274265  -0.016318
     9  H    0.274265  -0.016318
    10  H    0.258251   0.004997
    11  H    0.274265  -0.016318
    12  H    0.274265  -0.016318
 Sum of Mulliken charges =   1.00000   1.00000
 Mulliken charges and spin densities with hydrogens summed into heavy atoms:
               1          2
     1  C    0.116460  -0.199472
     2  C    0.191770   0.349736
     3  C    0.191770   0.349736
     4  C    0.116460  -0.199472
     5  C    0.191770   0.349736
     6  C    0.191770   0.349736
 Electronic spatial extent (au):  <R**2>=            437.1402
 Charge=              1.0000 electrons
 Dipole moment (field-independent basis, Debye):
    X=             -0.0000    Y=              0.0000    Z=             -0.0000  Tot=              0.0000
 Quadrupole moment (field-independent basis, Debye-Ang):
   XX=            -18.0215   YY=            -21.6887   ZZ=            -35.0147
   XY=             -0.0000   XZ=              0.0000   YZ=              0.0000
 Traceless Quadrupole moment (field-independent basis, Debye-Ang):
   XX=              6.8868   YY=              3.2196   ZZ=            -10.1064
   XY=             -0.0000   XZ=              0.0000   YZ=              0.0000
 Octapole moment (field-independent basis, Debye-Ang**2):
  XXX=              0.0000  YYY=              0.0000  ZZZ=              0.0000  XYY=             -0.0000
  XXY=             -0.0000  XXZ=              0.0000  XZZ=              0.0000  YZZ=              0.0000
  YYZ=              0.0000  XYZ=              0.0000
 Hexadecapole moment (field-independent basis, Debye-Ang**3):
 XXXX=           -195.6508 YYYY=           -210.0125 ZZZZ=            -34.1275 XXXY=              0.0000
 XXXZ=              0.0000 YYYX=              0.0000 YYYZ=              0.0000 ZZZX=             -0.0000
 ZZZY=             -0.0000 XXYY=            -66.0932 XXZZ=            -51.9783 YYZZ=            -55.2812
 XXYZ=              0.0000 YYXZ=              0.0000 ZZXY=              0.0000
 N-N= 2.035439980921D+02 E-N=-9.349020820512D+02  KE= 2.305970481982D+02
 Symmetry AG   KE= 7.452004841387D+01
 Symmetry B1G  KE= 3.776554325569D+01
 Symmetry B2G  KE= 1.197651275960D+00
 Symmetry B3G  KE= 2.342889474256D+00
 Symmetry AU   KE=-6.311270564658D-17
 Symmetry B1U  KE= 1.958311623782D+00
 Symmetry B2U  KE= 7.220187574864D+01
 Symmetry B3U  KE= 4.061072840599D+01
 Symmetry AG   SP= 2.746141801371D-15
 Symmetry B1G  SP=-2.721652384800D-15
 Symmetry B2G  SP= 1.000000000000D+00
 Symmetry B3G  SP= 2.321791847323D-15
 Symmetry AU   SP=-8.509201755139D-17
 Symmetry B1U  SP= 1.179991434425D-15
 Symmetry B2U  SP= 1.977130075327D-14
 Symmetry B3U  SP= 1.281066181955D-14
                          Isotropic Fermi Contact Couplings
        Atom                 a.u.       MegaHertz       Gauss      10(-4) cm-1
     1  C(13)             -0.03151     -35.42851     -12.64177     -11.81768
     2  C(13)              0.04319      48.55552      17.32582      16.19638
     3  C(13)              0.04319      48.55552      17.32582      16.19638
     4  C(13)             -0.03151     -35.42851     -12.64177     -11.81768
     5  C(13)              0.04319      48.55552      17.32582      16.19638
     6  C(13)              0.04319      48.55552      17.32582      16.19638
     7  H(1)               0.00195       8.71611       3.11013       2.90738
     8  H(1)              -0.00637     -28.45712     -10.15421      -9.49227
     9  H(1)              -0.00637     -28.45712     -10.15421      -9.49227
    10  H(1)               0.00195       8.71611       3.11013       2.90738
    11  H(1)              -0.00637     -28.45712     -10.15421      -9.49227
    12  H(1)              -0.00637     -28.45712     -10.15421      -9.49227
 --------------------------------------------------------
       Center         ----  Spin Dipole Couplings  ----
                      3XX-RR        3YY-RR        3ZZ-RR
 --------------------------------------------------------
     1   Atom        0.070005      0.062215     -0.132221
     2   Atom       -0.187637     -0.180219      0.367856
     3   Atom       -0.187637     -0.180219      0.367856
     4   Atom        0.070005      0.062215     -0.132221
     5   Atom       -0.187637     -0.180219      0.367856
     6   Atom       -0.187637     -0.180219      0.367856
     7   Atom        0.006400     -0.000774     -0.005626
     8   Atom        0.011239     -0.003672     -0.007567
     9   Atom        0.011239     -0.003672     -0.007567
    10   Atom        0.006400     -0.000774     -0.005626
    11   Atom        0.011239     -0.003672     -0.007567
    12   Atom        0.011239     -0.003672     -0.007567
 --------------------------------------------------------
                        XY            XZ            YZ
 --------------------------------------------------------
     1   Atom        0.000000      0.000000      0.000000
     2   Atom       -0.004836     -0.000000     -0.000000
     3   Atom        0.004836     -0.000000      0.000000
     4   Atom       -0.000000      0.000000     -0.000000
     5   Atom       -0.004836      0.000000      0.000000
     6   Atom        0.004836      0.000000     -0.000000
     7   Atom        0.000000     -0.000000     -0.000000
     8   Atom       -0.028395     -0.000000      0.000000
     9   Atom        0.028395     -0.000000     -0.000000
    10   Atom       -0.000000     -0.000000      0.000000
    11   Atom       -0.028395      0.000000     -0.000000
    12   Atom        0.028395      0.000000      0.000000
 --------------------------------------------------------


 ---------------------------------------------------------------------------------
              Anisotropic Spin Dipole Couplings in Principal Axis System
 ---------------------------------------------------------------------------------

       Atom             a.u.   MegaHertz   Gauss  10(-4) cm-1        Axes

              Baa    -0.1322   -17.743    -6.331    -5.918  0.0000  0.0000  1.0000
     1 C(13)  Bbb     0.0622     8.349     2.979     2.785 -0.0000  1.0000 -0.0000
              Bcc     0.0700     9.394     3.352     3.134  1.0000  0.0000 -0.0000
 
              Baa    -0.1900   -25.499    -9.099    -8.506  0.8968  0.4424 -0.0000
     2 C(13)  Bbb    -0.1778   -23.864    -8.515    -7.960 -0.4424  0.8968 -0.0000
              Bcc     0.3679    49.363    17.614    16.466  0.0000  0.0000  1.0000
 
              Baa    -0.1900   -25.499    -9.099    -8.506  0.8968 -0.4424  0.0000
     3 C(13)  Bbb    -0.1778   -23.864    -8.515    -7.960  0.4424  0.8968 -0.0000
              Bcc     0.3679    49.363    17.614    16.466  0.0000  0.0000  1.0000
 
              Baa    -0.1322   -17.743    -6.331    -5.918  0.0000  0.0000  1.0000
     4 C(13)  Bbb     0.0622     8.349     2.979     2.785  0.0000  1.0000  0.0000
              Bcc     0.0700     9.394     3.352     3.134  1.0000 -0.0000  0.0000
 
              Baa    -0.1900   -25.499    -9.099    -8.506  0.8968  0.4424 -0.0000
     5 C(13)  Bbb    -0.1778   -23.864    -8.515    -7.960 -0.4424  0.8968 -0.0000
              Bcc     0.3679    49.363    17.614    16.466  0.0000  0.0000  1.0000
 
              Baa    -0.1900   -25.499    -9.099    -8.506  0.8968 -0.4424  0.0000
     6 C(13)  Bbb    -0.1778   -23.864    -8.515    -7.960  0.4424  0.8968 -0.0000
              Bcc     0.3679    49.363    17.614    16.466  0.0000  0.0000  1.0000
 
              Baa    -0.0056    -3.002    -1.071    -1.001  0.0000  0.0000  1.0000
     7 H(1)   Bbb    -0.0008    -0.413    -0.147    -0.138 -0.0000  1.0000 -0.0000
              Bcc     0.0064     3.415     1.218     1.139  1.0000  0.0000 -0.0000
 
              Baa    -0.0256   -13.645    -4.869    -4.551  0.6108  0.7918  0.0000
     8 H(1)   Bbb    -0.0076    -4.037    -1.441    -1.347  0.0000  0.0000  1.0000
              Bcc     0.0331    17.682     6.309     5.898  0.7918 -0.6108  0.0000
 
              Baa    -0.0256   -13.645    -4.869    -4.551 -0.6108  0.7918  0.0000
     9 H(1)   Bbb    -0.0076    -4.037    -1.441    -1.347  0.0000  0.0000  1.0000
              Bcc     0.0331    17.682     6.309     5.898  0.7918  0.6108 -0.0000
 
              Baa    -0.0056    -3.002    -1.071    -1.001  0.0000  0.0000  1.0000
    10 H(1)   Bbb    -0.0008    -0.413    -0.147    -0.138  0.0000  1.0000  0.0000
              Bcc     0.0064     3.415     1.218     1.139  1.0000 -0.0000  0.0000
 
              Baa    -0.0256   -13.645    -4.869    -4.551  0.6108  0.7918  0.0000
    11 H(1)   Bbb    -0.0076    -4.037    -1.441    -1.347  0.0000  0.0000  1.0000
              Bcc     0.0331    17.682     6.309     5.898  0.7918 -0.6108  0.0000
 
              Baa    -0.0256   -13.645    -4.869    -4.551 -0.6108  0.7918  0.0000
    12 H(1)   Bbb    -0.0076    -4.037    -1.441    -1.347  0.0000  0.0000  1.0000
              Bcc     0.0331    17.682     6.309     5.898  0.7918  0.6108 -0.0000
 

 ---------------------------------------------------------------------------------

 No NMR shielding tensors so no spin-rotation constants.
 Leave Link  601 at Wed Apr 22 16:21:13 2020, MaxMem=  6710886400 cpu:               3.8 elap:               0.3
 (Enter /opt/ohpc/pub/libs/gaussian/g16-A.03/sandybridge/g16/l9999.exe)

 Test job not archived.
 1\1\GINC-CNODE136\SP\ULC-wHPBE\6-31G\C6H6(1+,2)\QAI222\22-Apr-2020\0\\
 #P uLC-wHPBE/6-31G iop(3/107=0313700000, 3/108=0313700000) scf=(conver
 =6,fermi,ndamp=35,noincfock,novaracc,vshift=500,xqc)\\H6 C6\\1,2\C,0,0
 .,1.39316,0.\C,0,-1.206512,0.69658,0.\C,0,-1.206512,-0.69658,0.\C,0,0.
 ,-1.39316,0.\C,0,1.206512,-0.69658,0.\C,0,1.206512,0.69658,0.\H,0,0.,2
 .482681,0.\H,0,-2.150065,1.24134,0.\H,0,-2.150065,-1.24134,0.\H,0,0.,-
 2.482681,0.\H,0,2.150065,-1.24134,0.\H,0,2.150065,1.24134,0.\\Version=
 EM64L-G16RevA.03\HF=-231.667133\S2=0.776024\S2-1=0.\S2A=0.750326\RMSD=
 6.588e-07\Dipole=0.,0.,0.\Quadrupole=5.120159,2.3936856,-7.5138446,0.,
 0.,0.\PG=D06H [3C2'(H1C1.C1H1)]\\@


 YOU ARE IN A MAZE OF TWISTY LITTLE PASSAGES.
 Job cpu time:       0 days  0 hours  0 minutes 41.1 seconds.
 Elapsed time:       0 days  0 hours  0 minutes  2.9 seconds.
 File lengths (MBytes):  RWF=    272 Int=      0 D2E=      0 Chk=     32 Scr=     32
 Normal termination of Gaussian 16 at Wed Apr 22 16:21:13 2020.
