 Entering Gaussian System, Link 0=g16
 Input=1b_tune_n9.gjf
 Output=1b_tune_n9.log
 Initial command:
 /opt/ohpc/pub/libs/gaussian/g16-A.03/haswell/g16/l1.exe "/scratch/smgo234/Ocelot/test/1b/tuning_1b_ocycle0/Gau-35607.inp" -scrdir="/scratch/smgo234/Ocelot/test/1b/tuning_1b_ocycle0/"
 Entering Link 1 = /opt/ohpc/pub/libs/gaussian/g16-A.03/haswell/g16/l1.exe PID=     35608.
  
 Copyright (c) 1988,1990,1992,1993,1995,1998,2003,2009,2016,
            Gaussian, Inc.  All Rights Reserved.
  
 This is part of the Gaussian(R) 16 program.  It is based on
 the Gaussian(R) 09 system (copyright 2009, Gaussian, Inc.),
 the Gaussian(R) 03 system (copyright 2003, Gaussian, Inc.),
 the Gaussian(R) 98 system (copyright 1998, Gaussian, Inc.),
 the Gaussian(R) 94 system (copyright 1995, Gaussian, Inc.),
 the Gaussian 92(TM) system (copyright 1992, Gaussian, Inc.),
 the Gaussian 90(TM) system (copyright 1990, Gaussian, Inc.),
 the Gaussian 88(TM) system (copyright 1988, Gaussian, Inc.),
 the Gaussian 86(TM) system (copyright 1986, Carnegie Mellon
 University), and the Gaussian 82(TM) system (copyright 1983,
 Carnegie Mellon University). Gaussian is a federally registered
 trademark of Gaussian, Inc.
  
 This software contains proprietary and confidential information,
 including trade secrets, belonging to Gaussian, Inc.
  
 This software is provided under written license and may be
 used, copied, transmitted, or stored only in accord with that
 written license.
  
 The following legend is applicable only to US Government
 contracts under FAR:
  
                    RESTRICTED RIGHTS LEGEND
  
 Use, reproduction and disclosure by the US Government is
 subject to restrictions as set forth in subparagraphs (a)
 and (c) of the Commercial Computer Software - Restricted
 Rights clause in FAR 52.227-19.
  
 Gaussian, Inc.
 340 Quinnipiac St., Bldg. 40, Wallingford CT 06492
  
  
 ---------------------------------------------------------------
 Warning -- This program may not be used in any manner that
 competes with the business of Gaussian, Inc. or will provide
 assistance to any competitor of Gaussian, Inc.  The licensee
 of this program is prohibited from giving any competitor of
 Gaussian, Inc. access to this program.  By using this program,
 the user acknowledges that Gaussian, Inc. is engaged in the
 business of creating and licensing software in the field of
 computational chemistry and represents and warrants to the
 licensee that it is not a competitor of Gaussian, Inc. and that
 it will not use this program in any manner prohibited above.
 ---------------------------------------------------------------
  

 Cite this work as:
 Gaussian 16, Revision A.03,
 M. J. Frisch, G. W. Trucks, H. B. Schlegel, G. E. Scuseria, 
 M. A. Robb, J. R. Cheeseman, G. Scalmani, V. Barone, 
 G. A. Petersson, H. Nakatsuji, X. Li, M. Caricato, A. V. Marenich, 
 J. Bloino, B. G. Janesko, R. Gomperts, B. Mennucci, H. P. Hratchian, 
 J. V. Ortiz, A. F. Izmaylov, J. L. Sonnenberg, D. Williams-Young, 
 F. Ding, F. Lipparini, F. Egidi, J. Goings, B. Peng, A. Petrone, 
 T. Henderson, D. Ranasinghe, V. G. Zakrzewski, J. Gao, N. Rega, 
 G. Zheng, W. Liang, M. Hada, M. Ehara, K. Toyota, R. Fukuda, 
 J. Hasegawa, M. Ishida, T. Nakajima, Y. Honda, O. Kitao, H. Nakai, 
 T. Vreven, K. Throssell, J. A. Montgomery, Jr., J. E. Peralta, 
 F. Ogliaro, M. J. Bearpark, J. J. Heyd, E. N. Brothers, K. N. Kudin, 
 V. N. Staroverov, T. A. Keith, R. Kobayashi, J. Normand, 
 K. Raghavachari, A. P. Rendell, J. C. Burant, S. S. Iyengar, 
 J. Tomasi, M. Cossi, J. M. Millam, M. Klene, C. Adamo, R. Cammi, 
 J. W. Ochterski, R. L. Martin, K. Morokuma, O. Farkas, 
 J. B. Foresman, and D. J. Fox, Gaussian, Inc., Wallingford CT, 2016.
 
 ******************************************
 Gaussian 16:  ES64L-G16RevA.03 25-Dec-2016
                25-Feb-2020 
 ******************************************
 %mem=50GB
 %nproc=16
 Will use up to   16 processors via shared memory.
 ----------------------------------------------------------------------
 #P uLC-wHPBE/6-31G iop(3/107=0274100000, 3/108=0274100000) scf=(conver
 =6,fermi,ndamp=35,noincfock,novaracc,vshift=500,xqc)
 ----------------------------------------------------------------------
 1/38=1,172=1/1;
 2/12=2,17=6,18=5,40=1/2;
 3/5=1,6=6,11=2,25=1,30=1,74=-71,107=274100000,108=274100000,116=2/1,2,3;
 4//1;
 5/5=100002,6=6,8=3,10=500,13=1,18=-1,22=13,38=1,93=35/2,8;
 6/7=2,8=2,9=2,10=2,28=1/1;
 99/5=1,9=1/99;
 Leave Link    1 at Tue Feb 25 12:20:33 2020, MaxMem=  6710886400 cpu:               9.2 elap:               0.6
 (Enter /opt/ohpc/pub/libs/gaussian/g16-A.03/haswell/g16/l101.exe)
 -----
 H6 C5
 -----
 Symbolic Z-matrix:
 Charge =  0 Multiplicity = 1
 C                    -1.20651   0.69658   0. 
 C                    -1.20651  -0.69658   0. 
 C                     0.       -1.39316   0. 
 C                     1.20651  -0.69658   0. 
 C                     1.20651   0.69658   0. 
 H                     0.        2.48268   0. 
 H                    -2.15007   1.24134   0. 
 H                    -2.15007  -1.24134   0. 
 H                     0.       -2.48268   0. 
 H                     2.15007  -1.24134   0. 
 H                     2.15007   1.24134   0. 
 
 ITRead=  0  0  0  0  0  0  0  0  0  0  0
 MicOpt= -1 -1 -1 -1 -1 -1 -1 -1 -1 -1 -1
 NAtoms=     11 NQM=       11 NQMF=       0 NMMI=      0 NMMIF=      0
                NMic=       0 NMicF=      0.
                    Isotopes and Nuclear Properties:
 (Nuclear quadrupole moments (NQMom) in fm**2, nuclear magnetic moments (NMagM)
  in nuclear magnetons)

  Atom         1           2           3           4           5           6           7           8           9          10
 IAtWgt=          12          12          12          12          12           1           1           1           1           1
 AtmWgt=  12.0000000  12.0000000  12.0000000  12.0000000  12.0000000   1.0078250   1.0078250   1.0078250   1.0078250   1.0078250
 NucSpn=           0           0           0           0           0           1           1           1           1           1
 AtZEff=  -0.0000000  -0.0000000  -0.0000000  -0.0000000  -0.0000000  -0.0000000  -0.0000000  -0.0000000  -0.0000000  -0.0000000
 NQMom=    0.0000000   0.0000000   0.0000000   0.0000000   0.0000000   0.0000000   0.0000000   0.0000000   0.0000000   0.0000000
 NMagM=    0.0000000   0.0000000   0.0000000   0.0000000   0.0000000   2.7928460   2.7928460   2.7928460   2.7928460   2.7928460
 AtZNuc=   6.0000000   6.0000000   6.0000000   6.0000000   6.0000000   1.0000000   1.0000000   1.0000000   1.0000000   1.0000000

  Atom        11
 IAtWgt=           1
 AtmWgt=   1.0078250
 NucSpn=           1
 AtZEff=  -0.0000000
 NQMom=    0.0000000
 NMagM=    2.7928460
 AtZNuc=   1.0000000
 Leave Link  101 at Tue Feb 25 12:20:33 2020, MaxMem=  6710886400 cpu:               2.3 elap:               0.2
 (Enter /opt/ohpc/pub/libs/gaussian/g16-A.03/haswell/g16/l202.exe)
                          Input orientation:                          
 ---------------------------------------------------------------------
 Center     Atomic      Atomic             Coordinates (Angstroms)
 Number     Number       Type             X           Y           Z
 ---------------------------------------------------------------------
      1          6           0       -1.206512    0.696580    0.000000
      2          6           0       -1.206512   -0.696580    0.000000
      3          6           0        0.000000   -1.393160    0.000000
      4          6           0        1.206512   -0.696580    0.000000
      5          6           0        1.206512    0.696580    0.000000
      6          1           0        0.000000    2.482681    0.000000
      7          1           0       -2.150065    1.241340    0.000000
      8          1           0       -2.150065   -1.241340    0.000000
      9          1           0        0.000000   -2.482681    0.000000
     10          1           0        2.150065   -1.241340    0.000000
     11          1           0        2.150065    1.241340    0.000000
 ---------------------------------------------------------------------
                    Distance matrix (angstroms):
                    1          2          3          4          5
     1  C    0.000000
     2  C    1.393160   0.000000
     3  C    2.413024   1.393160   0.000000
     4  C    2.786320   2.413024   1.393160   0.000000
     5  C    2.413024   2.786320   2.413024   1.393160   0.000000
     6  H    2.155418   3.400496   3.875841   3.400496   2.155418
     7  H    1.089521   2.155418   3.400496   3.875841   3.400496
     8  H    2.155418   1.089521   2.155418   3.400496   3.875841
     9  H    3.400496   2.155418   1.089521   2.155418   3.400496
    10  H    3.875841   3.400496   2.155418   1.089521   2.155418
    11  H    3.400496   3.875841   3.400496   2.155418   1.089521
                    6          7          8          9         10
     6  H    0.000000
     7  H    2.482681   0.000000
     8  H    4.300129   2.482680   0.000000
     9  H    4.965362   4.300129   2.482681   0.000000
    10  H    4.300129   4.965362   4.300130   2.482681   0.000000
    11  H    2.482681   4.300130   4.965362   4.300129   2.482680
                   11
    11  H    0.000000
 Stoichiometry    C5H6
 Framework group  C2V[C2(HCH),SGV(C4H4)]
 Deg. of freedom    10
 Full point group                 C2V     NOp   4
 Largest Abelian subgroup         C2V     NOp   4
 Largest concise Abelian subgroup C2      NOp   2
                         Standard orientation:                         
 ---------------------------------------------------------------------
 Center     Atomic      Atomic             Coordinates (Angstroms)
 Number     Number       Type             X           Y           Z
 ---------------------------------------------------------------------
      1          6           0       -0.000000    1.206512   -0.928773
      2          6           0       -0.000000    1.206512    0.464387
      3          6           0        0.000000    0.000000    1.160967
      4          6           0       -0.000000   -1.206512    0.464387
      5          6           0       -0.000000   -1.206512   -0.928773
      6          1           0       -0.000000   -0.000000   -2.714874
      7          1           0       -0.000000    2.150065   -1.473533
      8          1           0       -0.000000    2.150065    1.009147
      9          1           0        0.000000    0.000000    2.250488
     10          1           0       -0.000000   -2.150065    1.009147
     11          1           0       -0.000000   -2.150065   -1.473533
 ---------------------------------------------------------------------
 Rotational constants (GHZ):           8.2868568           5.7099792           3.3806054
 Leave Link  202 at Tue Feb 25 12:20:33 2020, MaxMem=  6710886400 cpu:               0.2 elap:               0.0
 (Enter /opt/ohpc/pub/libs/gaussian/g16-A.03/haswell/g16/l301.exe)
 Standard basis: 6-31G (6D, 7F)
 Ernie: Thresh=  0.10000D-02 Tol=  0.10000D-05 Strict=F.
 There are    27 symmetry adapted cartesian basis functions of A1  symmetry.
 There are     4 symmetry adapted cartesian basis functions of A2  symmetry.
 There are     6 symmetry adapted cartesian basis functions of B1  symmetry.
 There are    20 symmetry adapted cartesian basis functions of B2  symmetry.
 There are    27 symmetry adapted basis functions of A1  symmetry.
 There are     4 symmetry adapted basis functions of A2  symmetry.
 There are     6 symmetry adapted basis functions of B1  symmetry.
 There are    20 symmetry adapted basis functions of B2  symmetry.
    57 basis functions,   134 primitive gaussians,    57 cartesian basis functions
    18 alpha electrons       18 beta electrons
       nuclear repulsion energy       145.0218997931 Hartrees.
 IExCor=33909 DFT=T Ex+Corr=LC-wHPBE ExCW=0 ScaHFX=  1.000000
 ScaDFX=  1.000000  1.000000  1.000000  1.000000 ScalE2=  1.000000  1.000000
 IRadAn=      5 IRanWt=     -1 IRanGd=            0 ICorTp=0 IEmpDi=  4
 HFx  wShort=  0.000000 wLong=  0.274100 cFull=  0.000000 cShort=  0.000000 cLong=  1.000000
 DFx  wShort=  0.000000 wLong=  0.274100 cFull=  0.000000 cShort=  1.000000 cLong=  0.000000
 NAtoms=   11 NActive=   11 NUniq=    7 SFac= 2.47D+00 NAtFMM=   60 NAOKFM=F Big=F
 Integral buffers will be    131072 words long.
 Raffenetti 2 integral format.
 Two-electron integral symmetry is turned on.
 Leave Link  301 at Tue Feb 25 12:20:33 2020, MaxMem=  6710886400 cpu:               0.8 elap:               0.1
 (Enter /opt/ohpc/pub/libs/gaussian/g16-A.03/haswell/g16/l302.exe)
 NPDir=0 NMtPBC=     1 NCelOv=     1 NCel=       1 NClECP=     1 NCelD=      1
         NCelK=      1 NCelE2=     1 NClLst=     1 CellRange=     0.0.
 One-electron integrals computed using PRISM.
 One-electron integral symmetry used in STVInt
 NBasis=    57 RedAO= T EigKep=  2.88D-03  NBF=    27     4     6    20
 NBsUse=    57 1.00D-06 EigRej= -1.00D+00 NBFU=    27     4     6    20
 Precomputing XC quadrature grid using
 IXCGrd= 4 IRadAn=           5 IRanWt=          -1 IRanGd=           0 AccXCQ= 0.00D+00.
 Generated NRdTot=       0 NPtTot=           0 NUsed=           0 NTot=          32
 NSgBfM=    57    57    57    57    57 MxSgAt=    11 MxSgA2=    11.
 Leave Link  302 at Tue Feb 25 12:20:33 2020, MaxMem=  6710886400 cpu:               3.0 elap:               0.2
 (Enter /opt/ohpc/pub/libs/gaussian/g16-A.03/haswell/g16/l303.exe)
 DipDrv:  MaxL=1.
 Leave Link  303 at Tue Feb 25 12:20:33 2020, MaxMem=  6710886400 cpu:               0.4 elap:               0.0
 (Enter /opt/ohpc/pub/libs/gaussian/g16-A.03/haswell/g16/l401.exe)
 ExpMin= 1.61D-01 ExpMax= 3.05D+03 ExpMxC= 4.57D+02 IAcc=3 IRadAn=         5 AccDes= 0.00D+00
 Harris functional with IExCor=33909 and IRadAn=       5 diagonalized for initial guess.
 HarFok:  IExCor=33909 AccDes= 0.00D+00 IRadAn=         5 IDoV= 1 UseB2=F ITyADJ=14
 ICtDFT=  3500011 ScaDFX=  1.000000  1.000000  1.000000  1.000000
 FoFCou: FMM=F IPFlag=           0 FMFlag=      100000 FMFlg1=           0
         NFxFlg=           0 DoJE=T BraDBF=F KetDBF=T FulRan=T
         wScrn=  0.000000 ICntrl=       500 IOpCl=  0 I1Cent=   200000004 NGrid=           0
         NMat0=    1 NMatS0=      1 NMatT0=    0 NMatD0=    1 NMtDS0=    0 NMtDT0=    0
 Petite list used in FoFCou.
 Harris En= -188.536609434215    
 JPrj=0 DoOrth=F DoCkMO=F.
 Initial guess orbital symmetries:
 Alpha Orbitals:
       Occupied  (A1) (B2) (A1) (B2) (A1) (A1) (B2) (A1) (B2) (A1)
                 (A1) (B2) (B2) (A1) (B1) (A1) (A2) (B1)
       Virtual   (B2) (A1) (A2) (B1) (A1) (B2) (A1) (B2) (A1) (A1)
                 (B2) (A1) (B2) (B1) (B2) (A1) (B1) (A1) (A2) (B2)
                 (A1) (A2) (B1) (B2) (A1) (A1) (B2) (A1) (B2) (A1)
                 (A1) (B2) (A1) (A1) (B2) (B2) (A1) (A1) (B2)
 Beta  Orbitals:
       Occupied  (A1) (B2) (A1) (B2) (A1) (A1) (B2) (A1) (B2) (A1)
                 (A1) (B2) (B2) (A1) (B1) (A1) (A2) (B1)
       Virtual   (B2) (A1) (A2) (B1) (A1) (B2) (A1) (B2) (A1) (A1)
                 (B2) (A1) (B2) (B1) (B2) (A1) (B1) (A1) (A2) (B2)
                 (A1) (A2) (B1) (B2) (A1) (A1) (B2) (A1) (B2) (A1)
                 (A1) (B2) (A1) (A1) (B2) (B2) (A1) (A1) (B2)
 The electronic state of the initial guess is 1-A1.
 Initial guess <Sx>= 0.0000 <Sy>= 0.0000 <Sz>= 0.0000 <S**2>=-0.0000 S=-0.0000
 Leave Link  401 at Tue Feb 25 12:20:33 2020, MaxMem=  6710886400 cpu:               4.4 elap:               0.3
 (Enter /opt/ohpc/pub/libs/gaussian/g16-A.03/haswell/g16/l502.exe)
 Keep R1 and R2 ints in memory in symmetry-blocked form, NReq=16815659.
 FoFCou: FMM=F IPFlag=           0 FMFlag=           0 FMFlg1=           0
         NFxFlg=           0 DoJE=F BraDBF=F KetDBF=F FulRan=T
         wScrn=  0.000000 ICntrl=       600 IOpCl=  0 I1Cent=           0 NGrid=           0
         NMat0=    1 NMatS0=   1653 NMatT0=    0 NMatD0=    1 NMtDS0=    0 NMtDT0=    0
 Petite list used in FoFCou.
 UHF open shell SCF:
 Using DIIS extrapolation, IDIIS=    10.
 NGot=  6710886400 LenX=  6710059583 LenY=  6710055893
 Requested convergence on RMS density matrix=1.00D-06 within  32 cycles.
 Requested convergence on MAX density matrix=1.00D-04.
 Requested convergence on             energy=1.00D-04.
 Virtual orbitals will be shifted by   0.500 hartree.
 No special actions if energy rises.
 Dynamic level shift is on during FON iterations.

 Cycle   1  Pass 1  IDiag  1:
 E= -193.359238666500    
 DIIS: error= 4.77D-02 at cycle   1 NSaved=   1.
 NSaved= 1 IEnMin= 1 EnMin= -193.359238666500     IErMin= 1 ErrMin= 4.77D-02
 ErrMax= 4.77D-02  0.00D+00 EMaxC= 1.00D+00 BMatC= 4.77D-01 BMatP= 4.77D-01
 IDIUse=1 WtCom= 1.00D+00 WtEn= 0.00D+00
 Coeff-Com:  0.100D+01
 Coeff:      0.100D+01
 Gap=     0.038 Goal=   None    Shift=    0.500
 T= 1774. Gap= 0.487 NK=0 IS=   19 IE=   57 IFin=   18
          NO(<0.9)=   0  NV(>0.1)=   0     18.00e < EF      0.00e >EF  Err=0.0D+00
 Gap=     0.038 Goal=   None    Shift=    0.500
 T= 1774. Gap= 0.487 NK=0 IS=   19 IE=   57 IFin=   18
          NO(<0.9)=   0  NV(>0.1)=   0     18.00e < EF      0.00e >EF  Err=0.0D+00
 GapD=    0.038 DampG=0.250 DampE=0.500 DampFc=0.1250 IDamp=-1.
 Damping current iteration by 1.25D-01
 RMSDP=2.25D-02 MaxDP=4.95D-01              OVMax= 1.43D-01

 Cycle   2  Pass 1  IDiag  1:
 E= -193.391821045869     Delta-E=       -0.032582379368 Rises=F Damp=T
 DIIS: error= 3.38D-02 at cycle   2 NSaved=   2.
 NSaved= 2 IEnMin= 2 EnMin= -193.391821045869     IErMin= 2 ErrMin= 3.38D-02
 ErrMax= 3.38D-02  0.00D+00 EMaxC= 1.00D+00 BMatC= 2.70D-01 BMatP= 4.77D-01
 IDIUse=1 WtCom= 1.00D+00 WtEn= 0.00D+00
 Coeff-Com: -0.276D+01 0.376D+01
 Coeff:     -0.276D+01 0.376D+01
 Gap=     0.004 Goal=   None    Shift=    0.500
 T= 1713. Gap= 0.516 NK=0 IS=   19 IE=   57 IFin=   18
          NO(<0.9)=   0  NV(>0.1)=   0     18.00e < EF      0.00e >EF  Err=0.0D+00
 Gap=     0.004 Goal=   None    Shift=    0.500
 T= 1713. Gap= 0.516 NK=0 IS=   19 IE=   57 IFin=   18
          NO(<0.9)=   0  NV(>0.1)=   0     18.00e < EF      0.00e >EF  Err=0.0D+00
 GapD=    0.004 DampG=0.250 DampE=0.500 DampFc=0.1250 IDamp=-1.
 Damping current iteration by 1.25D-01
 RMSDP=7.95D-03 MaxDP=5.43D-02 DE=-3.26D-02 OVMax= 1.14D-01

 Cycle   3  Pass 1  IDiag  1:
 E= -193.413344500996     Delta-E=       -0.021523455127 Rises=F Damp=T
 DIIS: error= 2.96D-02 at cycle   3 NSaved=   3.
 NSaved= 3 IEnMin= 3 EnMin= -193.413344500996     IErMin= 3 ErrMin= 2.96D-02
 ErrMax= 2.96D-02  0.00D+00 EMaxC= 1.00D+00 BMatC= 2.03D-01 BMatP= 2.70D-01
 IDIUse=1 WtCom= 1.00D+00 WtEn= 0.00D+00
 Coeff-Com: -0.120D+01-0.220D+01 0.441D+01
 Coeff:     -0.120D+01-0.220D+01 0.441D+01
 Gap=     0.104 Goal=   None    Shift=    0.500
 T= 1622. Gap= 0.605 NK=0 IS=   19 IE=   57 IFin=   18
          NO(<0.9)=   0  NV(>0.1)=   0     18.00e < EF      0.00e >EF  Err=0.0D+00
 Gap=     0.104 Goal=   None    Shift=    0.500
 T= 1622. Gap= 0.605 NK=0 IS=   19 IE=   57 IFin=   18
          NO(<0.9)=   0  NV(>0.1)=   0     18.00e < EF      0.00e >EF  Err=0.0D+00
 GapD=    0.104 DampG=1.000 DampE=0.500 DampFc=0.5000 IDamp=-1.
 Damping current iteration by 5.00D-01
 RMSDP=6.43D-03 MaxDP=4.09D-02 DE=-2.15D-02 OVMax= 3.58D-02

 Cycle   4  Pass 1  IDiag  1:
 E= -193.481784287662     Delta-E=       -0.068439786666 Rises=F Damp=T
 DIIS: error= 1.76D-02 at cycle   4 NSaved=   4.
 NSaved= 4 IEnMin= 4 EnMin= -193.481784287662     IErMin= 4 ErrMin= 1.76D-02
 ErrMax= 1.76D-02  0.00D+00 EMaxC= 1.00D+00 BMatC= 5.93D-02 BMatP= 2.03D-01
 IDIUse=1 WtCom= 1.00D+00 WtEn= 0.00D+00
 Coeff-Com: -0.642D+00 0.489D+01-0.628D+01 0.303D+01
 Coeff:     -0.642D+00 0.489D+01-0.628D+01 0.303D+01
 Gap=     0.139 Goal=   None    Shift=    0.500
 T= 1433. Gap= 0.639 NK=0 IS=   19 IE=   57 IFin=   18
          NO(<0.9)=   0  NV(>0.1)=   0     18.00e < EF      0.00e >EF  Err=0.0D+00
 Gap=     0.139 Goal=   None    Shift=    0.500
 T= 1433. Gap= 0.639 NK=0 IS=   19 IE=   57 IFin=   18
          NO(<0.9)=   0  NV(>0.1)=   0     18.00e < EF      0.00e >EF  Err=0.0D+00
 GapD=    0.139 DampG=1.000 DampE=0.500 DampFc=0.5000 IDamp=-1.
 Damping current iteration by 5.00D-01
 RMSDP=3.54D-03 MaxDP=2.59D-02 DE=-6.84D-02 OVMax= 7.97D-03

 Cycle   5  Pass 1  IDiag  1:
 E= -193.514935395806     Delta-E=       -0.033151108144 Rises=F Damp=T
 DIIS: error= 1.11D-02 at cycle   5 NSaved=   5.
 NSaved= 5 IEnMin= 5 EnMin= -193.514935395806     IErMin= 5 ErrMin= 1.11D-02
 ErrMax= 1.11D-02  0.00D+00 EMaxC= 1.00D+00 BMatC= 2.04D-02 BMatP= 5.93D-02
 IDIUse=1 WtCom= 1.00D+00 WtEn= 0.00D+00
 Coeff-Com: -0.274D+00-0.481D+00 0.214D+01-0.456D+01 0.417D+01
 Coeff:     -0.274D+00-0.481D+00 0.214D+01-0.456D+01 0.417D+01
 Gap=     0.156 Goal=   None    Shift=    0.500
 T= 1235. Gap= 0.656 NK=0 IS=   19 IE=   57 IFin=   18
          NO(<0.9)=   0  NV(>0.1)=   0     18.00e < EF      0.00e >EF  Err=0.0D+00
 Gap=     0.156 Goal=   None    Shift=    0.500
 T= 1235. Gap= 0.656 NK=0 IS=   19 IE=   57 IFin=   18
          NO(<0.9)=   0  NV(>0.1)=   0     18.00e < EF      0.00e >EF  Err=0.0D+00
 GapD=    0.156 DampG=1.000 DampE=0.500 DampFc=0.5000 IDamp=-1.
 Damping current iteration by 5.00D-01
 RMSDP=2.15D-03 MaxDP=1.67D-02 DE=-3.32D-02 OVMax= 7.80D-03

 Cycle   6  Pass 1  IDiag  1:
 E= -193.531768510508     Delta-E=       -0.016833114702 Rises=F Damp=T
 DIIS: error= 7.20D-03 at cycle   6 NSaved=   6.
 NSaved= 6 IEnMin= 6 EnMin= -193.531768510508     IErMin= 6 ErrMin= 7.20D-03
 ErrMax= 7.20D-03  0.00D+00 EMaxC= 1.00D+00 BMatC= 7.35D-03 BMatP= 2.04D-02
 IDIUse=1 WtCom= 1.00D+00 WtEn= 0.00D+00
 Coeff-Com: -0.108D+00-0.125D+01 0.229D+01-0.146D+01-0.139D+01 0.291D+01
 Coeff:     -0.108D+00-0.125D+01 0.229D+01-0.146D+01-0.139D+01 0.291D+01
 Gap=     0.164 Goal=   None    Shift=    0.500
 T=  944. Gap= 0.664 NK=0 IS=   19 IE=   57 IFin=   18
          NO(<0.9)=   0  NV(>0.1)=   0     18.00e < EF      0.00e >EF  Err=0.0D+00
 Gap=     0.164 Goal=   None    Shift=    0.500
 T=  944. Gap= 0.664 NK=0 IS=   19 IE=   57 IFin=   18
          NO(<0.9)=   0  NV(>0.1)=   0     18.00e < EF      0.00e >EF  Err=0.0D+00
 GapD=    0.164 DampG=1.000 DampE=1.000 DampFc=1.0000 IDamp=-1.
 RMSDP=1.33D-03 MaxDP=1.03D-02 DE=-1.68D-02 OVMax= 5.51D-03

 Cycle   7  Pass 1  IDiag  1:
 E= -193.548790912666     Delta-E=       -0.017022402157 Rises=F Damp=F
 DIIS: error= 2.12D-03 at cycle   7 NSaved=   7.
 NSaved= 7 IEnMin= 7 EnMin= -193.548790912666     IErMin= 7 ErrMin= 2.12D-03
 ErrMax= 2.12D-03  0.00D+00 EMaxC= 1.00D+00 BMatC= 3.66D-04 BMatP= 7.35D-03
 IDIUse=1 WtCom= 1.00D+00 WtEn= 0.00D+00
 Coeff-Com: -0.326D-01 0.115D+01-0.189D+01 0.119D+01 0.327D+01-0.636D+01
 Coeff-Com:  0.368D+01
 Coeff:     -0.326D-01 0.115D+01-0.189D+01 0.119D+01 0.327D+01-0.636D+01
 Coeff:      0.368D+01
 Gap=     0.170 Goal=   None    Shift=    0.500
 T=  605. Gap= 0.670 NK=0 IS=   19 IE=   57 IFin=   18
          NO(<0.9)=   0  NV(>0.1)=   0     18.00e < EF      0.00e >EF  Err=0.0D+00
 Gap=     0.170 Goal=   None    Shift=    0.500
 T=  605. Gap= 0.670 NK=0 IS=   19 IE=   57 IFin=   18
          NO(<0.9)=   0  NV(>0.1)=   0     18.00e < EF      0.00e >EF  Err=0.0D+00
 GapD=    0.170 DampG=1.000 DampE=1.000 DampFc=1.0000 IDamp=-1.
 RMSDP=1.68D-04 MaxDP=2.25D-03 DE=-1.70D-02 OVMax= 4.44D-03

 Cycle   8  Pass 1  IDiag  1:
 E= -193.548979852640     Delta-E=       -0.000188939975 Rises=F Damp=F
 DIIS: error= 1.38D-03 at cycle   8 NSaved=   8.
 NSaved= 8 IEnMin= 8 EnMin= -193.548979852640     IErMin= 8 ErrMin= 1.38D-03
 ErrMax= 1.38D-03  0.00D+00 EMaxC= 1.00D+00 BMatC= 1.23D-04 BMatP= 3.66D-04
 IDIUse=1 WtCom= 1.00D+00 WtEn= 0.00D+00
 Coeff-Com: -0.230D-01 0.572D+00-0.930D+00 0.446D+00 0.212D+01-0.359D+01
 Coeff-Com:  0.113D+01 0.128D+01
 Coeff:     -0.230D-01 0.572D+00-0.930D+00 0.446D+00 0.212D+01-0.359D+01
 Coeff:      0.113D+01 0.128D+01
 Gap=     0.170 Goal=   None    Shift=    0.500
 T=  218. Gap= 0.670 NK=0 IS=   19 IE=   57 IFin=   18
          NO(<0.9)=   0  NV(>0.1)=   0     18.00e < EF      0.00e >EF  Err=0.0D+00
 Gap=     0.170 Goal=   None    Shift=    0.500
 T=  218. Gap= 0.670 NK=0 IS=   19 IE=   57 IFin=   18
          NO(<0.9)=   0  NV(>0.1)=   0     18.00e < EF      0.00e >EF  Err=0.0D+00
 GapD=    0.170 DampG=1.000 DampE=1.000 DampFc=1.0000 IDamp=-1.
 RMSDP=8.96D-05 MaxDP=1.43D-03 DE=-1.89D-04 OVMax= 2.77D-03

 Cycle   9  Pass 1  IDiag  1:
 E= -193.549043929125     Delta-E=       -0.000064076484 Rises=F Damp=F
 DIIS: error= 9.15D-04 at cycle   9 NSaved=   9.
 NSaved= 9 IEnMin= 9 EnMin= -193.549043929125     IErMin= 9 ErrMin= 9.15D-04
 ErrMax= 9.15D-04  0.00D+00 EMaxC= 1.00D+00 BMatC= 4.49D-05 BMatP= 1.23D-04
 IDIUse=1 WtCom= 1.00D+00 WtEn= 0.00D+00
 Coeff-Com: -0.129D-01 0.170D+00-0.219D+00-0.893D-01 0.893D+00-0.112D+01
 Coeff-Com:  0.468D+00-0.116D+01 0.207D+01
 Coeff:     -0.129D-01 0.170D+00-0.219D+00-0.893D-01 0.893D+00-0.112D+01
 Coeff:      0.468D+00-0.116D+01 0.207D+01
 Gap=     0.171 Goal=   None    Shift=    0.500
 Gap=     0.171 Goal=   None    Shift=    0.500
 RMSDP=5.39D-05 MaxDP=9.33D-04 DE=-6.41D-05 OVMax= 1.95D-03

 Cycle  10  Pass 1  IDiag  1:
 E= -193.549067908097     Delta-E=       -0.000023978972 Rises=F Damp=F
 DIIS: error= 5.67D-04 at cycle  10 NSaved=  10.
 NSaved=10 IEnMin=10 EnMin= -193.549067908097     IErMin=10 ErrMin= 5.67D-04
 ErrMax= 5.67D-04  0.00D+00 EMaxC= 1.00D+00 BMatC= 1.70D-05 BMatP= 4.49D-05
 IDIUse=1 WtCom= 1.00D+00 WtEn= 0.00D+00
 Coeff-Com: -0.702D-02 0.547D-01-0.515D-01-0.482D-01 0.168D+00-0.167D+00
 Coeff-Com:  0.512D+00-0.162D+01 0.594D+00 0.157D+01
 Coeff:     -0.702D-02 0.547D-01-0.515D-01-0.482D-01 0.168D+00-0.167D+00
 Coeff:      0.512D+00-0.162D+01 0.594D+00 0.157D+01
 Gap=     0.171 Goal=   None    Shift=    0.500
 Gap=     0.171 Goal=   None    Shift=    0.500
 RMSDP=3.36D-05 MaxDP=5.52D-04 DE=-2.40D-05 OVMax= 1.19D-03

 Cycle  11  Pass 1  IDiag  1:
 E= -193.549076813610     Delta-E=       -0.000008905513 Rises=F Damp=F
 DIIS: error= 3.59D-04 at cycle  11 NSaved=  11.
 NSaved=11 IEnMin=11 EnMin= -193.549076813610     IErMin=11 ErrMin= 3.59D-04
 ErrMax= 3.59D-04  0.00D+00 EMaxC= 1.00D+00 BMatC= 6.08D-06 BMatP= 1.70D-05
 IDIUse=1 WtCom= 1.00D+00 WtEn= 0.00D+00
 Coeff-Com: -0.341D-02 0.126D-01-0.146D-01 0.677D-02 0.368D-01-0.606D-01
 Coeff-Com:  0.727D-01 0.167D+00-0.490D+00-0.138D+01 0.265D+01
 Coeff:     -0.341D-02 0.126D-01-0.146D-01 0.677D-02 0.368D-01-0.606D-01
 Coeff:      0.727D-01 0.167D+00-0.490D+00-0.138D+01 0.265D+01
 Gap=     0.171 Goal=   None    Shift=    0.500
 Gap=     0.171 Goal=   None    Shift=    0.500
 RMSDP=2.02D-05 MaxDP=3.42D-04 DE=-8.91D-06 OVMax= 7.58D-04

 Cycle  12  Pass 1  IDiag  1:
 E= -193.549080010021     Delta-E=       -0.000003196410 Rises=F Damp=F
 DIIS: error= 2.28D-04 at cycle  12 NSaved=  12.
 NSaved=12 IEnMin=12 EnMin= -193.549080010021     IErMin=12 ErrMin= 2.28D-04
 ErrMax= 2.28D-04  0.00D+00 EMaxC= 1.00D+00 BMatC= 2.26D-06 BMatP= 6.08D-06
 IDIUse=1 WtCom= 1.00D+00 WtEn= 0.00D+00
 Coeff-Com: -0.173D-02 0.650D-02-0.403D-02-0.155D-01 0.737D-01-0.947D-01
 Coeff-Com:  0.834D-01-0.781D-01-0.707D-01 0.873D+00-0.317D+01 0.340D+01
 Coeff:     -0.173D-02 0.650D-02-0.403D-02-0.155D-01 0.737D-01-0.947D-01
 Coeff:      0.834D-01-0.781D-01-0.707D-01 0.873D+00-0.317D+01 0.340D+01
 Gap=     0.171 Goal=   None    Shift=    0.500
 Gap=     0.171 Goal=   None    Shift=    0.500
 RMSDP=1.23D-05 MaxDP=2.17D-04 DE=-3.20D-06 OVMax= 5.00D-04

 Cycle  13  Pass 1  IDiag  1:
 E= -193.549081224195     Delta-E=       -0.000001214175 Rises=F Damp=F
 DIIS: error= 1.39D-04 at cycle  13 NSaved=  13.
 NSaved=13 IEnMin=13 EnMin= -193.549081224195     IErMin=13 ErrMin= 1.39D-04
 ErrMax= 1.39D-04  0.00D+00 EMaxC= 1.00D+00 BMatC= 8.02D-07 BMatP= 2.26D-06
 IDIUse=1 WtCom= 1.00D+00 WtEn= 0.00D+00
 Coeff-Com: -0.773D-03 0.856D-02-0.111D-01 0.402D-02 0.468D-03 0.174D-02
 Coeff-Com:  0.143D-01-0.489D-01 0.519D-01-0.368D+00 0.174D+01-0.425D+01
 Coeff-Com:  0.386D+01
 Coeff:     -0.773D-03 0.856D-02-0.111D-01 0.402D-02 0.468D-03 0.174D-02
 Coeff:      0.143D-01-0.489D-01 0.519D-01-0.368D+00 0.174D+01-0.425D+01
 Coeff:      0.386D+01
 Gap=     0.172 Goal=   None    Shift=    0.500
 Gap=     0.172 Goal=   None    Shift=    0.500
 RMSDP=7.32D-06 MaxDP=1.36D-04 DE=-1.21D-06 OVMax= 3.06D-04

 Cycle  14  Pass 1  IDiag  1:
 E= -193.549081657037     Delta-E=       -0.000000432842 Rises=F Damp=F
 DIIS: error= 8.49D-05 at cycle  14 NSaved=  14.
 NSaved=14 IEnMin=14 EnMin= -193.549081657037     IErMin=14 ErrMin= 8.49D-05
 ErrMax= 8.49D-05  0.00D+00 EMaxC= 1.00D+00 BMatC= 2.78D-07 BMatP= 8.02D-07
 IDIUse=1 WtCom= 1.00D+00 WtEn= 0.00D+00
 Coeff-Com: -0.178D-03-0.107D-03 0.122D-02-0.353D-02 0.283D-02 0.191D-02
 Coeff-Com:  0.731D-02 0.185D-01-0.102D+00-0.142D+00 0.813D+00-0.622D+00
 Coeff-Com: -0.203D+01 0.305D+01
 Coeff:     -0.178D-03-0.107D-03 0.122D-02-0.353D-02 0.283D-02 0.191D-02
 Coeff:      0.731D-02 0.185D-01-0.102D+00-0.142D+00 0.813D+00-0.622D+00
 Coeff:     -0.203D+01 0.305D+01
 Gap=     0.172 Goal=   None    Shift=    0.500
 Gap=     0.172 Goal=   None    Shift=    0.500
 RMSDP=4.38D-06 MaxDP=8.38D-05 DE=-4.33D-07 OVMax= 1.89D-04

 Cycle  15  Pass 1  IDiag  1:
 E= -193.549081811305     Delta-E=       -0.000000154268 Rises=F Damp=F
 DIIS: error= 5.08D-05 at cycle  15 NSaved=  15.
 NSaved=15 IEnMin=15 EnMin= -193.549081811305     IErMin=15 ErrMin= 5.08D-05
 ErrMax= 5.08D-05  0.00D+00 EMaxC= 1.00D+00 BMatC= 9.31D-08 BMatP= 2.78D-07
 IDIUse=1 WtCom= 1.00D+00 WtEn= 0.00D+00
 Coeff-Com: -0.290D-04 0.143D-02-0.214D-02 0.114D-02 0.393D-03-0.946D-03
 Coeff-Com:  0.821D-02-0.125D-01-0.227D-01 0.129D-01 0.161D+00-0.399D+00
 Coeff-Com:  0.111D+01-0.340D+01 0.354D+01
 Coeff:     -0.290D-04 0.143D-02-0.214D-02 0.114D-02 0.393D-03-0.946D-03
 Coeff:      0.821D-02-0.125D-01-0.227D-01 0.129D-01 0.161D+00-0.399D+00
 Coeff:      0.111D+01-0.340D+01 0.354D+01
 Gap=     0.172 Goal=   None    Shift=    0.500
 Gap=     0.172 Goal=   None    Shift=    0.500
 RMSDP=2.55D-06 MaxDP=5.06D-05 DE=-1.54D-07 OVMax= 1.14D-04

 Cycle  16  Pass 1  IDiag  1:
 E= -193.549081864214     Delta-E=       -0.000000052909 Rises=F Damp=F
 DIIS: error= 3.00D-05 at cycle  16 NSaved=  16.
 NSaved=16 IEnMin=16 EnMin= -193.549081864214     IErMin=16 ErrMin= 3.00D-05
 ErrMax= 3.00D-05  0.00D+00 EMaxC= 1.00D+00 BMatC= 3.08D-08 BMatP= 9.31D-08
 IDIUse=1 WtCom= 1.00D+00 WtEn= 0.00D+00
 Coeff-Com: -0.473D-05 0.404D-03-0.565D-03-0.123D-03 0.807D-03-0.167D-03
 Coeff-Com: -0.952D-03 0.117D-01-0.167D-01-0.711D-01 0.256D+00-0.327D+00
 Coeff-Com:  0.370D-01 0.850D+00-0.303D+01 0.329D+01
 Coeff:     -0.473D-05 0.404D-03-0.565D-03-0.123D-03 0.807D-03-0.167D-03
 Coeff:     -0.952D-03 0.117D-01-0.167D-01-0.711D-01 0.256D+00-0.327D+00
 Coeff:      0.370D-01 0.850D+00-0.303D+01 0.329D+01
 Gap=     0.172 Goal=   None    Shift=    0.500
 Gap=     0.172 Goal=   None    Shift=    0.500
 RMSDP=1.46D-06 MaxDP=2.99D-05 DE=-5.29D-08 OVMax= 6.72D-05

 Cycle  17  Pass 1  IDiag  1:
 E= -193.549081881937     Delta-E=       -0.000000017723 Rises=F Damp=F
 DIIS: error= 1.77D-05 at cycle  17 NSaved=  17.
 NSaved=17 IEnMin=17 EnMin= -193.549081881937     IErMin=17 ErrMin= 1.77D-05
 ErrMax= 1.77D-05  0.00D+00 EMaxC= 1.00D+00 BMatC= 1.03D-08 BMatP= 3.08D-08
 IDIUse=1 WtCom= 1.00D+00 WtEn= 0.00D+00
 Coeff-Com:  0.141D-04-0.385D-03 0.639D-03-0.426D-03-0.696D-03 0.137D-02
 Coeff-Com: -0.539D-03 0.278D-02-0.101D-01 0.694D-02 0.122D-01 0.375D-01
 Coeff-Com: -0.214D+00 0.181D+00 0.117D+01-0.433D+01 0.415D+01
 Coeff:      0.141D-04-0.385D-03 0.639D-03-0.426D-03-0.696D-03 0.137D-02
 Coeff:     -0.539D-03 0.278D-02-0.101D-01 0.694D-02 0.122D-01 0.375D-01
 Coeff:     -0.214D+00 0.181D+00 0.117D+01-0.433D+01 0.415D+01
 Gap=     0.172 Goal=   None    Shift=    0.500
 Gap=     0.172 Goal=   None    Shift=    0.500
 RMSDP=8.46D-07 MaxDP=1.78D-05 DE=-1.77D-08 OVMax= 4.00D-05

 SCF Done:  E(ULC-wHPBE) =  -193.549081882     A.U. after   17 cycles
            NFock= 17  Conv=0.85D-06     -V/T= 2.0086
 <Sx>= 0.0000 <Sy>= 0.0000 <Sz>= 0.0000 <S**2>=-0.0000 S=-0.0000
 <L.S>= 0.000000000000E+00
 KE= 1.918926554843D+02 PE=-7.384288822390D+02 EE= 2.079652450798D+02
 Annihilation of the first spin contaminant:
 S**2 before annihilation    -0.0000,   after     0.0000
 Leave Link  502 at Tue Feb 25 12:20:35 2020, MaxMem=  6710886400 cpu:              26.3 elap:               1.7
 (Enter /opt/ohpc/pub/libs/gaussian/g16-A.03/haswell/g16/l508.exe)
 QCSCF skips out because SCF is already converged.
 Leave Link  508 at Tue Feb 25 12:20:35 2020, MaxMem=  6710886400 cpu:               0.1 elap:               0.0
 (Enter /opt/ohpc/pub/libs/gaussian/g16-A.03/haswell/g16/l601.exe)
 Copying SCF densities to generalized density rwf, IOpCl= 1 IROHF=0.

 **********************************************************************

            Population analysis using the SCF density.

 **********************************************************************

 Orbital symmetries:
 Alpha Orbitals:
       Occupied  (B2) (A1) (B2) (A1) (A1) (A1) (B2) (A1) (B2) (A1)
                 (A1) (B2) (B2) (A1) (B1) (A1) (A2) (B1)
       Virtual   (A1) (B2) (A2) (A1) (B1) (B2) (A1) (B2) (A1) (A1)
                 (B2) (A1) (B2) (B2) (B1) (A2) (B1) (A1) (A1) (B2)
                 (A1) (A2) (A1) (B1) (B2) (A1) (B2) (A1) (B2) (A1)
                 (A1) (A1) (B2) (A1) (B2) (B2) (A1) (A1) (B2)
 Beta  Orbitals:
       Occupied  (B2) (A1) (B2) (A1) (A1) (A1) (B2) (A1) (B2) (A1)
                 (A1) (B2) (B2) (A1) (B1) (A1) (A2) (B1)
       Virtual   (A1) (B2) (A2) (A1) (B1) (B2) (A1) (B2) (A1) (A1)
                 (B2) (A1) (B2) (B2) (B1) (A2) (B1) (A1) (A1) (B2)
                 (A1) (A2) (A1) (B1) (B2) (A1) (B2) (A1) (B2) (A1)
                 (A1) (A1) (B2) (A1) (B2) (B2) (A1) (A1) (B2)
 The electronic state is 1-A1.
 Alpha  occ. eigenvalues --  -10.10578 -10.10576 -10.05978 -10.05978 -10.00615
 Alpha  occ. eigenvalues --   -0.89928  -0.82225  -0.74446  -0.65533  -0.59910
 Alpha  occ. eigenvalues --   -0.58173  -0.51345  -0.46836  -0.43949  -0.42654
 Alpha  occ. eigenvalues --   -0.41713  -0.33511  -0.23690
 Alpha virt. eigenvalues --   -0.06534  -0.02258   0.08457   0.18608   0.19420
 Alpha virt. eigenvalues --    0.22398   0.26250   0.27178   0.28783   0.39617
 Alpha virt. eigenvalues --    0.40830   0.48789   0.49969   0.60963   0.61130
 Alpha virt. eigenvalues --    0.69843   0.70085   0.70924   0.71820   0.73594
 Alpha virt. eigenvalues --    0.74224   0.75734   0.78877   0.79343   0.80325
 Alpha virt. eigenvalues --    0.87276   0.92703   0.94768   0.97279   0.99221
 Alpha virt. eigenvalues --    1.03915   1.06479   1.08816   1.14776   1.21092
 Alpha virt. eigenvalues --    1.26483   1.30533   1.54223   1.54911
  Beta  occ. eigenvalues --  -10.10578 -10.10576 -10.05978 -10.05978 -10.00615
  Beta  occ. eigenvalues --   -0.89928  -0.82225  -0.74446  -0.65533  -0.59910
  Beta  occ. eigenvalues --   -0.58173  -0.51345  -0.46836  -0.43949  -0.42654
  Beta  occ. eigenvalues --   -0.41713  -0.33511  -0.23690
  Beta virt. eigenvalues --   -0.06534  -0.02258   0.08457   0.18608   0.19420
  Beta virt. eigenvalues --    0.22398   0.26250   0.27178   0.28783   0.39617
  Beta virt. eigenvalues --    0.40830   0.48789   0.49969   0.60963   0.61130
  Beta virt. eigenvalues --    0.69843   0.70085   0.70924   0.71820   0.73594
  Beta virt. eigenvalues --    0.74224   0.75734   0.78877   0.79343   0.80325
  Beta virt. eigenvalues --    0.87276   0.92703   0.94768   0.97279   0.99221
  Beta virt. eigenvalues --    1.03915   1.06479   1.08816   1.14776   1.21092
  Beta virt. eigenvalues --    1.26483   1.30533   1.54223   1.54911
          Condensed to atoms (all electrons):
               1          2          3          4          5          6
     1  C    5.286210   0.513680  -0.077351  -0.042473   0.148193   0.116155
     2  C    0.513680   4.900593   0.548873  -0.050754  -0.042473  -0.002608
     3  C   -0.077351   0.548873   4.872574   0.548873  -0.077351  -0.000503
     4  C   -0.042473  -0.050754   0.548873   4.900593   0.513680  -0.002608
     5  C    0.148193  -0.042473  -0.077351   0.513680   5.286210   0.116155
     6  H    0.116155  -0.002608  -0.000503  -0.002608   0.116155   0.660199
     7  H    0.352526  -0.036776   0.003029   0.000937  -0.003888  -0.008455
     8  H   -0.035730   0.356866  -0.013786   0.004589   0.000521   0.000205
     9  H    0.005879  -0.040764   0.370641  -0.040764   0.005879  -0.000004
    10  H    0.000521   0.004589  -0.013786   0.356866  -0.035730   0.000205
    11  H   -0.003888   0.000937   0.003029  -0.036776   0.352526  -0.008455
               7          8          9         10         11
     1  C    0.352526  -0.035730   0.005879   0.000521  -0.003888
     2  C   -0.036776   0.356866  -0.040764   0.004589   0.000937
     3  C    0.003029  -0.013786   0.370641  -0.013786   0.003029
     4  C    0.000937   0.004589  -0.040764   0.356866  -0.036776
     5  C   -0.003888   0.000521   0.005879  -0.035730   0.352526
     6  H   -0.008455   0.000205  -0.000004   0.000205  -0.008455
     7  H    0.513843   0.000973  -0.000160  -0.000012   0.000039
     8  H    0.000973   0.494600  -0.004441  -0.000104  -0.000012
     9  H   -0.000160  -0.004441   0.590557  -0.004441  -0.000160
    10  H   -0.000012  -0.000104  -0.004441   0.494600   0.000973
    11  H    0.000039  -0.000012  -0.000160   0.000973   0.513843
          Atomic-Atomic Spin Densities.
               1          2          3          4          5          6
     1  C    0.000000   0.000000   0.000000   0.000000   0.000000   0.000000
     2  C    0.000000   0.000000   0.000000   0.000000   0.000000   0.000000
     3  C    0.000000   0.000000   0.000000   0.000000   0.000000   0.000000
     4  C    0.000000   0.000000   0.000000   0.000000   0.000000   0.000000
     5  C    0.000000   0.000000   0.000000   0.000000   0.000000   0.000000
     6  H    0.000000   0.000000   0.000000   0.000000   0.000000   0.000000
     7  H    0.000000   0.000000   0.000000   0.000000   0.000000   0.000000
     8  H    0.000000   0.000000   0.000000   0.000000   0.000000   0.000000
     9  H    0.000000   0.000000   0.000000   0.000000   0.000000   0.000000
    10  H    0.000000   0.000000   0.000000   0.000000   0.000000   0.000000
    11  H    0.000000   0.000000   0.000000   0.000000   0.000000   0.000000
               7          8          9         10         11
     1  C    0.000000   0.000000   0.000000   0.000000   0.000000
     2  C    0.000000   0.000000   0.000000   0.000000   0.000000
     3  C    0.000000   0.000000   0.000000   0.000000   0.000000
     4  C    0.000000   0.000000   0.000000   0.000000   0.000000
     5  C    0.000000   0.000000   0.000000   0.000000   0.000000
     6  H    0.000000   0.000000   0.000000   0.000000   0.000000
     7  H    0.000000   0.000000   0.000000   0.000000   0.000000
     8  H    0.000000   0.000000   0.000000   0.000000   0.000000
     9  H    0.000000   0.000000   0.000000   0.000000   0.000000
    10  H    0.000000   0.000000   0.000000   0.000000   0.000000
    11  H    0.000000   0.000000   0.000000   0.000000   0.000000
 Mulliken charges and spin densities:
               1          2
     1  C   -0.263721   0.000000
     2  C   -0.152164   0.000000
     3  C   -0.164243   0.000000
     4  C   -0.152164   0.000000
     5  C   -0.263721   0.000000
     6  H    0.129714   0.000000
     7  H    0.177942   0.000000
     8  H    0.196318   0.000000
     9  H    0.117778   0.000000
    10  H    0.196318   0.000000
    11  H    0.177942   0.000000
 Sum of Mulliken charges =  -0.00000   0.00000
 Mulliken charges and spin densities with hydrogens summed into heavy atoms:
               1          2
     1  C    0.043935   0.000000
     2  C    0.044154   0.000000
     3  C   -0.046465   0.000000
     4  C    0.044154   0.000000
     5  C   -0.085779   0.000000
 Electronic spatial extent (au):  <R**2>=            395.7078
 Charge=              0.0000 electrons
 Dipole moment (field-independent basis, Debye):
    X=             -0.0000    Y=             -0.0000    Z=             -1.2281  Tot=              1.2281
 Quadrupole moment (field-independent basis, Debye-Ang):
   XX=            -36.6387   YY=            -23.4419   ZZ=            -24.1738
   XY=              0.0000   XZ=             -0.0000   YZ=             -0.0000
 Traceless Quadrupole moment (field-independent basis, Debye-Ang):
   XX=             -8.5539   YY=              4.6429   ZZ=              3.9110
   XY=              0.0000   XZ=             -0.0000   YZ=             -0.0000
 Octapole moment (field-independent basis, Debye-Ang**2):
  XXX=              0.0000  YYY=             -0.0000  ZZZ=            -11.6239  XYY=              0.0000
  XXY=              0.0000  XXZ=              2.6368  XZZ=              0.0000  YZZ=              0.0000
  YYZ=              1.5787  XYZ=             -0.0000
 Hexadecapole moment (field-independent basis, Debye-Ang**3):
 XXXX=            -39.9422 YYYY=           -235.6843 ZZZZ=           -178.8432 XXXY=             -0.0000
 XXXZ=             -0.0000 YYYX=             -0.0000 YYYZ=             -0.0000 ZZZX=             -0.0000
 ZZZY=              0.0000 XXYY=            -62.0756 XXZZ=            -52.7467 YYZZ=            -71.9663
 XXYZ=              0.0000 YYXZ=             -0.0000 ZZXY=             -0.0000
 N-N= 1.450218997931D+02 E-N=-7.384285869194D+02  KE= 1.918926554843D+02
 Symmetry A1   KE= 1.102395318955D+02
 Symmetry A2   KE= 2.317743913769D+00
 Symmetry B1   KE= 4.314108749672D+00
 Symmetry B2   KE= 7.502127092532D+01
 Symmetry A1   SP= 0.000000000000D+00
 Symmetry A2   SP= 0.000000000000D+00
 Symmetry B1   SP= 0.000000000000D+00
 Symmetry B2   SP= 0.000000000000D+00
                          Isotropic Fermi Contact Couplings
        Atom                 a.u.       MegaHertz       Gauss      10(-4) cm-1
     1  C(13)              0.00000       0.00000       0.00000       0.00000
     2  C(13)              0.00000       0.00000       0.00000       0.00000
     3  C(13)              0.00000       0.00000       0.00000       0.00000
     4  C(13)              0.00000       0.00000       0.00000       0.00000
     5  C(13)              0.00000       0.00000       0.00000       0.00000
     6  H(1)               0.00000       0.00000       0.00000       0.00000
     7  H(1)               0.00000       0.00000       0.00000       0.00000
     8  H(1)               0.00000       0.00000       0.00000       0.00000
     9  H(1)               0.00000       0.00000       0.00000       0.00000
    10  H(1)               0.00000       0.00000       0.00000       0.00000
    11  H(1)               0.00000       0.00000       0.00000       0.00000
 --------------------------------------------------------
       Center         ----  Spin Dipole Couplings  ----
                      3XX-RR        3YY-RR        3ZZ-RR
 --------------------------------------------------------
     1   Atom        0.000000      0.000000      0.000000
     2   Atom        0.000000      0.000000      0.000000
     3   Atom        0.000000      0.000000      0.000000
     4   Atom        0.000000      0.000000      0.000000
     5   Atom        0.000000      0.000000      0.000000
     6   Atom        0.000000      0.000000      0.000000
     7   Atom        0.000000      0.000000      0.000000
     8   Atom        0.000000      0.000000      0.000000
     9   Atom        0.000000      0.000000      0.000000
    10   Atom        0.000000      0.000000      0.000000
    11   Atom        0.000000      0.000000      0.000000
 --------------------------------------------------------
                        XY            XZ            YZ
 --------------------------------------------------------
     1   Atom        0.000000      0.000000      0.000000
     2   Atom        0.000000      0.000000      0.000000
     3   Atom        0.000000      0.000000      0.000000
     4   Atom        0.000000      0.000000      0.000000
     5   Atom        0.000000      0.000000      0.000000
     6   Atom        0.000000      0.000000      0.000000
     7   Atom        0.000000      0.000000      0.000000
     8   Atom        0.000000      0.000000      0.000000
     9   Atom        0.000000      0.000000      0.000000
    10   Atom        0.000000      0.000000      0.000000
    11   Atom        0.000000      0.000000      0.000000
 --------------------------------------------------------


 ---------------------------------------------------------------------------------
              Anisotropic Spin Dipole Couplings in Principal Axis System
 ---------------------------------------------------------------------------------

       Atom             a.u.   MegaHertz   Gauss  10(-4) cm-1        Axes

              Baa     0.0000     0.000     0.000     0.000  1.0000  0.0000  0.0000
     1 C(13)  Bbb     0.0000     0.000     0.000     0.000 -0.0000  1.0000  0.0000
              Bcc     0.0000     0.000     0.000     0.000  0.0000  0.0000  1.0000
 
              Baa     0.0000     0.000     0.000     0.000  1.0000  0.0000  0.0000
     2 C(13)  Bbb     0.0000     0.000     0.000     0.000 -0.0000  1.0000  0.0000
              Bcc     0.0000     0.000     0.000     0.000  0.0000  0.0000  1.0000
 
              Baa     0.0000     0.000     0.000     0.000  1.0000  0.0000  0.0000
     3 C(13)  Bbb     0.0000     0.000     0.000     0.000 -0.0000  1.0000  0.0000
              Bcc     0.0000     0.000     0.000     0.000  0.0000  0.0000  1.0000
 
              Baa     0.0000     0.000     0.000     0.000  1.0000  0.0000  0.0000
     4 C(13)  Bbb     0.0000     0.000     0.000     0.000 -0.0000  1.0000  0.0000
              Bcc     0.0000     0.000     0.000     0.000  0.0000  0.0000  1.0000
 
              Baa     0.0000     0.000     0.000     0.000  1.0000  0.0000  0.0000
     5 C(13)  Bbb     0.0000     0.000     0.000     0.000 -0.0000  1.0000  0.0000
              Bcc     0.0000     0.000     0.000     0.000  0.0000  0.0000  1.0000
 
              Baa     0.0000     0.000     0.000     0.000  1.0000  0.0000  0.0000
     6 H(1)   Bbb     0.0000     0.000     0.000     0.000 -0.0000  1.0000  0.0000
              Bcc     0.0000     0.000     0.000     0.000  0.0000  0.0000  1.0000
 
              Baa     0.0000     0.000     0.000     0.000  1.0000  0.0000  0.0000
     7 H(1)   Bbb     0.0000     0.000     0.000     0.000 -0.0000  1.0000  0.0000
              Bcc     0.0000     0.000     0.000     0.000  0.0000  0.0000  1.0000
 
              Baa     0.0000     0.000     0.000     0.000  1.0000  0.0000  0.0000
     8 H(1)   Bbb     0.0000     0.000     0.000     0.000 -0.0000  1.0000  0.0000
              Bcc     0.0000     0.000     0.000     0.000  0.0000  0.0000  1.0000
 
              Baa     0.0000     0.000     0.000     0.000  1.0000  0.0000  0.0000
     9 H(1)   Bbb     0.0000     0.000     0.000     0.000 -0.0000  1.0000  0.0000
              Bcc     0.0000     0.000     0.000     0.000  0.0000  0.0000  1.0000
 
              Baa     0.0000     0.000     0.000     0.000  1.0000  0.0000  0.0000
    10 H(1)   Bbb     0.0000     0.000     0.000     0.000 -0.0000  1.0000  0.0000
              Bcc     0.0000     0.000     0.000     0.000  0.0000  0.0000  1.0000
 
              Baa     0.0000     0.000     0.000     0.000  1.0000  0.0000  0.0000
    11 H(1)   Bbb     0.0000     0.000     0.000     0.000 -0.0000  1.0000  0.0000
              Bcc     0.0000     0.000     0.000     0.000  0.0000  0.0000  1.0000
 

 ---------------------------------------------------------------------------------

 No NMR shielding tensors so no spin-rotation constants.
 Leave Link  601 at Tue Feb 25 12:20:35 2020, MaxMem=  6710886400 cpu:               2.9 elap:               0.2
 (Enter /opt/ohpc/pub/libs/gaussian/g16-A.03/haswell/g16/l9999.exe)

 Test job not archived.
 1\1\GINC-HASWELL008\SP\ULC-wHPBE\6-31G\C5H6\SMGO234\25-Feb-2020\0\\#P 
 uLC-wHPBE/6-31G iop(3/107=0274100000, 3/108=0274100000) scf=(conver=6,
 fermi,ndamp=35,noincfock,novaracc,vshift=500,xqc)\\H6 C5\\0,1\C,0,-1.2
 06512,0.69658,0.\C,0,-1.206512,-0.69658,0.\C,0,0.,-1.39316,0.\C,0,1.20
 6512,-0.69658,0.\C,0,1.206512,0.69658,0.\H,0,0.,2.482681,0.\H,0,-2.150
 065,1.24134,0.\H,0,-2.150065,-1.24134,0.\H,0,0.,-2.482681,0.\H,0,2.150
 065,-1.24134,0.\H,0,2.150065,1.24134,0.\\Version=ES64L-G16RevA.03\Stat
 e=1-A1\HF=-193.5490819\S2=0.\S2-1=0.\S2A=0.\RMSD=8.463e-07\Dipole=0.,0
 .4831698,0.\Quadrupole=3.4518587,2.9077315,-6.3595902,0.,0.,0.\PG=C02V
  [C2(H1C1H1),SGV(C4H4)]\\@


 READER, WHETHER YOU BE DILETTANTE OR PROFESSOR ... SHOW YOURSELF TO BE
 MORE HUMAN THAN CRITICAL, AND THEN YOUR PLEASURE WILL INCREASE.
                                           -- DOMENICO SCARLATTI (1738)
 Job cpu time:       0 days  0 hours  0 minutes 50.0 seconds.
 Elapsed time:       0 days  0 hours  0 minutes  3.4 seconds.
 File lengths (MBytes):  RWF=    272 Int=      0 D2E=      0 Chk=     32 Scr=     32
 Normal termination of Gaussian 16 at Tue Feb 25 12:20:35 2020.
