 Entering Gaussian System, Link 0=g16
 Input=1b_tune_c2.gjf
 Output=1b_tune_c2.log
 Initial command:
 /opt/ohpc/pub/libs/gaussian/g16-A.03/sandybridge/g16/l1.exe "/pscratch/cmri235_uksr/ocelot/fw/dev/ocelot_api/tests/wtuning_test/1b/tuning_1b_ocycle0/Gau-59773.inp" -scrdir="/pscratch/cmri235_uksr/ocelot/fw/dev/ocelot_api/tests/wtuning_test/1b/tuning_1b_ocycle0/"
 Entering Link 1 = /opt/ohpc/pub/libs/gaussian/g16-A.03/sandybridge/g16/l1.exe PID=     59774.
  
 Copyright (c) 1988,1990,1992,1993,1995,1998,2003,2009,2016,
            Gaussian, Inc.  All Rights Reserved.
  
 This is part of the Gaussian(R) 16 program.  It is based on
 the Gaussian(R) 09 system (copyright 2009, Gaussian, Inc.),
 the Gaussian(R) 03 system (copyright 2003, Gaussian, Inc.),
 the Gaussian(R) 98 system (copyright 1998, Gaussian, Inc.),
 the Gaussian(R) 94 system (copyright 1995, Gaussian, Inc.),
 the Gaussian 92(TM) system (copyright 1992, Gaussian, Inc.),
 the Gaussian 90(TM) system (copyright 1990, Gaussian, Inc.),
 the Gaussian 88(TM) system (copyright 1988, Gaussian, Inc.),
 the Gaussian 86(TM) system (copyright 1986, Carnegie Mellon
 University), and the Gaussian 82(TM) system (copyright 1983,
 Carnegie Mellon University). Gaussian is a federally registered
 trademark of Gaussian, Inc.
  
 This software contains proprietary and confidential information,
 including trade secrets, belonging to Gaussian, Inc.
  
 This software is provided under written license and may be
 used, copied, transmitted, or stored only in accord with that
 written license.
  
 The following legend is applicable only to US Government
 contracts under FAR:
  
                    RESTRICTED RIGHTS LEGEND
  
 Use, reproduction and disclosure by the US Government is
 subject to restrictions as set forth in subparagraphs (a)
 and (c) of the Commercial Computer Software - Restricted
 Rights clause in FAR 52.227-19.
  
 Gaussian, Inc.
 340 Quinnipiac St., Bldg. 40, Wallingford CT 06492
  
  
 ---------------------------------------------------------------
 Warning -- This program may not be used in any manner that
 competes with the business of Gaussian, Inc. or will provide
 assistance to any competitor of Gaussian, Inc.  The licensee
 of this program is prohibited from giving any competitor of
 Gaussian, Inc. access to this program.  By using this program,
 the user acknowledges that Gaussian, Inc. is engaged in the
 business of creating and licensing software in the field of
 computational chemistry and represents and warrants to the
 licensee that it is not a competitor of Gaussian, Inc. and that
 it will not use this program in any manner prohibited above.
 ---------------------------------------------------------------
  

 Cite this work as:
 Gaussian 16, Revision A.03,
 M. J. Frisch, G. W. Trucks, H. B. Schlegel, G. E. Scuseria, 
 M. A. Robb, J. R. Cheeseman, G. Scalmani, V. Barone, 
 G. A. Petersson, H. Nakatsuji, X. Li, M. Caricato, A. V. Marenich, 
 J. Bloino, B. G. Janesko, R. Gomperts, B. Mennucci, H. P. Hratchian, 
 J. V. Ortiz, A. F. Izmaylov, J. L. Sonnenberg, D. Williams-Young, 
 F. Ding, F. Lipparini, F. Egidi, J. Goings, B. Peng, A. Petrone, 
 T. Henderson, D. Ranasinghe, V. G. Zakrzewski, J. Gao, N. Rega, 
 G. Zheng, W. Liang, M. Hada, M. Ehara, K. Toyota, R. Fukuda, 
 J. Hasegawa, M. Ishida, T. Nakajima, Y. Honda, O. Kitao, H. Nakai, 
 T. Vreven, K. Throssell, J. A. Montgomery, Jr., J. E. Peralta, 
 F. Ogliaro, M. J. Bearpark, J. J. Heyd, E. N. Brothers, K. N. Kudin, 
 V. N. Staroverov, T. A. Keith, R. Kobayashi, J. Normand, 
 K. Raghavachari, A. P. Rendell, J. C. Burant, S. S. Iyengar, 
 J. Tomasi, M. Cossi, J. M. Millam, M. Klene, C. Adamo, R. Cammi, 
 J. W. Ochterski, R. L. Martin, K. Morokuma, O. Farkas, 
 J. B. Foresman, and D. J. Fox, Gaussian, Inc., Wallingford CT, 2016.
 
 ******************************************
 Gaussian 16:  EM64L-G16RevA.03 25-Dec-2016
                16-Mar-2020 
 ******************************************
 %mem=50GB
 %nproc=16
 Will use up to   16 processors via shared memory.
 ----------------------------------------------------------------------
 #P uLC-wHPBE/6-31G iop(3/107=0393800000, 3/108=0393800000) scf=(conver
 =6,fermi,ndamp=35,noincfock,novaracc,vshift=500,xqc)
 ----------------------------------------------------------------------
 1/38=1,172=1/1;
 2/12=2,17=6,18=5,40=1/2;
 3/5=1,6=6,11=2,25=1,30=1,74=-71,107=393800000,108=393800000,116=2/1,2,3;
 4//1;
 5/5=100002,6=6,8=3,10=500,13=1,18=-1,22=13,38=1,93=35/2,8;
 6/7=2,8=2,9=2,10=2,28=1/1;
 99/5=1,9=1/99;
 Leave Link    1 at Mon Mar 16 03:49:22 2020, MaxMem=  6710886400 cpu:              14.0 elap:               0.9
 (Enter /opt/ohpc/pub/libs/gaussian/g16-A.03/sandybridge/g16/l101.exe)
 -----
 H6 C6
 -----
 Symbolic Z-matrix:
 Charge =  1 Multiplicity = 2
 C                     0.        1.39316   0. 
 C                    -1.20651   0.69658   0. 
 C                    -1.20651  -0.69658   0. 
 C                     0.       -1.39316   0. 
 C                     1.20651  -0.69658   0. 
 C                     1.20651   0.69658   0. 
 H                     0.        2.48268   0. 
 H                    -2.15007   1.24134   0. 
 H                    -2.15007  -1.24134   0. 
 H                     0.       -2.48268   0. 
 H                     2.15007  -1.24134   0. 
 H                     2.15007   1.24134   0. 
 
 ITRead=  0  0  0  0  0  0  0  0  0  0  0  0
 MicOpt= -1 -1 -1 -1 -1 -1 -1 -1 -1 -1 -1 -1
 NAtoms=     12 NQM=       12 NQMF=       0 NMMI=      0 NMMIF=      0
                NMic=       0 NMicF=      0.
                    Isotopes and Nuclear Properties:
 (Nuclear quadrupole moments (NQMom) in fm**2, nuclear magnetic moments (NMagM)
  in nuclear magnetons)

  Atom         1           2           3           4           5           6           7           8           9          10
 IAtWgt=          12          12          12          12          12          12           1           1           1           1
 AtmWgt=  12.0000000  12.0000000  12.0000000  12.0000000  12.0000000  12.0000000   1.0078250   1.0078250   1.0078250   1.0078250
 NucSpn=           0           0           0           0           0           0           1           1           1           1
 AtZEff=  -0.0000000  -0.0000000  -0.0000000  -0.0000000  -0.0000000  -0.0000000  -0.0000000  -0.0000000  -0.0000000  -0.0000000
 NQMom=    0.0000000   0.0000000   0.0000000   0.0000000   0.0000000   0.0000000   0.0000000   0.0000000   0.0000000   0.0000000
 NMagM=    0.0000000   0.0000000   0.0000000   0.0000000   0.0000000   0.0000000   2.7928460   2.7928460   2.7928460   2.7928460
 AtZNuc=   6.0000000   6.0000000   6.0000000   6.0000000   6.0000000   6.0000000   1.0000000   1.0000000   1.0000000   1.0000000

  Atom        11          12
 IAtWgt=           1           1
 AtmWgt=   1.0078250   1.0078250
 NucSpn=           1           1
 AtZEff=  -0.0000000  -0.0000000
 NQMom=    0.0000000   0.0000000
 NMagM=    2.7928460   2.7928460
 AtZNuc=   1.0000000   1.0000000
 Leave Link  101 at Mon Mar 16 03:49:22 2020, MaxMem=  6710886400 cpu:               2.1 elap:               0.2
 (Enter /opt/ohpc/pub/libs/gaussian/g16-A.03/sandybridge/g16/l202.exe)
                          Input orientation:                          
 ---------------------------------------------------------------------
 Center     Atomic      Atomic             Coordinates (Angstroms)
 Number     Number       Type             X           Y           Z
 ---------------------------------------------------------------------
      1          6           0        0.000000    1.393160    0.000000
      2          6           0       -1.206512    0.696580    0.000000
      3          6           0       -1.206512   -0.696580    0.000000
      4          6           0        0.000000   -1.393160    0.000000
      5          6           0        1.206512   -0.696580    0.000000
      6          6           0        1.206512    0.696580    0.000000
      7          1           0        0.000000    2.482681    0.000000
      8          1           0       -2.150065    1.241340    0.000000
      9          1           0       -2.150065   -1.241340    0.000000
     10          1           0        0.000000   -2.482681    0.000000
     11          1           0        2.150065   -1.241340    0.000000
     12          1           0        2.150065    1.241340    0.000000
 ---------------------------------------------------------------------
                    Distance matrix (angstroms):
                    1          2          3          4          5
     1  C    0.000000
     2  C    1.393160   0.000000
     3  C    2.413024   1.393160   0.000000
     4  C    2.786320   2.413024   1.393160   0.000000
     5  C    2.413024   2.786320   2.413024   1.393160   0.000000
     6  C    1.393160   2.413024   2.786320   2.413024   1.393160
     7  H    1.089521   2.155418   3.400496   3.875841   3.400496
     8  H    2.155418   1.089521   2.155418   3.400496   3.875841
     9  H    3.400496   2.155418   1.089521   2.155418   3.400496
    10  H    3.875841   3.400496   2.155418   1.089521   2.155418
    11  H    3.400496   3.875841   3.400496   2.155418   1.089521
    12  H    2.155418   3.400496   3.875841   3.400496   2.155418
                    6          7          8          9         10
     6  C    0.000000
     7  H    2.155418   0.000000
     8  H    3.400496   2.482681   0.000000
     9  H    3.875841   4.300129   2.482680   0.000000
    10  H    3.400496   4.965362   4.300129   2.482681   0.000000
    11  H    2.155418   4.300129   4.965362   4.300130   2.482681
    12  H    1.089521   2.482681   4.300130   4.965362   4.300129
                   11         12
    11  H    0.000000
    12  H    2.482680   0.000000
 Stoichiometry    C6H6(1+,2)
 Framework group  D6H[3C2'(HC.CH)]
 Deg. of freedom     2
 Full point group                 D6H     NOp  24
 Largest Abelian subgroup         D2H     NOp   8
 Largest concise Abelian subgroup D2      NOp   4
                         Standard orientation:                         
 ---------------------------------------------------------------------
 Center     Atomic      Atomic             Coordinates (Angstroms)
 Number     Number       Type             X           Y           Z
 ---------------------------------------------------------------------
      1          6           0       -0.000000    1.393160   -0.000000
      2          6           0       -1.206512    0.696580   -0.000000
      3          6           0       -1.206512   -0.696580   -0.000000
      4          6           0       -0.000000   -1.393160   -0.000000
      5          6           0        1.206512   -0.696580   -0.000000
      6          6           0        1.206512    0.696580   -0.000000
      7          1           0        0.000000    2.482681   -0.000000
      8          1           0       -2.150065    1.241341   -0.000000
      9          1           0       -2.150065   -1.241340   -0.000000
     10          1           0       -0.000000   -2.482681   -0.000000
     11          1           0        2.150065   -1.241341   -0.000000
     12          1           0        2.150065    1.241340   -0.000000
 ---------------------------------------------------------------------
 Rotational constants (GHZ):           5.7099798           5.7099798           2.8549899
 Leave Link  202 at Mon Mar 16 03:49:22 2020, MaxMem=  6710886400 cpu:               0.3 elap:               0.0
 (Enter /opt/ohpc/pub/libs/gaussian/g16-A.03/sandybridge/g16/l301.exe)
 Standard basis: 6-31G (6D, 7F)
 Ernie: Thresh=  0.10000D-02 Tol=  0.10000D-05 Strict=F.
 There are    16 symmetry adapted cartesian basis functions of AG  symmetry.
 There are    11 symmetry adapted cartesian basis functions of B1G symmetry.
 There are     2 symmetry adapted cartesian basis functions of B2G symmetry.
 There are     4 symmetry adapted cartesian basis functions of B3G symmetry.
 There are     2 symmetry adapted cartesian basis functions of AU  symmetry.
 There are     4 symmetry adapted cartesian basis functions of B1U symmetry.
 There are    16 symmetry adapted cartesian basis functions of B2U symmetry.
 There are    11 symmetry adapted cartesian basis functions of B3U symmetry.
 There are    16 symmetry adapted basis functions of AG  symmetry.
 There are    11 symmetry adapted basis functions of B1G symmetry.
 There are     2 symmetry adapted basis functions of B2G symmetry.
 There are     4 symmetry adapted basis functions of B3G symmetry.
 There are     2 symmetry adapted basis functions of AU  symmetry.
 There are     4 symmetry adapted basis functions of B1U symmetry.
 There are    16 symmetry adapted basis functions of B2U symmetry.
 There are    11 symmetry adapted basis functions of B3U symmetry.
    66 basis functions,   156 primitive gaussians,    66 cartesian basis functions
    21 alpha electrons       20 beta electrons
       nuclear repulsion energy       203.5439980921 Hartrees.
 IExCor=33909 DFT=T Ex+Corr=LC-wHPBE ExCW=0 ScaHFX=  1.000000
 ScaDFX=  1.000000  1.000000  1.000000  1.000000 ScalE2=  1.000000  1.000000
 IRadAn=      5 IRanWt=     -1 IRanGd=            0 ICorTp=0 IEmpDi=  4
 HFx  wShort=  0.000000 wLong=  0.393800 cFull=  0.000000 cShort=  0.000000 cLong=  1.000000
 DFx  wShort=  0.000000 wLong=  0.393800 cFull=  0.000000 cShort=  1.000000 cLong=  0.000000
 NAtoms=   12 NActive=   12 NUniq=    2 SFac= 4.00D+00 NAtFMM=   60 NAOKFM=F Big=F
 Integral buffers will be    131072 words long.
 Raffenetti 2 integral format.
 Two-electron integral symmetry is turned on.
 Leave Link  301 at Mon Mar 16 03:49:22 2020, MaxMem=  6710886400 cpu:               1.0 elap:               0.1
 (Enter /opt/ohpc/pub/libs/gaussian/g16-A.03/sandybridge/g16/l302.exe)
 NPDir=0 NMtPBC=     1 NCelOv=     1 NCel=       1 NClECP=     1 NCelD=      1
         NCelK=      1 NCelE2=     1 NClLst=     1 CellRange=     0.0.
 One-electron integrals computed using PRISM.
 One-electron integral symmetry used in STVInt
 NBasis=    66 RedAO= T EigKep=  6.87D-04  NBF=    16    11     2     4     2     4    16    11
 NBsUse=    66 1.00D-06 EigRej= -1.00D+00 NBFU=    16    11     2     4     2     4    16    11
 Precomputing XC quadrature grid using
 IXCGrd= 4 IRadAn=           5 IRanWt=          -1 IRanGd=           0 AccXCQ= 0.00D+00.
 Generated NRdTot=       0 NPtTot=           0 NUsed=           0 NTot=          32
 NSgBfM=    66    66    66    66    66 MxSgAt=    12 MxSgA2=    12.
 Leave Link  302 at Mon Mar 16 03:49:22 2020, MaxMem=  6710886400 cpu:               2.2 elap:               0.2
 (Enter /opt/ohpc/pub/libs/gaussian/g16-A.03/sandybridge/g16/l303.exe)
 DipDrv:  MaxL=1.
 Leave Link  303 at Mon Mar 16 03:49:22 2020, MaxMem=  6710886400 cpu:               0.6 elap:               0.1
 (Enter /opt/ohpc/pub/libs/gaussian/g16-A.03/sandybridge/g16/l401.exe)
 ExpMin= 1.61D-01 ExpMax= 3.05D+03 ExpMxC= 4.57D+02 IAcc=3 IRadAn=         5 AccDes= 0.00D+00
 Harris functional with IExCor=33909 and IRadAn=       5 diagonalized for initial guess.
 HarFok:  IExCor=33909 AccDes= 0.00D+00 IRadAn=         5 IDoV= 1 UseB2=F ITyADJ=14
 ICtDFT=  3500011 ScaDFX=  1.000000  1.000000  1.000000  1.000000
 FoFCou: FMM=F IPFlag=           0 FMFlag=      100000 FMFlg1=           0
         NFxFlg=           0 DoJE=T BraDBF=F KetDBF=T FulRan=T
         wScrn=  0.000000 ICntrl=       500 IOpCl=  0 I1Cent=   200000004 NGrid=           0
         NMat0=    1 NMatS0=      1 NMatT0=    0 NMatD0=    1 NMtDS0=    0 NMtDT0=    0
 Petite list used in FoFCou.
 Harris En= -223.738201851394    
 JPrj=0 DoOrth=F DoCkMO=F.
 Initial guess orbital symmetries:
 Alpha Orbitals:
       Occupied  (A1G) (E1U) (E1U) (E2G) (E2G) (B1U) (A1G) (E1U)
                 (E1U) (E2G) (E2G) (A1G) (B2U) (B1U) (E1U) (E1U)
                 (A2U) (E2G) (E2G) (E1G) (E1G)
       Virtual   (E2U) (E2U) (A1G) (B2G) (E1U) (E1U) (E2G) (E2G)
                 (B1U) (E2G) (E2G) (E1U) (E1U) (B2U) (A2U) (B1U)
                 (A2G) (A1G) (E2G) (E2G) (E1G) (E1G) (A1G) (E1U)
                 (E1U) (E2U) (E2U) (B2G) (B1U) (E2G) (E2G) (E1U)
                 (E1U) (A2G) (A1G) (E1U) (E1U) (E2G) (E2G) (E1U)
                 (E1U) (B1U) (E2G) (E2G) (B1U)
 Beta  Orbitals:
       Occupied  (A1G) (E1U) (E1U) (E2G) (E2G) (B1U) (A1G) (E1U)
                 (E1U) (E2G) (E2G) (A1G) (B2U) (B1U) (E1U) (E1U)
                 (A2U) (E2G) (E2G) (E1G)
       Virtual   (E1G) (E2U) (E2U) (A1G) (B2G) (E1U) (E1U) (E2G)
                 (E2G) (B1U) (E2G) (E2G) (E1U) (E1U) (B2U) (A2U)
                 (B1U) (A2G) (A1G) (E2G) (E2G) (E1G) (E1G) (A1G)
                 (E1U) (E1U) (E2U) (E2U) (B2G) (B1U) (E2G) (E2G)
                 (E1U) (E1U) (A2G) (A1G) (E1U) (E1U) (E2G) (E2G)
                 (E1U) (E1U) (B1U) (E2G) (E2G) (B1U)
 Initial guess <Sx>= 0.0000 <Sy>= 0.0000 <Sz>= 0.5000 <S**2>= 0.7500 S= 0.5000
 Leave Link  401 at Mon Mar 16 03:49:22 2020, MaxMem=  6710886400 cpu:               2.8 elap:               0.2
 (Enter /opt/ohpc/pub/libs/gaussian/g16-A.03/sandybridge/g16/l502.exe)
 Keep R1 and R2 ints in memory in symmetry-blocked form, NReq=19109854.
 FoFCou: FMM=F IPFlag=           0 FMFlag=           0 FMFlg1=           0
         NFxFlg=           0 DoJE=F BraDBF=F KetDBF=F FulRan=T
         wScrn=  0.000000 ICntrl=       600 IOpCl=  0 I1Cent=           0 NGrid=           0
         NMat0=    1 NMatS0=   2211 NMatT0=    0 NMatD0=    1 NMtDS0=    0 NMtDT0=    0
 Petite list used in FoFCou.
 UHF open shell SCF:
 Using DIIS extrapolation, IDIIS=    10.
 NGot=  6710886400 LenX=  6710146038 LenY=  6710141241
 Requested convergence on RMS density matrix=1.00D-06 within  32 cycles.
 Requested convergence on MAX density matrix=1.00D-04.
 Requested convergence on             energy=1.00D-04.
 Virtual orbitals will be shifted by   0.500 hartree.
 No special actions if energy rises.
 Dynamic level shift is on during FON iterations.

 Cycle   1  Pass 1  IDiag  1:
 Density matrix breaks symmetry, PCut= 1.00D-04
 Density has only Abelian symmetry.
 E= -231.658419858484    
 DIIS: error= 1.67D-02 at cycle   1 NSaved=   1.
 NSaved= 1 IEnMin= 1 EnMin= -231.658419858484     IErMin= 1 ErrMin= 1.67D-02
 ErrMax= 1.67D-02  0.00D+00 EMaxC= 1.00D+00 BMatC= 5.55D-02 BMatP= 5.55D-02
 IDIUse=1 WtCom= 1.00D+00 WtEn= 0.00D+00
 Coeff-Com:  0.100D+01
 Coeff:      0.100D+01
 Gap=     0.405 Goal=   None    Shift=    0.500
 T= 1146. Gap= 0.906 NK=0 IS=   22 IE=   66 IFin=   21
          NO(<0.9)=   0  NV(>0.1)=   0     21.00e < EF      0.00e >EF  Err=0.0D+00
 Gap=     0.216 Goal=   None    Shift=    0.500
 T= 1146. Gap= 0.715 NK=0 IS=   21 IE=   66 IFin=   20
          NO(<0.9)=   0  NV(>0.1)=   0     20.00e < EF      0.00e >EF  Err=0.0D+00
 GapD=    0.216 DampG=1.000 DampE=0.500 DampFc=0.5000 IDamp=-1.
 Damping current iteration by 5.00D-01
 RMSDP=3.58D-03 MaxDP=2.44D-02              OVMax= 3.08D-02

 Cycle   2  Pass 1  IDiag  1:
 Density matrix breaks symmetry, PCut= 1.00D-04
 Density has only Abelian symmetry.
 E= -231.667120111698     Delta-E=       -0.008700253214 Rises=F Damp=T
 DIIS: error= 1.03D-02 at cycle   2 NSaved=   2.
 NSaved= 2 IEnMin= 2 EnMin= -231.667120111698     IErMin= 2 ErrMin= 1.03D-02
 ErrMax= 1.03D-02  0.00D+00 EMaxC= 1.00D+00 BMatC= 1.57D-02 BMatP= 5.55D-02
 IDIUse=1 WtCom= 1.00D+00 WtEn= 0.00D+00
 Coeff-Com: -0.903D+00 0.190D+01
 Coeff:     -0.903D+00 0.190D+01
 Gap=     0.422 Goal=   None    Shift=    0.500
 T= 1064. Gap= 0.922 NK=0 IS=   22 IE=   66 IFin=   21
          NO(<0.9)=   0  NV(>0.1)=   0     21.00e < EF      0.00e >EF  Err=0.0D+00
 Gap=     0.239 Goal=   None    Shift=    0.500
 T= 1064. Gap= 0.739 NK=0 IS=   21 IE=   66 IFin=   20
          NO(<0.9)=   0  NV(>0.1)=   0     20.00e < EF      0.00e >EF  Err=0.0D+00
 GapD=    0.239 DampG=1.000 DampE=0.500 DampFc=0.5000 IDamp=-1.
 Damping current iteration by 5.00D-01
 RMSDP=2.90D-03 MaxDP=1.55D-02 DE=-8.70D-03 OVMax= 2.03D-02

 Cycle   3  Pass 1  IDiag  1:
 Density matrix breaks symmetry, PCut= 1.00D-04
 Density has only Abelian symmetry.
 E= -231.671430469415     Delta-E=       -0.004310357716 Rises=F Damp=T
 DIIS: error= 7.59D-03 at cycle   3 NSaved=   3.
 NSaved= 3 IEnMin= 3 EnMin= -231.671430469415     IErMin= 3 ErrMin= 7.59D-03
 ErrMax= 7.59D-03  0.00D+00 EMaxC= 1.00D+00 BMatC= 5.44D-03 BMatP= 1.57D-02
 IDIUse=1 WtCom= 1.00D+00 WtEn= 0.00D+00
 Coeff-Com:  0.228D+00-0.191D+01 0.268D+01
 Coeff:      0.228D+00-0.191D+01 0.268D+01
 Gap=     0.415 Goal=   None    Shift=    0.500
 T=  923. Gap= 0.916 NK=0 IS=   22 IE=   66 IFin=   21
          NO(<0.9)=   0  NV(>0.1)=   0     21.00e < EF      0.00e >EF  Err=0.0D+00
 Gap=     0.241 Goal=   None    Shift=    0.500
 T=  923. Gap= 0.741 NK=0 IS=   21 IE=   66 IFin=   20
          NO(<0.9)=   0  NV(>0.1)=   0     20.00e < EF      0.00e >EF  Err=0.0D+00
 GapD=    0.241 DampG=1.000 DampE=1.000 DampFc=1.0000 IDamp=-1.
 RMSDP=2.03D-03 MaxDP=1.09D-02 DE=-4.31D-03 OVMax= 1.51D-02

 Cycle   4  Pass 1  IDiag  1:
 Density matrix breaks symmetry, PCut= 1.00D-04
 Density has only Abelian symmetry.
 E= -231.676745262027     Delta-E=       -0.005314792612 Rises=F Damp=F
 DIIS: error= 5.20D-03 at cycle   4 NSaved=   4.
 NSaved= 4 IEnMin= 4 EnMin= -231.676745262027     IErMin= 4 ErrMin= 5.20D-03
 ErrMax= 5.20D-03  0.00D+00 EMaxC= 1.00D+00 BMatC= 5.22D-04 BMatP= 5.44D-03
 IDIUse=1 WtCom= 1.00D+00 WtEn= 0.00D+00
 Coeff-Com:  0.114D+00 0.611D+00-0.168D+01 0.196D+01
 Coeff:      0.114D+00 0.611D+00-0.168D+01 0.196D+01
 Gap=     0.412 Goal=   None    Shift=    0.500
 T=  681. Gap= 0.913 NK=0 IS=   22 IE=   66 IFin=   21
          NO(<0.9)=   0  NV(>0.1)=   0     21.00e < EF      0.00e >EF  Err=0.0D+00
 Gap=     0.247 Goal=   None    Shift=    0.500
 T=  681. Gap= 0.747 NK=0 IS=   21 IE=   66 IFin=   20
          NO(<0.9)=   0  NV(>0.1)=   0     20.00e < EF      0.00e >EF  Err=0.0D+00
 GapD=    0.247 DampG=1.000 DampE=1.000 DampFc=1.0000 IDamp=-1.
 RMSDP=3.83D-04 MaxDP=4.66D-03 DE=-5.31D-03 OVMax= 1.50D-02

 Cycle   5  Pass 1  IDiag  1:
 Density matrix breaks symmetry, PCut= 1.00D-04
 Density has only Abelian symmetry.
 E= -231.677313860618     Delta-E=       -0.000568598591 Rises=F Damp=F
 DIIS: error= 3.18D-03 at cycle   5 NSaved=   5.
 NSaved= 5 IEnMin= 5 EnMin= -231.677313860618     IErMin= 5 ErrMin= 3.18D-03
 ErrMax= 3.18D-03  0.00D+00 EMaxC= 1.00D+00 BMatC= 2.10D-04 BMatP= 5.22D-04
 IDIUse=1 WtCom= 1.00D+00 WtEn= 0.00D+00
 Coeff-Com: -0.131D+00 0.926D+00-0.120D+01-0.867D+00 0.227D+01
 Coeff:     -0.131D+00 0.926D+00-0.120D+01-0.867D+00 0.227D+01
 Gap=     0.409 Goal=   None    Shift=    0.500
 T=  458. Gap= 0.909 NK=0 IS=   22 IE=   66 IFin=   21
          NO(<0.9)=   0  NV(>0.1)=   0     21.00e < EF      0.00e >EF  Err=0.0D+00
 Gap=     0.250 Goal=   None    Shift=    0.500
 T=  458. Gap= 0.750 NK=0 IS=   21 IE=   66 IFin=   20
          NO(<0.9)=   0  NV(>0.1)=   0     20.00e < EF      0.00e >EF  Err=0.0D+00
 GapD=    0.250 DampG=1.000 DampE=1.000 DampFc=1.0000 IDamp=-1.
 RMSDP=2.69D-04 MaxDP=4.40D-03 DE=-5.69D-04 OVMax= 1.24D-02

 Cycle   6  Pass 1  IDiag  1:
 Density matrix breaks symmetry, PCut= 1.00D-04
 Density has only Abelian symmetry.
 E= -231.677612695090     Delta-E=       -0.000298834472 Rises=F Damp=F
 DIIS: error= 1.73D-03 at cycle   6 NSaved=   6.
 NSaved= 6 IEnMin= 6 EnMin= -231.677612695090     IErMin= 6 ErrMin= 1.73D-03
 ErrMax= 1.73D-03  0.00D+00 EMaxC= 1.00D+00 BMatC= 5.94D-05 BMatP= 2.10D-04
 IDIUse=1 WtCom= 1.00D+00 WtEn= 0.00D+00
 Coeff-Com:  0.235D-01-0.265D+00 0.429D+00-0.206D+00-0.114D+01 0.216D+01
 Coeff:      0.235D-01-0.265D+00 0.429D+00-0.206D+00-0.114D+01 0.216D+01
 Gap=     0.408 Goal=   None    Shift=    0.500
 T=  184. Gap= 0.908 NK=0 IS=   22 IE=   66 IFin=   21
          NO(<0.9)=   0  NV(>0.1)=   0     21.00e < EF      0.00e >EF  Err=0.0D+00
 Gap=     0.252 Goal=   None    Shift=    0.500
 T=  184. Gap= 0.752 NK=0 IS=   21 IE=   66 IFin=   20
          NO(<0.9)=   0  NV(>0.1)=   0     20.00e < EF      0.00e >EF  Err=0.0D+00
 GapD=    0.252 DampG=1.000 DampE=1.000 DampFc=1.0000 IDamp=-1.
 RMSDP=1.52D-04 MaxDP=2.70D-03 DE=-2.99D-04 OVMax= 7.16D-03

 Cycle   7  Pass 1  IDiag  1:
 Density matrix breaks symmetry, PCut= 1.00D-04
 Density has only Abelian symmetry.
 E= -231.677702858048     Delta-E=       -0.000090162958 Rises=F Damp=F
 DIIS: error= 8.72D-04 at cycle   7 NSaved=   7.
 NSaved= 7 IEnMin= 7 EnMin= -231.677702858048     IErMin= 7 ErrMin= 8.72D-04
 ErrMax= 8.72D-04  0.00D+00 EMaxC= 1.00D+00 BMatC= 1.61D-05 BMatP= 5.94D-05
 IDIUse=1 WtCom= 1.00D+00 WtEn= 0.00D+00
 Coeff-Com: -0.242D-01 0.270D+00-0.433D+00 0.140D+00 0.126D+01-0.379D+01
 Coeff-Com:  0.358D+01
 Coeff:     -0.242D-01 0.270D+00-0.433D+00 0.140D+00 0.126D+01-0.379D+01
 Coeff:      0.358D+01
 Gap=     0.408 Goal=   None    Shift=    0.500
 Gap=     0.252 Goal=   None    Shift=    0.500
 RMSDP=7.69D-05 MaxDP=1.35D-03 DE=-9.02D-05 OVMax= 3.70D-03

 Cycle   8  Pass 1  IDiag  1:
 Density matrix breaks symmetry, PCut= 1.00D-04
 Density has only Abelian symmetry.
 E= -231.677725832991     Delta-E=       -0.000022974943 Rises=F Damp=F
 DIIS: error= 4.38D-04 at cycle   8 NSaved=   8.
 NSaved= 8 IEnMin= 8 EnMin= -231.677725832991     IErMin= 8 ErrMin= 4.38D-04
 ErrMax= 4.38D-04  0.00D+00 EMaxC= 1.00D+00 BMatC= 4.04D-06 BMatP= 1.61D-05
 IDIUse=1 WtCom= 1.00D+00 WtEn= 0.00D+00
 Coeff-Com:  0.783D-02-0.766D-01 0.125D+00-0.807D-01-0.440D+00 0.180D+01
 Coeff-Com: -0.335D+01 0.301D+01
 Coeff:      0.783D-02-0.766D-01 0.125D+00-0.807D-01-0.440D+00 0.180D+01
 Coeff:     -0.335D+01 0.301D+01
 Gap=     0.408 Goal=   None    Shift=    0.500
 Gap=     0.252 Goal=   None    Shift=    0.500
 RMSDP=3.62D-05 MaxDP=5.84D-04 DE=-2.30D-05 OVMax= 1.85D-03

 Cycle   9  Pass 1  IDiag  1:
 Density matrix breaks symmetry, PCut= 1.00D-04
 Density has only Abelian symmetry.
 E= -231.677731162636     Delta-E=       -0.000005329645 Rises=F Damp=F
 DIIS: error= 2.13D-04 at cycle   9 NSaved=   9.
 NSaved= 9 IEnMin= 9 EnMin= -231.677731162636     IErMin= 9 ErrMin= 2.13D-04
 ErrMax= 2.13D-04  0.00D+00 EMaxC= 1.00D+00 BMatC= 8.90D-07 BMatP= 4.04D-06
 IDIUse=1 WtCom= 1.00D+00 WtEn= 0.00D+00
 Coeff-Com: -0.460D-02 0.426D-01-0.671D-01 0.267D-01 0.243D+00-0.960D+00
 Coeff-Com:  0.190D+01-0.303D+01 0.285D+01
 Coeff:     -0.460D-02 0.426D-01-0.671D-01 0.267D-01 0.243D+00-0.960D+00
 Coeff:      0.190D+01-0.303D+01 0.285D+01
 Gap=     0.408 Goal=   None    Shift=    0.500
 Gap=     0.252 Goal=   None    Shift=    0.500
 RMSDP=1.65D-05 MaxDP=2.75D-04 DE=-5.33D-06 OVMax= 8.91D-04

 Cycle  10  Pass 1  IDiag  1:
 Density matrix breaks symmetry, PCut= 1.00D-04
 Density has only Abelian symmetry.
 E= -231.677732321038     Delta-E=       -0.000001158402 Rises=F Damp=F
 DIIS: error= 1.02D-04 at cycle  10 NSaved=  10.
 NSaved=10 IEnMin=10 EnMin= -231.677732321038     IErMin=10 ErrMin= 1.02D-04
 ErrMax= 1.02D-04  0.00D+00 EMaxC= 1.00D+00 BMatC= 1.87D-07 BMatP= 8.90D-07
 IDIUse=1 WtCom= 1.00D+00 WtEn= 0.00D+00
 Coeff-Com:  0.267D-02-0.220D-01 0.342D-01-0.198D-01-0.117D+00 0.509D+00
 Coeff-Com: -0.110D+01 0.193D+01-0.313D+01 0.292D+01
 Coeff:      0.267D-02-0.220D-01 0.342D-01-0.198D-01-0.117D+00 0.509D+00
 Coeff:     -0.110D+01 0.193D+01-0.313D+01 0.292D+01
 Gap=     0.408 Goal=   None    Shift=    0.500
 Gap=     0.252 Goal=   None    Shift=    0.500
 RMSDP=7.57D-06 MaxDP=1.27D-04 DE=-1.16D-06 OVMax= 4.19D-04

 Cycle  11  Pass 1  IDiag  1:
 Density matrix breaks symmetry, PCut= 1.00D-04
 Density has only Abelian symmetry.
 E= -231.677732563634     Delta-E=       -0.000000242596 Rises=F Damp=F
 DIIS: error= 4.92D-05 at cycle  11 NSaved=  11.
 NSaved=11 IEnMin=11 EnMin= -231.677732563634     IErMin=11 ErrMin= 4.92D-05
 ErrMax= 4.92D-05  0.00D+00 EMaxC= 1.00D+00 BMatC= 3.86D-08 BMatP= 1.87D-07
 IDIUse=1 WtCom= 1.00D+00 WtEn= 0.00D+00
 Coeff-Com: -0.170D-02 0.137D-01-0.209D-01 0.978D-02 0.714D-01-0.306D+00
 Coeff-Com:  0.677D+00-0.129D+01 0.229D+01-0.347D+01 0.303D+01
 Coeff:     -0.170D-02 0.137D-01-0.209D-01 0.978D-02 0.714D-01-0.306D+00
 Coeff:      0.677D+00-0.129D+01 0.229D+01-0.347D+01 0.303D+01
 Gap=     0.408 Goal=   None    Shift=    0.500
 Gap=     0.252 Goal=   None    Shift=    0.500
 RMSDP=3.40D-06 MaxDP=5.67D-05 DE=-2.43D-07 OVMax= 1.97D-04

 Cycle  12  Pass 1  IDiag  1:
 Density matrix breaks symmetry, PCut= 1.00D-04
 Density has only Abelian symmetry.
 E= -231.677732613663     Delta-E=       -0.000000050029 Rises=F Damp=F
 DIIS: error= 2.38D-05 at cycle  12 NSaved=  12.
 NSaved=12 IEnMin=12 EnMin= -231.677732613663     IErMin=12 ErrMin= 2.38D-05
 ErrMax= 2.38D-05  0.00D+00 EMaxC= 1.00D+00 BMatC= 8.15D-09 BMatP= 3.86D-08
 IDIUse=1 WtCom= 1.00D+00 WtEn= 0.00D+00
 Coeff-Com:  0.404D-03-0.267D-02 0.390D-02-0.285D-02-0.103D-01 0.552D-01
 Coeff-Com: -0.137D+00 0.292D+00-0.625D+00 0.134D+01-0.277D+01 0.285D+01
 Coeff:      0.404D-03-0.267D-02 0.390D-02-0.285D-02-0.103D-01 0.552D-01
 Coeff:     -0.137D+00 0.292D+00-0.625D+00 0.134D+01-0.277D+01 0.285D+01
 Gap=     0.408 Goal=   None    Shift=    0.500
 Gap=     0.252 Goal=   None    Shift=    0.500
 RMSDP=1.52D-06 MaxDP=2.54D-05 DE=-5.00D-08 OVMax= 9.34D-05

 Cycle  13  Pass 1  IDiag  1:
 Density matrix breaks symmetry, PCut= 1.00D-04
 Density has only Abelian symmetry.
 E= -231.677732624103     Delta-E=       -0.000000010439 Rises=F Damp=F
 DIIS: error= 1.14D-05 at cycle  13 NSaved=  13.
 NSaved=13 IEnMin=13 EnMin= -231.677732624103     IErMin=13 ErrMin= 1.14D-05
 ErrMax= 1.14D-05  0.00D+00 EMaxC= 1.00D+00 BMatC= 1.72D-09 BMatP= 8.15D-09
 IDIUse=1 WtCom= 1.00D+00 WtEn= 0.00D+00
 Coeff-Com:  0.496D-04-0.634D-03 0.103D-02-0.261D-03-0.390D-02 0.104D-01
 Coeff-Com: -0.936D-02-0.114D-01 0.768D-01-0.277D+00 0.940D+00-0.248D+01
 Coeff-Com:  0.275D+01
 Coeff:      0.496D-04-0.634D-03 0.103D-02-0.261D-03-0.390D-02 0.104D-01
 Coeff:     -0.936D-02-0.114D-01 0.768D-01-0.277D+00 0.940D+00-0.248D+01
 Coeff:      0.275D+01
 Gap=     0.408 Goal=   None    Shift=    0.500
 Gap=     0.252 Goal=   None    Shift=    0.500
 RMSDP=6.77D-07 MaxDP=1.14D-05 DE=-1.04D-08 OVMax= 4.40D-05

 Density matrix breaks symmetry, PCut= 1.00D-04
 Density has only Abelian symmetry.
 SCF Done:  E(ULC-wHPBE) =  -231.677732624     A.U. after   13 cycles
            NFock= 13  Conv=0.68D-06     -V/T= 2.0049
 <Sx>= 0.0000 <Sy>= 0.0000 <Sz>= 0.5000 <S**2>= 0.7868 S= 0.5182
 <L.S>= 0.000000000000E+00
 KE= 2.305527267694D+02 PE=-9.348230023405D+02 EE= 2.690485448550D+02
 Annihilation of the first spin contaminant:
 S**2 before annihilation     0.7868,   after     0.7506
 Leave Link  502 at Mon Mar 16 03:49:24 2020, MaxMem=  6710886400 cpu:              20.0 elap:               1.3
 (Enter /opt/ohpc/pub/libs/gaussian/g16-A.03/sandybridge/g16/l508.exe)
 QCSCF skips out because SCF is already converged.
 Leave Link  508 at Mon Mar 16 03:49:24 2020, MaxMem=  6710886400 cpu:               0.3 elap:               0.0
 (Enter /opt/ohpc/pub/libs/gaussian/g16-A.03/sandybridge/g16/l601.exe)
 Copying SCF densities to generalized density rwf, IOpCl= 1 IROHF=0.
 SCF density gives NOpUse=  8 NOpAll= 24.
 Marking SCF density as not fully symmetric.

 **********************************************************************

            Population analysis using the SCF density.

 **********************************************************************

 Orbital symmetries:
 Alpha Orbitals:
       Occupied  (?A) (?A) (?A) (?A) (?A) (?A) (?B) (?B) (?B) (?B)
                 (?B) (?B) (?B) (?B) (?B) (?B) (?C) (?B) (?B) (?C)
                 (?C)
       Virtual   (?C) (?C) (?B) (?C) (?B) (?B) (?B) (?B) (?B) (?B)
                 (?B) (?B) (?B) (?B) (?C) (?B) (?B) (?B) (?C) (?C)
                 (?B) (?B) (?B) (?C) (?B) (?B) (?C) (?C) (?B) (?B)
                 (?B) (?B) (?B) (?B) (?B) (?B) (?B) (?B) (?B) (?B)
                 (?B) (?B) (?B) (?B) (?B)
 Beta  Orbitals:
       Occupied  (?A) (?A) (?A) (?A) (?A) (?A) (?B) (B2G) (B2G)
                 (?B) (?B) (?B) (B2G) (B2G) (B2G) (B2G) (?C) (?B)
                 (?B) (?D)
       Virtual   (?D) (?C) (?C) (?D) (B2G) (?D) (B2G) (?D) (?D)
                 (B2G) (?D) (?D) (B2G) (B2G) (B2G) (?C) (B2G) (?D)
                 (?D) (?D) (?D) (?D) (?D) (?D) (B2G) (B2G) (E2U)
                 (E2U) (?D) (B2G) (?A) (?A) (B2G) (B2G) (?A) (?D)
                 (B2G) (B2G) (?D) (?D) (B2G) (B2G) (B2G) (E2G)
                 (E2G) (B1U)
 Unable to determine electronic state:  an orbital has unidentified symmetry.
 Alpha  occ. eigenvalues --  -10.37812 -10.37808 -10.37780 -10.37776 -10.33737
 Alpha  occ. eigenvalues --  -10.33732  -1.26011  -1.15092  -1.12221  -0.97436
 Alpha  occ. eigenvalues --   -0.97383  -0.88696  -0.81518  -0.80420  -0.78464
 Alpha  occ. eigenvalues --   -0.76204  -0.75091  -0.68520  -0.68185  -0.62760
 Alpha  occ. eigenvalues --   -0.58197
 Alpha virt. eigenvalues --   -0.17403  -0.13409   0.00200   0.03524   0.05430
 Alpha virt. eigenvalues --    0.06629   0.09084   0.10247   0.11683   0.19243
 Alpha virt. eigenvalues --    0.19748   0.20589   0.21189   0.39271   0.40459
 Alpha virt. eigenvalues --    0.43321   0.45107   0.45997   0.48598   0.51028
 Alpha virt. eigenvalues --    0.51470   0.52032   0.54541   0.55206   0.55834
 Alpha virt. eigenvalues --    0.56339   0.57443   0.64590   0.75028   0.76208
 Alpha virt. eigenvalues --    0.77724   0.80505   0.82333   0.88094   0.88523
 Alpha virt. eigenvalues --    0.90473   0.90533   1.02289   1.03981   1.08410
 Alpha virt. eigenvalues --    1.09431   1.13830   1.36091   1.36377   1.81469
  Beta  occ. eigenvalues --  -10.37322 -10.37322 -10.37299 -10.37294 -10.33973
  Beta  occ. eigenvalues --  -10.33969  -1.24708  -1.12431  -1.12073  -0.96840
  Beta  occ. eigenvalues --   -0.96374  -0.88381  -0.81042  -0.79956  -0.77881
  Beta  occ. eigenvalues --   -0.76243  -0.69160  -0.68308  -0.67896  -0.58328
  Beta virt. eigenvalues --   -0.33136  -0.11363  -0.11132   0.00400   0.05713
  Beta virt. eigenvalues --    0.06036   0.06679   0.09883   0.10366   0.11978
  Beta virt. eigenvalues --    0.19870   0.19932   0.21068   0.21550   0.39609
  Beta virt. eigenvalues --    0.42104   0.44401   0.45543   0.46354   0.51337
  Beta virt. eigenvalues --    0.51426   0.52203   0.52637   0.54844   0.56601
  Beta virt. eigenvalues --    0.57152   0.57437   0.57691   0.65519   0.75364
  Beta virt. eigenvalues --    0.76601   0.77800   0.81158   0.82320   0.88309
  Beta virt. eigenvalues --    0.88760   0.90756   0.91491   1.03578   1.04233
  Beta virt. eigenvalues --    1.09258   1.09516   1.14293   1.36577   1.37131
  Beta virt. eigenvalues --    1.82156
          Condensed to atoms (all electrons):
               1          2          3          4          5          6
     1  C    4.925834   0.522272  -0.064759  -0.021032  -0.064759   0.522272
     2  C    0.522272   4.972991   0.409780  -0.064759  -0.022190  -0.050773
     3  C   -0.064759   0.409780   4.972991   0.522272  -0.050773  -0.022190
     4  C   -0.021032  -0.064759   0.522272   4.925834   0.522272  -0.064759
     5  C   -0.064759  -0.022190  -0.050773   0.522272   4.972991   0.409780
     6  C    0.522272  -0.050773  -0.022190  -0.064759   0.409780   4.972991
     7  H    0.371529  -0.022520   0.002915   0.000065   0.002915  -0.022520
     8  H   -0.018529   0.365438  -0.026673   0.002668   0.000055   0.002831
     9  H    0.002668  -0.026673   0.365438  -0.018529   0.002831   0.000055
    10  H    0.000065   0.002915  -0.022520   0.371529  -0.022520   0.002915
    11  H    0.002668   0.000055   0.002831  -0.018529   0.365438  -0.026673
    12  H   -0.018529   0.002831   0.000055   0.002668  -0.026673   0.365438
               7          8          9         10         11         12
     1  C    0.371529  -0.018529   0.002668   0.000065   0.002668  -0.018529
     2  C   -0.022520   0.365438  -0.026673   0.002915   0.000055   0.002831
     3  C    0.002915  -0.026673   0.365438  -0.022520   0.002831   0.000055
     4  C    0.000065   0.002668  -0.018529   0.371529  -0.018529   0.002668
     5  C    0.002915   0.000055   0.002831  -0.022520   0.365438  -0.026673
     6  C   -0.022520   0.002831   0.000055   0.002915  -0.026673   0.365438
     7  H    0.403644  -0.002121  -0.000065   0.000002  -0.000065  -0.002121
     8  H   -0.002121   0.393230  -0.001825  -0.000065   0.000004  -0.000062
     9  H   -0.000065  -0.001825   0.393230  -0.002121  -0.000062   0.000004
    10  H    0.000002  -0.000065  -0.002121   0.403644  -0.002121  -0.000065
    11  H   -0.000065   0.000004  -0.000062  -0.002121   0.393230  -0.001825
    12  H   -0.002121  -0.000062   0.000004  -0.000065  -0.001825   0.393230
          Atomic-Atomic Spin Densities.
               1          2          3          4          5          6
     1  C   -0.215846  -0.006225  -0.008676   0.006326  -0.008676  -0.006225
     2  C   -0.006225   0.372445   0.041315  -0.008676  -0.007124  -0.006012
     3  C   -0.008676   0.041315   0.372445  -0.006225  -0.006012  -0.007124
     4  C    0.006326  -0.008676  -0.006225  -0.215846  -0.006225  -0.008676
     5  C   -0.008676  -0.007124  -0.006012  -0.006225   0.372445   0.041315
     6  C   -0.006225  -0.006012  -0.007124  -0.008676   0.041315   0.372445
     7  H    0.001564  -0.000859   0.000126  -0.000039   0.000126  -0.000859
     8  H    0.000112  -0.000146  -0.001817  -0.000020  -0.000050   0.000083
     9  H   -0.000020  -0.001817  -0.000146   0.000112   0.000083  -0.000050
    10  H   -0.000039   0.000126  -0.000859   0.001564  -0.000859   0.000126
    11  H   -0.000020  -0.000050   0.000083   0.000112  -0.000146  -0.001817
    12  H    0.000112   0.000083  -0.000050  -0.000020  -0.001817  -0.000146
               7          8          9         10         11         12
     1  C    0.001564   0.000112  -0.000020  -0.000039  -0.000020   0.000112
     2  C   -0.000859  -0.000146  -0.001817   0.000126  -0.000050   0.000083
     3  C    0.000126  -0.001817  -0.000146  -0.000859   0.000083  -0.000050
     4  C   -0.000039  -0.000020   0.000112   0.001564   0.000112  -0.000020
     5  C    0.000126  -0.000050   0.000083  -0.000859  -0.000146  -0.001817
     6  C   -0.000859   0.000083  -0.000050   0.000126  -0.001817  -0.000146
     7  H    0.006228  -0.000009   0.000003  -0.000001   0.000003  -0.000009
     8  H   -0.000009  -0.015490  -0.000060   0.000003  -0.000000   0.000005
     9  H    0.000003  -0.000060  -0.015490  -0.000009   0.000005  -0.000000
    10  H   -0.000001   0.000003  -0.000009   0.006228  -0.000009   0.000003
    11  H    0.000003  -0.000000   0.000005  -0.000009  -0.015490  -0.000060
    12  H   -0.000009   0.000005  -0.000000   0.000003  -0.000060  -0.015490
 Mulliken charges and spin densities:
               1          2
     1  C   -0.159701  -0.237615
     2  C   -0.089368   0.383059
     3  C   -0.089368   0.383059
     4  C   -0.159701  -0.237615
     5  C   -0.089368   0.383059
     6  C   -0.089368   0.383059
     7  H    0.268340   0.006277
     8  H    0.285049  -0.017390
     9  H    0.285049  -0.017390
    10  H    0.268340   0.006277
    11  H    0.285049  -0.017390
    12  H    0.285049  -0.017390
 Sum of Mulliken charges =   1.00000   1.00000
 Mulliken charges and spin densities with hydrogens summed into heavy atoms:
               1          2
     1  C    0.108639  -0.231338
     2  C    0.195681   0.365669
     3  C    0.195681   0.365669
     4  C    0.108639  -0.231338
     5  C    0.195681   0.365669
     6  C    0.195681   0.365669
 Electronic spatial extent (au):  <R**2>=            437.0647
 Charge=              1.0000 electrons
 Dipole moment (field-independent basis, Debye):
    X=             -0.0000    Y=              0.0000    Z=             -0.0000  Tot=              0.0000
 Quadrupole moment (field-independent basis, Debye-Ang):
   XX=            -17.7854   YY=            -21.7223   ZZ=            -35.1156
   XY=             -0.0000   XZ=              0.0000   YZ=              0.0000
 Traceless Quadrupole moment (field-independent basis, Debye-Ang):
   XX=              7.0890   YY=              3.1521   ZZ=            -10.2412
   XY=             -0.0000   XZ=              0.0000   YZ=              0.0000
 Octapole moment (field-independent basis, Debye-Ang**2):
  XXX=              0.0000  YYY=              0.0000  ZZZ=              0.0000  XYY=             -0.0000
  XXY=             -0.0000  XXZ=              0.0000  XZZ=             -0.0000  YZZ=              0.0000
  YYZ=              0.0000  XYZ=              0.0000
 Hexadecapole moment (field-independent basis, Debye-Ang**3):
 XXXX=           -193.8658 YYYY=           -209.3895 ZZZZ=            -34.3612 XXXY=              0.0000
 XXXZ=              0.0000 YYYX=              0.0000 YYYZ=              0.0000 ZZZX=             -0.0000
 ZZZY=             -0.0000 XXYY=            -65.5437 XXZZ=            -51.9586 YYZZ=            -55.5119
 XXYZ=              0.0000 YYXZ=              0.0000 ZZXY=              0.0000
 N-N= 2.035439980921D+02 E-N=-9.348230042837D+02  KE= 2.305527267694D+02
 Symmetry AG   KE= 7.451542723349D+01
 Symmetry B1G  KE= 3.776725071594D+01
 Symmetry B2G  KE= 1.191872016378D+00
 Symmetry B3G  KE= 2.326587255775D+00
 Symmetry AU   KE=-5.604184165801D-17
 Symmetry B1U  KE= 1.949868668344D+00
 Symmetry B2U  KE= 7.219118943930D+01
 Symmetry B3U  KE= 4.061053144014D+01
 Symmetry AG   SP=-2.436934795668D-14
 Symmetry B1G  SP=-1.288794171752D-14
 Symmetry B2G  SP= 1.000000000000D+00
 Symmetry B3G  SP= 4.762900143729D-15
 Symmetry AU   SP=-6.831445486651D-17
 Symmetry B1U  SP=-3.979103288185D-15
 Symmetry B2U  SP= 7.966853088695D-17
 Symmetry B3U  SP=-8.857498068338D-15
                          Isotropic Fermi Contact Couplings
        Atom                 a.u.       MegaHertz       Gauss      10(-4) cm-1
     1  C(13)             -0.03641     -40.93498     -14.60662     -13.65444
     2  C(13)              0.04602      51.74017      18.46218      17.25866
     3  C(13)              0.04602      51.74017      18.46218      17.25866
     4  C(13)             -0.03641     -40.93498     -14.60662     -13.65444
     5  C(13)              0.04602      51.74017      18.46218      17.25866
     6  C(13)              0.04602      51.74017      18.46218      17.25866
     7  H(1)               0.00251      11.23168       4.00774       3.74648
     8  H(1)              -0.00685     -30.63481     -10.93126     -10.21867
     9  H(1)              -0.00685     -30.63481     -10.93126     -10.21867
    10  H(1)               0.00251      11.23168       4.00774       3.74648
    11  H(1)              -0.00685     -30.63481     -10.93126     -10.21867
    12  H(1)              -0.00685     -30.63481     -10.93126     -10.21867
 --------------------------------------------------------
       Center         ----  Spin Dipole Couplings  ----
                      3XX-RR        3YY-RR        3ZZ-RR
 --------------------------------------------------------
     1   Atom        0.082306      0.074501     -0.156807
     2   Atom       -0.193258     -0.186585      0.379843
     3   Atom       -0.193258     -0.186585      0.379843
     4   Atom        0.082306      0.074501     -0.156807
     5   Atom       -0.193258     -0.186585      0.379843
     6   Atom       -0.193258     -0.186585      0.379843
     7   Atom        0.008034     -0.002484     -0.005550
     8   Atom        0.011300     -0.003705     -0.007595
     9   Atom        0.011300     -0.003705     -0.007595
    10   Atom        0.008034     -0.002484     -0.005550
    11   Atom        0.011300     -0.003705     -0.007595
    12   Atom        0.011300     -0.003705     -0.007595
 --------------------------------------------------------
                        XY            XZ            YZ
 --------------------------------------------------------
     1   Atom        0.000000      0.000000      0.000000
     2   Atom       -0.005260     -0.000000     -0.000000
     3   Atom        0.005260     -0.000000      0.000000
     4   Atom       -0.000000      0.000000     -0.000000
     5   Atom       -0.005260      0.000000      0.000000
     6   Atom        0.005260      0.000000     -0.000000
     7   Atom        0.000000     -0.000000     -0.000000
     8   Atom       -0.029351     -0.000000      0.000000
     9   Atom        0.029351     -0.000000     -0.000000
    10   Atom       -0.000000     -0.000000      0.000000
    11   Atom       -0.029351      0.000000     -0.000000
    12   Atom        0.029351      0.000000      0.000000
 --------------------------------------------------------


 ---------------------------------------------------------------------------------
              Anisotropic Spin Dipole Couplings in Principal Axis System
 ---------------------------------------------------------------------------------

       Atom             a.u.   MegaHertz   Gauss  10(-4) cm-1        Axes

              Baa    -0.1568   -21.042    -7.508    -7.019  0.0000  0.0000  1.0000
     1 C(13)  Bbb     0.0745     9.997     3.567     3.335 -0.0000  1.0000 -0.0000
              Bcc     0.0823    11.045     3.941     3.684  1.0000  0.0000 -0.0000
 
              Baa    -0.1962   -26.322    -9.392    -8.780  0.8763  0.4818 -0.0000
     2 C(13)  Bbb    -0.1837   -24.650    -8.796    -8.222 -0.4818  0.8763 -0.0000
              Bcc     0.3798    50.971    18.188    17.002  0.0000  0.0000  1.0000
 
              Baa    -0.1962   -26.322    -9.392    -8.780  0.8763 -0.4818  0.0000
     3 C(13)  Bbb    -0.1837   -24.650    -8.796    -8.222  0.4818  0.8763 -0.0000
              Bcc     0.3798    50.971    18.188    17.002  0.0000  0.0000  1.0000
 
              Baa    -0.1568   -21.042    -7.508    -7.019  0.0000  0.0000  1.0000
     4 C(13)  Bbb     0.0745     9.997     3.567     3.335  0.0000  1.0000  0.0000
              Bcc     0.0823    11.045     3.941     3.684  1.0000 -0.0000  0.0000
 
              Baa    -0.1962   -26.322    -9.392    -8.780  0.8763  0.4818 -0.0000
     5 C(13)  Bbb    -0.1837   -24.650    -8.796    -8.222 -0.4818  0.8763 -0.0000
              Bcc     0.3798    50.971    18.188    17.002  0.0000  0.0000  1.0000
 
              Baa    -0.1962   -26.322    -9.392    -8.780  0.8763 -0.4818  0.0000
     6 C(13)  Bbb    -0.1837   -24.650    -8.796    -8.222  0.4818  0.8763 -0.0000
              Bcc     0.3798    50.971    18.188    17.002  0.0000  0.0000  1.0000
 
              Baa    -0.0055    -2.961    -1.057    -0.988  0.0000  0.0000  1.0000
     7 H(1)   Bbb    -0.0025    -1.325    -0.473    -0.442 -0.0000  1.0000 -0.0000
              Bcc     0.0080     4.286     1.530     1.430  1.0000  0.0000 -0.0000
 
              Baa    -0.0265   -14.138    -5.045    -4.716  0.6133  0.7898  0.0000
     8 H(1)   Bbb    -0.0076    -4.052    -1.446    -1.352  0.0000  0.0000  1.0000
              Bcc     0.0341    18.190     6.491     6.067  0.7898 -0.6133  0.0000
 
              Baa    -0.0265   -14.138    -5.045    -4.716 -0.6133  0.7898  0.0000
     9 H(1)   Bbb    -0.0076    -4.052    -1.446    -1.352  0.0000  0.0000  1.0000
              Bcc     0.0341    18.190     6.491     6.067  0.7898  0.6133 -0.0000
 
              Baa    -0.0055    -2.961    -1.057    -0.988  0.0000  0.0000  1.0000
    10 H(1)   Bbb    -0.0025    -1.325    -0.473    -0.442  0.0000  1.0000  0.0000
              Bcc     0.0080     4.286     1.530     1.430  1.0000 -0.0000  0.0000
 
              Baa    -0.0265   -14.138    -5.045    -4.716  0.6133  0.7898  0.0000
    11 H(1)   Bbb    -0.0076    -4.052    -1.446    -1.352  0.0000  0.0000  1.0000
              Bcc     0.0341    18.190     6.491     6.067  0.7898 -0.6133  0.0000
 
              Baa    -0.0265   -14.138    -5.045    -4.716 -0.6133  0.7898  0.0000
    12 H(1)   Bbb    -0.0076    -4.052    -1.446    -1.352  0.0000  0.0000  1.0000
              Bcc     0.0341    18.190     6.491     6.067  0.7898  0.6133 -0.0000
 

 ---------------------------------------------------------------------------------

 No NMR shielding tensors so no spin-rotation constants.
 Leave Link  601 at Mon Mar 16 03:49:24 2020, MaxMem=  6710886400 cpu:               3.3 elap:               0.2
 (Enter /opt/ohpc/pub/libs/gaussian/g16-A.03/sandybridge/g16/l9999.exe)

 Test job not archived.
 1\1\GINC-CNODE145\SP\ULC-wHPBE\6-31G\C6H6(1+,2)\QAI222\16-Mar-2020\0\\
 #P uLC-wHPBE/6-31G iop(3/107=0393800000, 3/108=0393800000) scf=(conver
 =6,fermi,ndamp=35,noincfock,novaracc,vshift=500,xqc)\\H6 C6\\1,2\C,0,0
 .,1.39316,0.\C,0,-1.206512,0.69658,0.\C,0,-1.206512,-0.69658,0.\C,0,0.
 ,-1.39316,0.\C,0,1.206512,-0.69658,0.\C,0,1.206512,0.69658,0.\H,0,0.,2
 .482681,0.\H,0,-2.150065,1.24134,0.\H,0,-2.150065,-1.24134,0.\H,0,0.,-
 2.482681,0.\H,0,2.150065,-1.24134,0.\H,0,2.150065,1.24134,0.\\Version=
 EM64L-G16RevA.03\HF=-231.6777326\S2=0.786783\S2-1=0.\S2A=0.750636\RMSD
 =6.768e-07\Dipole=0.,0.,0.\Quadrupole=5.2705347,2.3435207,-7.6140554,0
 .,0.,0.\PG=D06H [3C2'(H1C1.C1H1)]\\@


 JUST WHEN YOU THINK YOU'VE GOT THE WORLD ON A STRING,
 YOU FIND OUT IT'S YOUR LEASH.
 Job cpu time:       0 days  0 hours  0 minutes 47.3 seconds.
 Elapsed time:       0 days  0 hours  0 minutes  3.2 seconds.
 File lengths (MBytes):  RWF=    272 Int=      0 D2E=      0 Chk=     32 Scr=     32
 Normal termination of Gaussian 16 at Mon Mar 16 03:49:24 2020.
