 Entering Gaussian System, Link 0=g16
 Input=1b_tune_n10.gjf
 Output=1b_tune_n10.log
 Initial command:
 /opt/ohpc/pub/libs/gaussian/g16-A.03/haswell/g16/l1.exe "/scratch/smgo234/Ocelot/test/1b/tuning_1b_ocycle0/Gau-35947.inp" -scrdir="/scratch/smgo234/Ocelot/test/1b/tuning_1b_ocycle0/"
 Entering Link 1 = /opt/ohpc/pub/libs/gaussian/g16-A.03/haswell/g16/l1.exe PID=     35948.
  
 Copyright (c) 1988,1990,1992,1993,1995,1998,2003,2009,2016,
            Gaussian, Inc.  All Rights Reserved.
  
 This is part of the Gaussian(R) 16 program.  It is based on
 the Gaussian(R) 09 system (copyright 2009, Gaussian, Inc.),
 the Gaussian(R) 03 system (copyright 2003, Gaussian, Inc.),
 the Gaussian(R) 98 system (copyright 1998, Gaussian, Inc.),
 the Gaussian(R) 94 system (copyright 1995, Gaussian, Inc.),
 the Gaussian 92(TM) system (copyright 1992, Gaussian, Inc.),
 the Gaussian 90(TM) system (copyright 1990, Gaussian, Inc.),
 the Gaussian 88(TM) system (copyright 1988, Gaussian, Inc.),
 the Gaussian 86(TM) system (copyright 1986, Carnegie Mellon
 University), and the Gaussian 82(TM) system (copyright 1983,
 Carnegie Mellon University). Gaussian is a federally registered
 trademark of Gaussian, Inc.
  
 This software contains proprietary and confidential information,
 including trade secrets, belonging to Gaussian, Inc.
  
 This software is provided under written license and may be
 used, copied, transmitted, or stored only in accord with that
 written license.
  
 The following legend is applicable only to US Government
 contracts under FAR:
  
                    RESTRICTED RIGHTS LEGEND
  
 Use, reproduction and disclosure by the US Government is
 subject to restrictions as set forth in subparagraphs (a)
 and (c) of the Commercial Computer Software - Restricted
 Rights clause in FAR 52.227-19.
  
 Gaussian, Inc.
 340 Quinnipiac St., Bldg. 40, Wallingford CT 06492
  
  
 ---------------------------------------------------------------
 Warning -- This program may not be used in any manner that
 competes with the business of Gaussian, Inc. or will provide
 assistance to any competitor of Gaussian, Inc.  The licensee
 of this program is prohibited from giving any competitor of
 Gaussian, Inc. access to this program.  By using this program,
 the user acknowledges that Gaussian, Inc. is engaged in the
 business of creating and licensing software in the field of
 computational chemistry and represents and warrants to the
 licensee that it is not a competitor of Gaussian, Inc. and that
 it will not use this program in any manner prohibited above.
 ---------------------------------------------------------------
  

 Cite this work as:
 Gaussian 16, Revision A.03,
 M. J. Frisch, G. W. Trucks, H. B. Schlegel, G. E. Scuseria, 
 M. A. Robb, J. R. Cheeseman, G. Scalmani, V. Barone, 
 G. A. Petersson, H. Nakatsuji, X. Li, M. Caricato, A. V. Marenich, 
 J. Bloino, B. G. Janesko, R. Gomperts, B. Mennucci, H. P. Hratchian, 
 J. V. Ortiz, A. F. Izmaylov, J. L. Sonnenberg, D. Williams-Young, 
 F. Ding, F. Lipparini, F. Egidi, J. Goings, B. Peng, A. Petrone, 
 T. Henderson, D. Ranasinghe, V. G. Zakrzewski, J. Gao, N. Rega, 
 G. Zheng, W. Liang, M. Hada, M. Ehara, K. Toyota, R. Fukuda, 
 J. Hasegawa, M. Ishida, T. Nakajima, Y. Honda, O. Kitao, H. Nakai, 
 T. Vreven, K. Throssell, J. A. Montgomery, Jr., J. E. Peralta, 
 F. Ogliaro, M. J. Bearpark, J. J. Heyd, E. N. Brothers, K. N. Kudin, 
 V. N. Staroverov, T. A. Keith, R. Kobayashi, J. Normand, 
 K. Raghavachari, A. P. Rendell, J. C. Burant, S. S. Iyengar, 
 J. Tomasi, M. Cossi, J. M. Millam, M. Klene, C. Adamo, R. Cammi, 
 J. W. Ochterski, R. L. Martin, K. Morokuma, O. Farkas, 
 J. B. Foresman, and D. J. Fox, Gaussian, Inc., Wallingford CT, 2016.
 
 ******************************************
 Gaussian 16:  ES64L-G16RevA.03 25-Dec-2016
                25-Feb-2020 
 ******************************************
 %mem=50GB
 %nproc=16
 Will use up to   16 processors via shared memory.
 ----------------------------------------------------------------------
 #P uLC-wHPBE/6-31G iop(3/107=0272800000, 3/108=0272800000) scf=(conver
 =6,fermi,ndamp=35,noincfock,novaracc,vshift=500,xqc)
 ----------------------------------------------------------------------
 1/38=1,172=1/1;
 2/12=2,17=6,18=5,40=1/2;
 3/5=1,6=6,11=2,25=1,30=1,74=-71,107=272800000,108=272800000,116=2/1,2,3;
 4//1;
 5/5=100002,6=6,8=3,10=500,13=1,18=-1,22=13,38=1,93=35/2,8;
 6/7=2,8=2,9=2,10=2,28=1/1;
 99/5=1,9=1/99;
 Leave Link    1 at Tue Feb 25 12:20:41 2020, MaxMem=  6710886400 cpu:               9.7 elap:               0.6
 (Enter /opt/ohpc/pub/libs/gaussian/g16-A.03/haswell/g16/l101.exe)
 -----
 H6 C5
 -----
 Symbolic Z-matrix:
 Charge =  0 Multiplicity = 1
 C                    -1.20651   0.69658   0. 
 C                    -1.20651  -0.69658   0. 
 C                     0.       -1.39316   0. 
 C                     1.20651  -0.69658   0. 
 C                     1.20651   0.69658   0. 
 H                     0.        2.48268   0. 
 H                    -2.15007   1.24134   0. 
 H                    -2.15007  -1.24134   0. 
 H                     0.       -2.48268   0. 
 H                     2.15007  -1.24134   0. 
 H                     2.15007   1.24134   0. 
 
 ITRead=  0  0  0  0  0  0  0  0  0  0  0
 MicOpt= -1 -1 -1 -1 -1 -1 -1 -1 -1 -1 -1
 NAtoms=     11 NQM=       11 NQMF=       0 NMMI=      0 NMMIF=      0
                NMic=       0 NMicF=      0.
                    Isotopes and Nuclear Properties:
 (Nuclear quadrupole moments (NQMom) in fm**2, nuclear magnetic moments (NMagM)
  in nuclear magnetons)

  Atom         1           2           3           4           5           6           7           8           9          10
 IAtWgt=          12          12          12          12          12           1           1           1           1           1
 AtmWgt=  12.0000000  12.0000000  12.0000000  12.0000000  12.0000000   1.0078250   1.0078250   1.0078250   1.0078250   1.0078250
 NucSpn=           0           0           0           0           0           1           1           1           1           1
 AtZEff=  -0.0000000  -0.0000000  -0.0000000  -0.0000000  -0.0000000  -0.0000000  -0.0000000  -0.0000000  -0.0000000  -0.0000000
 NQMom=    0.0000000   0.0000000   0.0000000   0.0000000   0.0000000   0.0000000   0.0000000   0.0000000   0.0000000   0.0000000
 NMagM=    0.0000000   0.0000000   0.0000000   0.0000000   0.0000000   2.7928460   2.7928460   2.7928460   2.7928460   2.7928460
 AtZNuc=   6.0000000   6.0000000   6.0000000   6.0000000   6.0000000   1.0000000   1.0000000   1.0000000   1.0000000   1.0000000

  Atom        11
 IAtWgt=           1
 AtmWgt=   1.0078250
 NucSpn=           1
 AtZEff=  -0.0000000
 NQMom=    0.0000000
 NMagM=    2.7928460
 AtZNuc=   1.0000000
 Leave Link  101 at Tue Feb 25 12:20:41 2020, MaxMem=  6710886400 cpu:               2.6 elap:               0.2
 (Enter /opt/ohpc/pub/libs/gaussian/g16-A.03/haswell/g16/l202.exe)
                          Input orientation:                          
 ---------------------------------------------------------------------
 Center     Atomic      Atomic             Coordinates (Angstroms)
 Number     Number       Type             X           Y           Z
 ---------------------------------------------------------------------
      1          6           0       -1.206512    0.696580    0.000000
      2          6           0       -1.206512   -0.696580    0.000000
      3          6           0        0.000000   -1.393160    0.000000
      4          6           0        1.206512   -0.696580    0.000000
      5          6           0        1.206512    0.696580    0.000000
      6          1           0        0.000000    2.482681    0.000000
      7          1           0       -2.150065    1.241340    0.000000
      8          1           0       -2.150065   -1.241340    0.000000
      9          1           0        0.000000   -2.482681    0.000000
     10          1           0        2.150065   -1.241340    0.000000
     11          1           0        2.150065    1.241340    0.000000
 ---------------------------------------------------------------------
                    Distance matrix (angstroms):
                    1          2          3          4          5
     1  C    0.000000
     2  C    1.393160   0.000000
     3  C    2.413024   1.393160   0.000000
     4  C    2.786320   2.413024   1.393160   0.000000
     5  C    2.413024   2.786320   2.413024   1.393160   0.000000
     6  H    2.155418   3.400496   3.875841   3.400496   2.155418
     7  H    1.089521   2.155418   3.400496   3.875841   3.400496
     8  H    2.155418   1.089521   2.155418   3.400496   3.875841
     9  H    3.400496   2.155418   1.089521   2.155418   3.400496
    10  H    3.875841   3.400496   2.155418   1.089521   2.155418
    11  H    3.400496   3.875841   3.400496   2.155418   1.089521
                    6          7          8          9         10
     6  H    0.000000
     7  H    2.482681   0.000000
     8  H    4.300129   2.482680   0.000000
     9  H    4.965362   4.300129   2.482681   0.000000
    10  H    4.300129   4.965362   4.300130   2.482681   0.000000
    11  H    2.482681   4.300130   4.965362   4.300129   2.482680
                   11
    11  H    0.000000
 Stoichiometry    C5H6
 Framework group  C2V[C2(HCH),SGV(C4H4)]
 Deg. of freedom    10
 Full point group                 C2V     NOp   4
 Largest Abelian subgroup         C2V     NOp   4
 Largest concise Abelian subgroup C2      NOp   2
                         Standard orientation:                         
 ---------------------------------------------------------------------
 Center     Atomic      Atomic             Coordinates (Angstroms)
 Number     Number       Type             X           Y           Z
 ---------------------------------------------------------------------
      1          6           0       -0.000000    1.206512   -0.928773
      2          6           0       -0.000000    1.206512    0.464387
      3          6           0        0.000000    0.000000    1.160967
      4          6           0       -0.000000   -1.206512    0.464387
      5          6           0       -0.000000   -1.206512   -0.928773
      6          1           0       -0.000000   -0.000000   -2.714874
      7          1           0       -0.000000    2.150065   -1.473533
      8          1           0       -0.000000    2.150065    1.009147
      9          1           0        0.000000    0.000000    2.250488
     10          1           0       -0.000000   -2.150065    1.009147
     11          1           0       -0.000000   -2.150065   -1.473533
 ---------------------------------------------------------------------
 Rotational constants (GHZ):           8.2868568           5.7099792           3.3806054
 Leave Link  202 at Tue Feb 25 12:20:41 2020, MaxMem=  6710886400 cpu:               0.2 elap:               0.0
 (Enter /opt/ohpc/pub/libs/gaussian/g16-A.03/haswell/g16/l301.exe)
 Standard basis: 6-31G (6D, 7F)
 Ernie: Thresh=  0.10000D-02 Tol=  0.10000D-05 Strict=F.
 There are    27 symmetry adapted cartesian basis functions of A1  symmetry.
 There are     4 symmetry adapted cartesian basis functions of A2  symmetry.
 There are     6 symmetry adapted cartesian basis functions of B1  symmetry.
 There are    20 symmetry adapted cartesian basis functions of B2  symmetry.
 There are    27 symmetry adapted basis functions of A1  symmetry.
 There are     4 symmetry adapted basis functions of A2  symmetry.
 There are     6 symmetry adapted basis functions of B1  symmetry.
 There are    20 symmetry adapted basis functions of B2  symmetry.
    57 basis functions,   134 primitive gaussians,    57 cartesian basis functions
    18 alpha electrons       18 beta electrons
       nuclear repulsion energy       145.0218997931 Hartrees.
 IExCor=33909 DFT=T Ex+Corr=LC-wHPBE ExCW=0 ScaHFX=  1.000000
 ScaDFX=  1.000000  1.000000  1.000000  1.000000 ScalE2=  1.000000  1.000000
 IRadAn=      5 IRanWt=     -1 IRanGd=            0 ICorTp=0 IEmpDi=  4
 HFx  wShort=  0.000000 wLong=  0.272800 cFull=  0.000000 cShort=  0.000000 cLong=  1.000000
 DFx  wShort=  0.000000 wLong=  0.272800 cFull=  0.000000 cShort=  1.000000 cLong=  0.000000
 NAtoms=   11 NActive=   11 NUniq=    7 SFac= 2.47D+00 NAtFMM=   60 NAOKFM=F Big=F
 Integral buffers will be    131072 words long.
 Raffenetti 2 integral format.
 Two-electron integral symmetry is turned on.
 Leave Link  301 at Tue Feb 25 12:20:41 2020, MaxMem=  6710886400 cpu:               0.9 elap:               0.1
 (Enter /opt/ohpc/pub/libs/gaussian/g16-A.03/haswell/g16/l302.exe)
 NPDir=0 NMtPBC=     1 NCelOv=     1 NCel=       1 NClECP=     1 NCelD=      1
         NCelK=      1 NCelE2=     1 NClLst=     1 CellRange=     0.0.
 One-electron integrals computed using PRISM.
 One-electron integral symmetry used in STVInt
 NBasis=    57 RedAO= T EigKep=  2.88D-03  NBF=    27     4     6    20
 NBsUse=    57 1.00D-06 EigRej= -1.00D+00 NBFU=    27     4     6    20
 Precomputing XC quadrature grid using
 IXCGrd= 4 IRadAn=           5 IRanWt=          -1 IRanGd=           0 AccXCQ= 0.00D+00.
 Generated NRdTot=       0 NPtTot=           0 NUsed=           0 NTot=          32
 NSgBfM=    57    57    57    57    57 MxSgAt=    11 MxSgA2=    11.
 Leave Link  302 at Tue Feb 25 12:20:42 2020, MaxMem=  6710886400 cpu:               2.9 elap:               0.2
 (Enter /opt/ohpc/pub/libs/gaussian/g16-A.03/haswell/g16/l303.exe)
 DipDrv:  MaxL=1.
 Leave Link  303 at Tue Feb 25 12:20:42 2020, MaxMem=  6710886400 cpu:               0.4 elap:               0.0
 (Enter /opt/ohpc/pub/libs/gaussian/g16-A.03/haswell/g16/l401.exe)
 ExpMin= 1.61D-01 ExpMax= 3.05D+03 ExpMxC= 4.57D+02 IAcc=3 IRadAn=         5 AccDes= 0.00D+00
 Harris functional with IExCor=33909 and IRadAn=       5 diagonalized for initial guess.
 HarFok:  IExCor=33909 AccDes= 0.00D+00 IRadAn=         5 IDoV= 1 UseB2=F ITyADJ=14
 ICtDFT=  3500011 ScaDFX=  1.000000  1.000000  1.000000  1.000000
 FoFCou: FMM=F IPFlag=           0 FMFlag=      100000 FMFlg1=           0
         NFxFlg=           0 DoJE=T BraDBF=F KetDBF=T FulRan=T
         wScrn=  0.000000 ICntrl=       500 IOpCl=  0 I1Cent=   200000004 NGrid=           0
         NMat0=    1 NMatS0=      1 NMatT0=    0 NMatD0=    1 NMtDS0=    0 NMtDT0=    0
 Petite list used in FoFCou.
 Harris En= -188.557696271239    
 JPrj=0 DoOrth=F DoCkMO=F.
 Initial guess orbital symmetries:
 Alpha Orbitals:
       Occupied  (A1) (B2) (A1) (B2) (A1) (A1) (B2) (A1) (B2) (A1)
                 (A1) (B2) (B2) (A1) (B1) (A1) (A2) (B1)
       Virtual   (B2) (A1) (A2) (B1) (A1) (B2) (A1) (B2) (A1) (A1)
                 (B2) (A1) (B2) (B1) (B2) (A1) (B1) (A1) (A2) (B2)
                 (A1) (A2) (B1) (B2) (A1) (A1) (B2) (A1) (B2) (A1)
                 (A1) (B2) (A1) (A1) (B2) (B2) (A1) (A1) (B2)
 Beta  Orbitals:
       Occupied  (A1) (B2) (A1) (B2) (A1) (A1) (B2) (A1) (B2) (A1)
                 (A1) (B2) (B2) (A1) (B1) (A1) (A2) (B1)
       Virtual   (B2) (A1) (A2) (B1) (A1) (B2) (A1) (B2) (A1) (A1)
                 (B2) (A1) (B2) (B1) (B2) (A1) (B1) (A1) (A2) (B2)
                 (A1) (A2) (B1) (B2) (A1) (A1) (B2) (A1) (B2) (A1)
                 (A1) (B2) (A1) (A1) (B2) (B2) (A1) (A1) (B2)
 The electronic state of the initial guess is 1-A1.
 Initial guess <Sx>= 0.0000 <Sy>= 0.0000 <Sz>= 0.0000 <S**2>=-0.0000 S=-0.0000
 Leave Link  401 at Tue Feb 25 12:20:42 2020, MaxMem=  6710886400 cpu:               4.7 elap:               0.3
 (Enter /opt/ohpc/pub/libs/gaussian/g16-A.03/haswell/g16/l502.exe)
 Keep R1 and R2 ints in memory in symmetry-blocked form, NReq=16815659.
 FoFCou: FMM=F IPFlag=           0 FMFlag=           0 FMFlg1=           0
         NFxFlg=           0 DoJE=F BraDBF=F KetDBF=F FulRan=T
         wScrn=  0.000000 ICntrl=       600 IOpCl=  0 I1Cent=           0 NGrid=           0
         NMat0=    1 NMatS0=   1653 NMatT0=    0 NMatD0=    1 NMtDS0=    0 NMtDT0=    0
 Petite list used in FoFCou.
 UHF open shell SCF:
 Using DIIS extrapolation, IDIIS=    10.
 NGot=  6710886400 LenX=  6710059583 LenY=  6710055893
 Requested convergence on RMS density matrix=1.00D-06 within  32 cycles.
 Requested convergence on MAX density matrix=1.00D-04.
 Requested convergence on             energy=1.00D-04.
 Virtual orbitals will be shifted by   0.500 hartree.
 No special actions if energy rises.
 Dynamic level shift is on during FON iterations.

 Cycle   1  Pass 1  IDiag  1:
 E= -193.358727573006    
 DIIS: error= 4.77D-02 at cycle   1 NSaved=   1.
 NSaved= 1 IEnMin= 1 EnMin= -193.358727573006     IErMin= 1 ErrMin= 4.77D-02
 ErrMax= 4.77D-02  0.00D+00 EMaxC= 1.00D+00 BMatC= 4.78D-01 BMatP= 4.78D-01
 IDIUse=1 WtCom= 1.00D+00 WtEn= 0.00D+00
 Coeff-Com:  0.100D+01
 Coeff:      0.100D+01
 Gap=     0.039 Goal=   None    Shift=    0.500
 T= 1775. Gap= 0.488 NK=0 IS=   19 IE=   57 IFin=   18
          NO(<0.9)=   0  NV(>0.1)=   0     18.00e < EF      0.00e >EF  Err=0.0D+00
 Gap=     0.039 Goal=   None    Shift=    0.500
 T= 1775. Gap= 0.488 NK=0 IS=   19 IE=   57 IFin=   18
          NO(<0.9)=   0  NV(>0.1)=   0     18.00e < EF      0.00e >EF  Err=0.0D+00
 GapD=    0.039 DampG=0.250 DampE=0.500 DampFc=0.1250 IDamp=-1.
 Damping current iteration by 1.25D-01
 RMSDP=2.25D-02 MaxDP=4.94D-01              OVMax= 1.43D-01

 Cycle   2  Pass 1  IDiag  1:
 E= -193.391549694215     Delta-E=       -0.032822121209 Rises=F Damp=T
 DIIS: error= 3.38D-02 at cycle   2 NSaved=   2.
 NSaved= 2 IEnMin= 2 EnMin= -193.391549694215     IErMin= 2 ErrMin= 3.38D-02
 ErrMax= 3.38D-02  0.00D+00 EMaxC= 1.00D+00 BMatC= 2.71D-01 BMatP= 4.78D-01
 IDIUse=1 WtCom= 1.00D+00 WtEn= 0.00D+00
 Coeff-Com: -0.276D+01 0.376D+01
 Coeff:     -0.276D+01 0.376D+01
 Gap=     0.004 Goal=   None    Shift=    0.500
 T= 1713. Gap= 0.516 NK=0 IS=   19 IE=   57 IFin=   18
          NO(<0.9)=   0  NV(>0.1)=   0     18.00e < EF      0.00e >EF  Err=0.0D+00
 Gap=     0.004 Goal=   None    Shift=    0.500
 T= 1713. Gap= 0.516 NK=0 IS=   19 IE=   57 IFin=   18
          NO(<0.9)=   0  NV(>0.1)=   0     18.00e < EF      0.00e >EF  Err=0.0D+00
 GapD=    0.004 DampG=0.250 DampE=0.500 DampFc=0.1250 IDamp=-1.
 Damping current iteration by 1.25D-01
 RMSDP=7.96D-03 MaxDP=5.44D-02 DE=-3.28D-02 OVMax= 1.14D-01

 Cycle   3  Pass 1  IDiag  1:
 E= -193.413130116221     Delta-E=       -0.021580422005 Rises=F Damp=T
 DIIS: error= 2.96D-02 at cycle   3 NSaved=   3.
 NSaved= 3 IEnMin= 3 EnMin= -193.413130116221     IErMin= 3 ErrMin= 2.96D-02
 ErrMax= 2.96D-02  0.00D+00 EMaxC= 1.00D+00 BMatC= 2.03D-01 BMatP= 2.71D-01
 IDIUse=1 WtCom= 1.00D+00 WtEn= 0.00D+00
 Coeff-Com: -0.120D+01-0.220D+01 0.440D+01
 Coeff:     -0.120D+01-0.220D+01 0.440D+01
 Gap=     0.104 Goal=   None    Shift=    0.500
 T= 1623. Gap= 0.605 NK=0 IS=   19 IE=   57 IFin=   18
          NO(<0.9)=   0  NV(>0.1)=   0     18.00e < EF      0.00e >EF  Err=0.0D+00
 Gap=     0.104 Goal=   None    Shift=    0.500
 T= 1623. Gap= 0.605 NK=0 IS=   19 IE=   57 IFin=   18
          NO(<0.9)=   0  NV(>0.1)=   0     18.00e < EF      0.00e >EF  Err=0.0D+00
 GapD=    0.104 DampG=1.000 DampE=0.500 DampFc=0.5000 IDamp=-1.
 Damping current iteration by 5.00D-01
 RMSDP=6.44D-03 MaxDP=4.09D-02 DE=-2.16D-02 OVMax= 3.60D-02

 Cycle   4  Pass 1  IDiag  1:
 E= -193.481684775716     Delta-E=       -0.068554659495 Rises=F Damp=T
 DIIS: error= 1.75D-02 at cycle   4 NSaved=   4.
 NSaved= 4 IEnMin= 4 EnMin= -193.481684775716     IErMin= 4 ErrMin= 1.75D-02
 ErrMax= 1.75D-02  0.00D+00 EMaxC= 1.00D+00 BMatC= 5.92D-02 BMatP= 2.03D-01
 IDIUse=1 WtCom= 1.00D+00 WtEn= 0.00D+00
 Coeff-Com: -0.639D+00 0.487D+01-0.626D+01 0.303D+01
 Coeff:     -0.639D+00 0.487D+01-0.626D+01 0.303D+01
 Gap=     0.138 Goal=   None    Shift=    0.500
 T= 1432. Gap= 0.638 NK=0 IS=   19 IE=   57 IFin=   18
          NO(<0.9)=   0  NV(>0.1)=   0     18.00e < EF      0.00e >EF  Err=0.0D+00
 Gap=     0.138 Goal=   None    Shift=    0.500
 T= 1432. Gap= 0.638 NK=0 IS=   19 IE=   57 IFin=   18
          NO(<0.9)=   0  NV(>0.1)=   0     18.00e < EF      0.00e >EF  Err=0.0D+00
 GapD=    0.138 DampG=1.000 DampE=0.500 DampFc=0.5000 IDamp=-1.
 Damping current iteration by 5.00D-01
 RMSDP=3.54D-03 MaxDP=2.59D-02 DE=-6.86D-02 OVMax= 7.93D-03

 Cycle   5  Pass 1  IDiag  1:
 E= -193.514853891664     Delta-E=       -0.033169115948 Rises=F Damp=T
 DIIS: error= 1.10D-02 at cycle   5 NSaved=   5.
 NSaved= 5 IEnMin= 5 EnMin= -193.514853891664     IErMin= 5 ErrMin= 1.10D-02
 ErrMax= 1.10D-02  0.00D+00 EMaxC= 1.00D+00 BMatC= 2.04D-02 BMatP= 5.92D-02
 IDIUse=1 WtCom= 1.00D+00 WtEn= 0.00D+00
 Coeff-Com: -0.273D+00-0.475D+00 0.213D+01-0.454D+01 0.416D+01
 Coeff:     -0.273D+00-0.475D+00 0.213D+01-0.454D+01 0.416D+01
 Gap=     0.156 Goal=   None    Shift=    0.500
 T= 1234. Gap= 0.656 NK=0 IS=   19 IE=   57 IFin=   18
          NO(<0.9)=   0  NV(>0.1)=   0     18.00e < EF      0.00e >EF  Err=0.0D+00
 Gap=     0.156 Goal=   None    Shift=    0.500
 T= 1234. Gap= 0.656 NK=0 IS=   19 IE=   57 IFin=   18
          NO(<0.9)=   0  NV(>0.1)=   0     18.00e < EF      0.00e >EF  Err=0.0D+00
 GapD=    0.156 DampG=1.000 DampE=0.500 DampFc=0.5000 IDamp=-1.
 Damping current iteration by 5.00D-01
 RMSDP=2.15D-03 MaxDP=1.67D-02 DE=-3.32D-02 OVMax= 7.76D-03

 Cycle   6  Pass 1  IDiag  1:
 E= -193.531682705125     Delta-E=       -0.016828813461 Rises=F Damp=T
 DIIS: error= 7.15D-03 at cycle   6 NSaved=   6.
 NSaved= 6 IEnMin= 6 EnMin= -193.531682705125     IErMin= 6 ErrMin= 7.15D-03
 ErrMax= 7.15D-03  0.00D+00 EMaxC= 1.00D+00 BMatC= 7.31D-03 BMatP= 2.04D-02
 IDIUse=1 WtCom= 1.00D+00 WtEn= 0.00D+00
 Coeff-Com: -0.106D+00-0.124D+01 0.228D+01-0.144D+01-0.141D+01 0.292D+01
 Coeff:     -0.106D+00-0.124D+01 0.228D+01-0.144D+01-0.141D+01 0.292D+01
 Gap=     0.163 Goal=   None    Shift=    0.500
 T=  942. Gap= 0.663 NK=0 IS=   19 IE=   57 IFin=   18
          NO(<0.9)=   0  NV(>0.1)=   0     18.00e < EF      0.00e >EF  Err=0.0D+00
 Gap=     0.163 Goal=   None    Shift=    0.500
 T=  942. Gap= 0.663 NK=0 IS=   19 IE=   57 IFin=   18
          NO(<0.9)=   0  NV(>0.1)=   0     18.00e < EF      0.00e >EF  Err=0.0D+00
 GapD=    0.163 DampG=1.000 DampE=1.000 DampFc=1.0000 IDamp=-1.
 RMSDP=1.33D-03 MaxDP=1.03D-02 DE=-1.68D-02 OVMax= 5.48D-03

 Cycle   7  Pass 1  IDiag  1:
 E= -193.548689632529     Delta-E=       -0.017006927403 Rises=F Damp=F
 DIIS: error= 2.08D-03 at cycle   7 NSaved=   7.
 NSaved= 7 IEnMin= 7 EnMin= -193.548689632529     IErMin= 7 ErrMin= 2.08D-03
 ErrMax= 2.08D-03  0.00D+00 EMaxC= 1.00D+00 BMatC= 3.58D-04 BMatP= 7.31D-03
 IDIUse=1 WtCom= 1.00D+00 WtEn= 0.00D+00
 Coeff-Com: -0.321D-01 0.114D+01-0.188D+01 0.120D+01 0.323D+01-0.633D+01
 Coeff-Com:  0.367D+01
 Coeff:     -0.321D-01 0.114D+01-0.188D+01 0.120D+01 0.323D+01-0.633D+01
 Coeff:      0.367D+01
 Gap=     0.169 Goal=   None    Shift=    0.500
 T=  601. Gap= 0.669 NK=0 IS=   19 IE=   57 IFin=   18
          NO(<0.9)=   0  NV(>0.1)=   0     18.00e < EF      0.00e >EF  Err=0.0D+00
 Gap=     0.169 Goal=   None    Shift=    0.500
 T=  601. Gap= 0.669 NK=0 IS=   19 IE=   57 IFin=   18
          NO(<0.9)=   0  NV(>0.1)=   0     18.00e < EF      0.00e >EF  Err=0.0D+00
 GapD=    0.169 DampG=1.000 DampE=1.000 DampFc=1.0000 IDamp=-1.
 RMSDP=1.67D-04 MaxDP=2.21D-03 DE=-1.70D-02 OVMax= 4.36D-03

 Cycle   8  Pass 1  IDiag  1:
 E= -193.548874739958     Delta-E=       -0.000185107430 Rises=F Damp=F
 DIIS: error= 1.36D-03 at cycle   8 NSaved=   8.
 NSaved= 8 IEnMin= 8 EnMin= -193.548874739958     IErMin= 8 ErrMin= 1.36D-03
 ErrMax= 1.36D-03  0.00D+00 EMaxC= 1.00D+00 BMatC= 1.20D-04 BMatP= 3.58D-04
 IDIUse=1 WtCom= 1.00D+00 WtEn= 0.00D+00
 Coeff-Com: -0.224D-01 0.538D+00-0.873D+00 0.405D+00 0.204D+01-0.341D+01
 Coeff-Com:  0.987D+00 0.134D+01
 Coeff:     -0.224D-01 0.538D+00-0.873D+00 0.405D+00 0.204D+01-0.341D+01
 Coeff:      0.987D+00 0.134D+01
 Gap=     0.170 Goal=   None    Shift=    0.500
 T=  212. Gap= 0.670 NK=0 IS=   19 IE=   57 IFin=   18
          NO(<0.9)=   0  NV(>0.1)=   0     18.00e < EF      0.00e >EF  Err=0.0D+00
 Gap=     0.170 Goal=   None    Shift=    0.500
 T=  212. Gap= 0.670 NK=0 IS=   19 IE=   57 IFin=   18
          NO(<0.9)=   0  NV(>0.1)=   0     18.00e < EF      0.00e >EF  Err=0.0D+00
 GapD=    0.170 DampG=1.000 DampE=1.000 DampFc=1.0000 IDamp=-1.
 RMSDP=8.89D-05 MaxDP=1.41D-03 DE=-1.85D-04 OVMax= 2.75D-03

 Cycle   9  Pass 1  IDiag  1:
 E= -193.548937555933     Delta-E=       -0.000062815975 Rises=F Damp=F
 DIIS: error= 9.01D-04 at cycle   9 NSaved=   9.
 NSaved= 9 IEnMin= 9 EnMin= -193.548937555933     IErMin= 9 ErrMin= 9.01D-04
 ErrMax= 9.01D-04  0.00D+00 EMaxC= 1.00D+00 BMatC= 4.39D-05 BMatP= 1.20D-04
 IDIUse=1 WtCom= 1.00D+00 WtEn= 0.00D+00
 Coeff-Com: -0.124D-01 0.173D+00-0.224D+00-0.744D-01 0.849D+00-0.108D+01
 Coeff-Com:  0.567D+00-0.144D+01 0.224D+01
 Coeff:     -0.124D-01 0.173D+00-0.224D+00-0.744D-01 0.849D+00-0.108D+01
 Coeff:      0.567D+00-0.144D+01 0.224D+01
 Gap=     0.170 Goal=   None    Shift=    0.500
 Gap=     0.170 Goal=   None    Shift=    0.500
 RMSDP=5.36D-05 MaxDP=9.16D-04 DE=-6.28D-05 OVMax= 1.92D-03

 Cycle  10  Pass 1  IDiag  1:
 E= -193.548961036965     Delta-E=       -0.000023481032 Rises=F Damp=F
 DIIS: error= 5.57D-04 at cycle  10 NSaved=  10.
 NSaved=10 IEnMin=10 EnMin= -193.548961036965     IErMin=10 ErrMin= 5.57D-04
 ErrMax= 5.57D-04  0.00D+00 EMaxC= 1.00D+00 BMatC= 1.65D-05 BMatP= 4.39D-05
 IDIUse=1 WtCom= 1.00D+00 WtEn= 0.00D+00
 Coeff-Com: -0.715D-02 0.567D-01-0.544D-01-0.486D-01 0.182D+00-0.187D+00
 Coeff-Com:  0.544D+00-0.176D+01 0.870D+00 0.141D+01
 Coeff:     -0.715D-02 0.567D-01-0.544D-01-0.486D-01 0.182D+00-0.187D+00
 Coeff:      0.544D+00-0.176D+01 0.870D+00 0.141D+01
 Gap=     0.171 Goal=   None    Shift=    0.500
 Gap=     0.171 Goal=   None    Shift=    0.500
 RMSDP=3.30D-05 MaxDP=5.41D-04 DE=-2.35D-05 OVMax= 1.17D-03

 Cycle  11  Pass 1  IDiag  1:
 E= -193.548969676053     Delta-E=       -0.000008639088 Rises=F Damp=F
 DIIS: error= 3.54D-04 at cycle  11 NSaved=  11.
 NSaved=11 IEnMin=11 EnMin= -193.548969676053     IErMin=11 ErrMin= 3.54D-04
 ErrMax= 3.54D-04  0.00D+00 EMaxC= 1.00D+00 BMatC= 5.92D-06 BMatP= 1.65D-05
 IDIUse=1 WtCom= 1.00D+00 WtEn= 0.00D+00
 Coeff-Com: -0.340D-02 0.120D-01-0.136D-01 0.641D-02 0.311D-01-0.510D-01
 Coeff-Com:  0.524D-01 0.225D+00-0.543D+00-0.141D+01 0.269D+01
 Coeff:     -0.340D-02 0.120D-01-0.136D-01 0.641D-02 0.311D-01-0.510D-01
 Coeff:      0.524D-01 0.225D+00-0.543D+00-0.141D+01 0.269D+01
 Gap=     0.171 Goal=   None    Shift=    0.500
 Gap=     0.171 Goal=   None    Shift=    0.500
 RMSDP=1.99D-05 MaxDP=3.37D-04 DE=-8.64D-06 OVMax= 7.46D-04

 Cycle  12  Pass 1  IDiag  1:
 E= -193.548972792168     Delta-E=       -0.000003116114 Rises=F Damp=F
 DIIS: error= 2.25D-04 at cycle  12 NSaved=  12.
 NSaved=12 IEnMin=12 EnMin= -193.548972792168     IErMin=12 ErrMin= 2.25D-04
 ErrMax= 2.25D-04  0.00D+00 EMaxC= 1.00D+00 BMatC= 2.20D-06 BMatP= 5.92D-06
 IDIUse=1 WtCom= 1.00D+00 WtEn= 0.00D+00
 Coeff-Com: -0.172D-02 0.568D-02-0.275D-02-0.164D-01 0.734D-01-0.934D-01
 Coeff-Com:  0.923D-01-0.113D+00-0.331D-01 0.826D+00-0.307D+01 0.334D+01
 Coeff:     -0.172D-02 0.568D-02-0.275D-02-0.164D-01 0.734D-01-0.934D-01
 Coeff:      0.923D-01-0.113D+00-0.331D-01 0.826D+00-0.307D+01 0.334D+01
 Gap=     0.171 Goal=   None    Shift=    0.500
 Gap=     0.171 Goal=   None    Shift=    0.500
 RMSDP=1.21D-05 MaxDP=2.14D-04 DE=-3.12D-06 OVMax= 4.93D-04

 Cycle  13  Pass 1  IDiag  1:
 E= -193.548973978197     Delta-E=       -0.000001186030 Rises=F Damp=F
 DIIS: error= 1.37D-04 at cycle  13 NSaved=  13.
 NSaved=13 IEnMin=13 EnMin= -193.548973978197     IErMin=13 ErrMin= 1.37D-04
 ErrMax= 1.37D-04  0.00D+00 EMaxC= 1.00D+00 BMatC= 7.85D-07 BMatP= 2.20D-06
 IDIUse=1 WtCom= 1.00D+00 WtEn= 0.00D+00
 Coeff-Com: -0.784D-03 0.883D-02-0.116D-01 0.433D-02 0.146D-02-0.167D-03
 Coeff-Com:  0.989D-02-0.321D-01 0.459D-01-0.366D+00 0.168D+01-0.417D+01
 Coeff-Com:  0.383D+01
 Coeff:     -0.784D-03 0.883D-02-0.116D-01 0.433D-02 0.146D-02-0.167D-03
 Coeff:      0.989D-02-0.321D-01 0.459D-01-0.366D+00 0.168D+01-0.417D+01
 Coeff:      0.383D+01
 Gap=     0.171 Goal=   None    Shift=    0.500
 Gap=     0.171 Goal=   None    Shift=    0.500
 RMSDP=7.24D-06 MaxDP=1.34D-04 DE=-1.19D-06 OVMax= 3.02D-04

 Cycle  14  Pass 1  IDiag  1:
 E= -193.548974401724     Delta-E=       -0.000000423527 Rises=F Damp=F
 DIIS: error= 8.40D-05 at cycle  14 NSaved=  14.
 NSaved=14 IEnMin=14 EnMin= -193.548974401724     IErMin=14 ErrMin= 8.40D-05
 ErrMax= 8.40D-05  0.00D+00 EMaxC= 1.00D+00 BMatC= 2.73D-07 BMatP= 7.85D-07
 IDIUse=1 WtCom= 1.00D+00 WtEn= 0.00D+00
 Coeff-Com: -0.185D-03-0.243D-05 0.105D-02-0.344D-02 0.338D-02 0.981D-03
 Coeff-Com:  0.536D-02 0.280D-01-0.111D+00-0.141D+00 0.789D+00-0.538D+00
 Coeff-Com: -0.214D+01 0.310D+01
 Coeff:     -0.185D-03-0.243D-05 0.105D-02-0.344D-02 0.338D-02 0.981D-03
 Coeff:      0.536D-02 0.280D-01-0.111D+00-0.141D+00 0.789D+00-0.538D+00
 Coeff:     -0.214D+01 0.310D+01
 Gap=     0.171 Goal=   None    Shift=    0.500
 Gap=     0.171 Goal=   None    Shift=    0.500
 RMSDP=4.34D-06 MaxDP=8.27D-05 DE=-4.24D-07 OVMax= 1.87D-04

 Cycle  15  Pass 1  IDiag  1:
 E= -193.548974553017     Delta-E=       -0.000000151294 Rises=F Damp=F
 DIIS: error= 5.03D-05 at cycle  15 NSaved=  15.
 NSaved=15 IEnMin=15 EnMin= -193.548974553017     IErMin=15 ErrMin= 5.03D-05
 ErrMax= 5.03D-05  0.00D+00 EMaxC= 1.00D+00 BMatC= 9.16D-08 BMatP= 2.73D-07
 IDIUse=1 WtCom= 1.00D+00 WtEn= 0.00D+00
 Coeff-Com: -0.347D-04 0.151D-02-0.225D-02 0.119D-02 0.639D-03-0.136D-02
 Coeff-Com:  0.861D-02-0.132D-01-0.220D-01 0.127D-01 0.166D+00-0.410D+00
 Coeff-Com:  0.109D+01-0.332D+01 0.349D+01
 Coeff:     -0.347D-04 0.151D-02-0.225D-02 0.119D-02 0.639D-03-0.136D-02
 Coeff:      0.861D-02-0.132D-01-0.220D-01 0.127D-01 0.166D+00-0.410D+00
 Coeff:      0.109D+01-0.332D+01 0.349D+01
 Gap=     0.171 Goal=   None    Shift=    0.500
 Gap=     0.171 Goal=   None    Shift=    0.500
 RMSDP=2.53D-06 MaxDP=5.00D-05 DE=-1.51D-07 OVMax= 1.13D-04

 Cycle  16  Pass 1  IDiag  1:
 E= -193.548974605040     Delta-E=       -0.000000052022 Rises=F Damp=F
 DIIS: error= 2.98D-05 at cycle  16 NSaved=  16.
 NSaved=16 IEnMin=16 EnMin= -193.548974605040     IErMin=16 ErrMin= 2.98D-05
 ErrMax= 2.98D-05  0.00D+00 EMaxC= 1.00D+00 BMatC= 3.04D-08 BMatP= 9.16D-08
 IDIUse=1 WtCom= 1.00D+00 WtEn= 0.00D+00
 Coeff-Com: -0.793D-05 0.445D-03-0.628D-03-0.810D-04 0.891D-03-0.347D-03
 Coeff-Com: -0.170D-02 0.147D-01-0.200D-01-0.656D-01 0.235D+00-0.293D+00
 Coeff-Com:  0.357D-01 0.795D+00-0.298D+01 0.328D+01
 Coeff:     -0.793D-05 0.445D-03-0.628D-03-0.810D-04 0.891D-03-0.347D-03
 Coeff:     -0.170D-02 0.147D-01-0.200D-01-0.656D-01 0.235D+00-0.293D+00
 Coeff:      0.357D-01 0.795D+00-0.298D+01 0.328D+01
 Gap=     0.171 Goal=   None    Shift=    0.500
 Gap=     0.171 Goal=   None    Shift=    0.500
 RMSDP=1.45D-06 MaxDP=2.96D-05 DE=-5.20D-08 OVMax= 6.66D-05

 Cycle  17  Pass 1  IDiag  1:
 E= -193.548974622509     Delta-E=       -0.000000017469 Rises=F Damp=F
 DIIS: error= 1.76D-05 at cycle  17 NSaved=  17.
 NSaved=17 IEnMin=17 EnMin= -193.548974622509     IErMin=17 ErrMin= 1.76D-05
 ErrMax= 1.76D-05  0.00D+00 EMaxC= 1.00D+00 BMatC= 1.02D-08 BMatP= 3.04D-08
 IDIUse=1 WtCom= 1.00D+00 WtEn= 0.00D+00
 Coeff-Com:  0.135D-04-0.403D-03 0.674D-03-0.483D-03-0.610D-03 0.132D-02
 Coeff-Com: -0.481D-03 0.277D-02-0.106D-01 0.717D-02 0.138D-01 0.399D-01
 Coeff-Com: -0.233D+00 0.204D+00 0.119D+01-0.439D+01 0.418D+01
 Coeff:      0.135D-04-0.403D-03 0.674D-03-0.483D-03-0.610D-03 0.132D-02
 Coeff:     -0.481D-03 0.277D-02-0.106D-01 0.717D-02 0.138D-01 0.399D-01
 Coeff:     -0.233D+00 0.204D+00 0.119D+01-0.439D+01 0.418D+01
 Gap=     0.171 Goal=   None    Shift=    0.500
 Gap=     0.171 Goal=   None    Shift=    0.500
 RMSDP=8.42D-07 MaxDP=1.76D-05 DE=-1.75D-08 OVMax= 3.97D-05

 SCF Done:  E(ULC-wHPBE) =  -193.548974623     A.U. after   17 cycles
            NFock= 17  Conv=0.84D-06     -V/T= 2.0086
 <Sx>= 0.0000 <Sy>= 0.0000 <Sz>= 0.0000 <S**2>=-0.0000 S=-0.0000
 <L.S>= 0.000000000000E+00
 KE= 1.918937330315D+02 PE=-7.384306615638D+02 EE= 2.079660541167D+02
 Annihilation of the first spin contaminant:
 S**2 before annihilation    -0.0000,   after     0.0000
 Leave Link  502 at Tue Feb 25 12:20:44 2020, MaxMem=  6710886400 cpu:              26.8 elap:               1.7
 (Enter /opt/ohpc/pub/libs/gaussian/g16-A.03/haswell/g16/l508.exe)
 QCSCF skips out because SCF is already converged.
 Leave Link  508 at Tue Feb 25 12:20:44 2020, MaxMem=  6710886400 cpu:               0.0 elap:               0.0
 (Enter /opt/ohpc/pub/libs/gaussian/g16-A.03/haswell/g16/l601.exe)
 Copying SCF densities to generalized density rwf, IOpCl= 1 IROHF=0.

 **********************************************************************

            Population analysis using the SCF density.

 **********************************************************************

 Orbital symmetries:
 Alpha Orbitals:
       Occupied  (B2) (A1) (B2) (A1) (A1) (A1) (B2) (A1) (B2) (A1)
                 (A1) (B2) (B2) (A1) (B1) (A1) (A2) (B1)
       Virtual   (A1) (B2) (A2) (A1) (B1) (B2) (A1) (B2) (A1) (A1)
                 (B2) (A1) (B2) (B2) (B1) (A2) (B1) (A1) (A1) (B2)
                 (A1) (A2) (A1) (B1) (B2) (A1) (B2) (A1) (B2) (A1)
                 (A1) (A1) (B2) (A1) (B2) (B2) (A1) (A1) (B2)
 Beta  Orbitals:
       Occupied  (B2) (A1) (B2) (A1) (A1) (A1) (B2) (A1) (B2) (A1)
                 (A1) (B2) (B2) (A1) (B1) (A1) (A2) (B1)
       Virtual   (A1) (B2) (A2) (A1) (B1) (B2) (A1) (B2) (A1) (A1)
                 (B2) (A1) (B2) (B2) (B1) (A2) (B1) (A1) (A1) (B2)
                 (A1) (A2) (A1) (B1) (B2) (A1) (B2) (A1) (B2) (A1)
                 (A1) (A1) (B2) (A1) (B2) (B2) (A1) (A1) (B2)
 The electronic state is 1-A1.
 Alpha  occ. eigenvalues --  -10.10501 -10.10499 -10.05901 -10.05900 -10.00545
 Alpha  occ. eigenvalues --   -0.89851  -0.82154  -0.74380  -0.65476  -0.59858
 Alpha  occ. eigenvalues --   -0.58120  -0.51297  -0.46792  -0.43906  -0.42605
 Alpha  occ. eigenvalues --   -0.41686  -0.33474  -0.23664
 Alpha virt. eigenvalues --   -0.06557  -0.02285   0.08441   0.18581   0.19392
 Alpha virt. eigenvalues --    0.22371   0.26221   0.27150   0.28753   0.39585
 Alpha virt. eigenvalues --    0.40797   0.48756   0.49935   0.60928   0.61091
 Alpha virt. eigenvalues --    0.69803   0.70045   0.70888   0.71777   0.73549
 Alpha virt. eigenvalues --    0.74184   0.75693   0.78832   0.79299   0.80279
 Alpha virt. eigenvalues --    0.87233   0.92655   0.94719   0.97234   0.99175
 Alpha virt. eigenvalues --    1.03868   1.06430   1.08769   1.14732   1.21049
 Alpha virt. eigenvalues --    1.26439   1.30487   1.54176   1.54864
  Beta  occ. eigenvalues --  -10.10501 -10.10499 -10.05901 -10.05900 -10.00545
  Beta  occ. eigenvalues --   -0.89851  -0.82154  -0.74380  -0.65476  -0.59858
  Beta  occ. eigenvalues --   -0.58120  -0.51297  -0.46792  -0.43906  -0.42605
  Beta  occ. eigenvalues --   -0.41686  -0.33474  -0.23664
  Beta virt. eigenvalues --   -0.06557  -0.02285   0.08441   0.18581   0.19392
  Beta virt. eigenvalues --    0.22371   0.26221   0.27150   0.28753   0.39585
  Beta virt. eigenvalues --    0.40797   0.48756   0.49935   0.60928   0.61091
  Beta virt. eigenvalues --    0.69803   0.70045   0.70888   0.71777   0.73549
  Beta virt. eigenvalues --    0.74184   0.75693   0.78832   0.79299   0.80279
  Beta virt. eigenvalues --    0.87233   0.92655   0.94719   0.97234   0.99175
  Beta virt. eigenvalues --    1.03868   1.06430   1.08769   1.14732   1.21049
  Beta virt. eigenvalues --    1.26439   1.30487   1.54176   1.54864
          Condensed to atoms (all electrons):
               1          2          3          4          5          6
     1  C    5.286180   0.513626  -0.077306  -0.042487   0.148163   0.116122
     2  C    0.513626   4.900730   0.548904  -0.050709  -0.042487  -0.002599
     3  C   -0.077306   0.548904   4.872181   0.548904  -0.077306  -0.000510
     4  C   -0.042487  -0.050709   0.548904   4.900730   0.513626  -0.002599
     5  C    0.148163  -0.042487  -0.077306   0.513626   5.286180   0.116122
     6  H    0.116122  -0.002599  -0.000510  -0.002599   0.116122   0.660315
     7  H    0.352444  -0.036785   0.003035   0.000939  -0.003893  -0.008457
     8  H   -0.035765   0.356798  -0.013803   0.004597   0.000522   0.000205
     9  H    0.005889  -0.040799   0.370551  -0.040799   0.005889  -0.000004
    10  H    0.000522   0.004597  -0.013803   0.356798  -0.035765   0.000205
    11  H   -0.003893   0.000939   0.003035  -0.036785   0.352444  -0.008457
               7          8          9         10         11
     1  C    0.352444  -0.035765   0.005889   0.000522  -0.003893
     2  C   -0.036785   0.356798  -0.040799   0.004597   0.000939
     3  C    0.003035  -0.013803   0.370551  -0.013803   0.003035
     4  C    0.000939   0.004597  -0.040799   0.356798  -0.036785
     5  C   -0.003893   0.000522   0.005889  -0.035765   0.352444
     6  H   -0.008457   0.000205  -0.000004   0.000205  -0.008457
     7  H    0.514069   0.000974  -0.000160  -0.000012   0.000039
     8  H    0.000974   0.494842  -0.004451  -0.000104  -0.000012
     9  H   -0.000160  -0.004451   0.590857  -0.004451  -0.000160
    10  H   -0.000012  -0.000104  -0.004451   0.494842   0.000974
    11  H    0.000039  -0.000012  -0.000160   0.000974   0.514069
          Atomic-Atomic Spin Densities.
               1          2          3          4          5          6
     1  C    0.000000   0.000000   0.000000   0.000000   0.000000   0.000000
     2  C    0.000000   0.000000   0.000000   0.000000   0.000000   0.000000
     3  C    0.000000   0.000000   0.000000   0.000000   0.000000   0.000000
     4  C    0.000000   0.000000   0.000000   0.000000   0.000000   0.000000
     5  C    0.000000   0.000000   0.000000   0.000000   0.000000   0.000000
     6  H    0.000000   0.000000   0.000000   0.000000   0.000000   0.000000
     7  H    0.000000   0.000000   0.000000   0.000000   0.000000   0.000000
     8  H    0.000000   0.000000   0.000000   0.000000   0.000000   0.000000
     9  H    0.000000   0.000000   0.000000   0.000000   0.000000   0.000000
    10  H    0.000000   0.000000   0.000000   0.000000   0.000000   0.000000
    11  H    0.000000   0.000000   0.000000   0.000000   0.000000   0.000000
               7          8          9         10         11
     1  C    0.000000   0.000000   0.000000   0.000000   0.000000
     2  C    0.000000   0.000000   0.000000   0.000000   0.000000
     3  C    0.000000   0.000000   0.000000   0.000000   0.000000
     4  C    0.000000   0.000000   0.000000   0.000000   0.000000
     5  C    0.000000   0.000000   0.000000   0.000000   0.000000
     6  H    0.000000   0.000000   0.000000   0.000000   0.000000
     7  H    0.000000   0.000000   0.000000   0.000000   0.000000
     8  H    0.000000   0.000000   0.000000   0.000000   0.000000
     9  H    0.000000   0.000000   0.000000   0.000000   0.000000
    10  H    0.000000   0.000000   0.000000   0.000000   0.000000
    11  H    0.000000   0.000000   0.000000   0.000000   0.000000
 Mulliken charges and spin densities:
               1          2
     1  C   -0.263496   0.000000
     2  C   -0.152214   0.000000
     3  C   -0.163881   0.000000
     4  C   -0.152214   0.000000
     5  C   -0.263496   0.000000
     6  H    0.129657   0.000000
     7  H    0.177806   0.000000
     8  H    0.196196   0.000000
     9  H    0.117639   0.000000
    10  H    0.196196   0.000000
    11  H    0.177806   0.000000
 Sum of Mulliken charges =  -0.00000   0.00000
 Mulliken charges and spin densities with hydrogens summed into heavy atoms:
               1          2
     1  C    0.043967   0.000000
     2  C    0.043982   0.000000
     3  C   -0.046242   0.000000
     4  C    0.043982   0.000000
     5  C   -0.085690   0.000000
 Electronic spatial extent (au):  <R**2>=            395.7080
 Charge=             -0.0000 electrons
 Dipole moment (field-independent basis, Debye):
    X=             -0.0000    Y=             -0.0000    Z=             -1.2278  Tot=              1.2278
 Quadrupole moment (field-independent basis, Debye-Ang):
   XX=            -36.6371   YY=            -23.4436   ZZ=            -24.1740
   XY=              0.0000   XZ=             -0.0000   YZ=             -0.0000
 Traceless Quadrupole moment (field-independent basis, Debye-Ang):
   XX=             -8.5522   YY=              4.6413   ZZ=              3.9109
   XY=              0.0000   XZ=             -0.0000   YZ=             -0.0000
 Octapole moment (field-independent basis, Debye-Ang**2):
  XXX=              0.0000  YYY=              0.0000  ZZZ=            -11.6200  XYY=              0.0000
  XXY=             -0.0000  XXZ=              2.6357  XZZ=              0.0000  YZZ=              0.0000
  YYZ=              1.5771  XYZ=             -0.0000
 Hexadecapole moment (field-independent basis, Debye-Ang**3):
 XXXX=            -39.9391 YYYY=           -235.7029 ZZZZ=           -178.8594 XXXY=             -0.0000
 XXXZ=             -0.0000 YYYX=             -0.0000 YYYZ=              0.0000 ZZZX=             -0.0000
 ZZZY=              0.0000 XXYY=            -62.0751 XXZZ=            -52.7427 YYZZ=            -71.9708
 XXYZ=              0.0000 YYXZ=             -0.0000 ZZXY=             -0.0000
 N-N= 1.450218997931D+02 E-N=-7.384303687407D+02  KE= 1.918937330315D+02
 Symmetry A1   KE= 1.102402115164D+02
 Symmetry A2   KE= 2.317820196537D+00
 Symmetry B1   KE= 4.314301784304D+00
 Symmetry B2   KE= 7.502139953422D+01
 Symmetry A1   SP= 0.000000000000D+00
 Symmetry A2   SP= 0.000000000000D+00
 Symmetry B1   SP= 0.000000000000D+00
 Symmetry B2   SP= 0.000000000000D+00
                          Isotropic Fermi Contact Couplings
        Atom                 a.u.       MegaHertz       Gauss      10(-4) cm-1
     1  C(13)              0.00000       0.00000       0.00000       0.00000
     2  C(13)              0.00000       0.00000       0.00000       0.00000
     3  C(13)              0.00000       0.00000       0.00000       0.00000
     4  C(13)              0.00000       0.00000       0.00000       0.00000
     5  C(13)              0.00000       0.00000       0.00000       0.00000
     6  H(1)               0.00000       0.00000       0.00000       0.00000
     7  H(1)               0.00000       0.00000       0.00000       0.00000
     8  H(1)               0.00000       0.00000       0.00000       0.00000
     9  H(1)               0.00000       0.00000       0.00000       0.00000
    10  H(1)               0.00000       0.00000       0.00000       0.00000
    11  H(1)               0.00000       0.00000       0.00000       0.00000
 --------------------------------------------------------
       Center         ----  Spin Dipole Couplings  ----
                      3XX-RR        3YY-RR        3ZZ-RR
 --------------------------------------------------------
     1   Atom        0.000000      0.000000      0.000000
     2   Atom        0.000000      0.000000      0.000000
     3   Atom        0.000000      0.000000      0.000000
     4   Atom        0.000000      0.000000      0.000000
     5   Atom        0.000000      0.000000      0.000000
     6   Atom        0.000000      0.000000      0.000000
     7   Atom        0.000000      0.000000      0.000000
     8   Atom        0.000000      0.000000      0.000000
     9   Atom        0.000000      0.000000      0.000000
    10   Atom        0.000000      0.000000      0.000000
    11   Atom        0.000000      0.000000      0.000000
 --------------------------------------------------------
                        XY            XZ            YZ
 --------------------------------------------------------
     1   Atom        0.000000      0.000000      0.000000
     2   Atom        0.000000      0.000000      0.000000
     3   Atom        0.000000      0.000000      0.000000
     4   Atom        0.000000      0.000000      0.000000
     5   Atom        0.000000      0.000000      0.000000
     6   Atom        0.000000      0.000000      0.000000
     7   Atom        0.000000      0.000000      0.000000
     8   Atom        0.000000      0.000000      0.000000
     9   Atom        0.000000      0.000000      0.000000
    10   Atom        0.000000      0.000000      0.000000
    11   Atom        0.000000      0.000000      0.000000
 --------------------------------------------------------


 ---------------------------------------------------------------------------------
              Anisotropic Spin Dipole Couplings in Principal Axis System
 ---------------------------------------------------------------------------------

       Atom             a.u.   MegaHertz   Gauss  10(-4) cm-1        Axes

              Baa     0.0000     0.000     0.000     0.000  1.0000  0.0000  0.0000
     1 C(13)  Bbb     0.0000     0.000     0.000     0.000 -0.0000  1.0000  0.0000
              Bcc     0.0000     0.000     0.000     0.000  0.0000  0.0000  1.0000
 
              Baa     0.0000     0.000     0.000     0.000  1.0000  0.0000  0.0000
     2 C(13)  Bbb     0.0000     0.000     0.000     0.000 -0.0000  1.0000  0.0000
              Bcc     0.0000     0.000     0.000     0.000  0.0000  0.0000  1.0000
 
              Baa     0.0000     0.000     0.000     0.000  1.0000  0.0000  0.0000
     3 C(13)  Bbb     0.0000     0.000     0.000     0.000 -0.0000  1.0000  0.0000
              Bcc     0.0000     0.000     0.000     0.000  0.0000  0.0000  1.0000
 
              Baa     0.0000     0.000     0.000     0.000  1.0000  0.0000  0.0000
     4 C(13)  Bbb     0.0000     0.000     0.000     0.000 -0.0000  1.0000  0.0000
              Bcc     0.0000     0.000     0.000     0.000  0.0000  0.0000  1.0000
 
              Baa     0.0000     0.000     0.000     0.000  1.0000  0.0000  0.0000
     5 C(13)  Bbb     0.0000     0.000     0.000     0.000 -0.0000  1.0000  0.0000
              Bcc     0.0000     0.000     0.000     0.000  0.0000  0.0000  1.0000
 
              Baa     0.0000     0.000     0.000     0.000  1.0000  0.0000  0.0000
     6 H(1)   Bbb     0.0000     0.000     0.000     0.000 -0.0000  1.0000  0.0000
              Bcc     0.0000     0.000     0.000     0.000  0.0000  0.0000  1.0000
 
              Baa     0.0000     0.000     0.000     0.000  1.0000  0.0000  0.0000
     7 H(1)   Bbb     0.0000     0.000     0.000     0.000 -0.0000  1.0000  0.0000
              Bcc     0.0000     0.000     0.000     0.000  0.0000  0.0000  1.0000
 
              Baa     0.0000     0.000     0.000     0.000  1.0000  0.0000  0.0000
     8 H(1)   Bbb     0.0000     0.000     0.000     0.000 -0.0000  1.0000  0.0000
              Bcc     0.0000     0.000     0.000     0.000  0.0000  0.0000  1.0000
 
              Baa     0.0000     0.000     0.000     0.000  1.0000  0.0000  0.0000
     9 H(1)   Bbb     0.0000     0.000     0.000     0.000 -0.0000  1.0000  0.0000
              Bcc     0.0000     0.000     0.000     0.000  0.0000  0.0000  1.0000
 
              Baa     0.0000     0.000     0.000     0.000  1.0000  0.0000  0.0000
    10 H(1)   Bbb     0.0000     0.000     0.000     0.000 -0.0000  1.0000  0.0000
              Bcc     0.0000     0.000     0.000     0.000  0.0000  0.0000  1.0000
 
              Baa     0.0000     0.000     0.000     0.000  1.0000  0.0000  0.0000
    11 H(1)   Bbb     0.0000     0.000     0.000     0.000 -0.0000  1.0000  0.0000
              Bcc     0.0000     0.000     0.000     0.000  0.0000  0.0000  1.0000
 

 ---------------------------------------------------------------------------------

 No NMR shielding tensors so no spin-rotation constants.
 Leave Link  601 at Tue Feb 25 12:20:44 2020, MaxMem=  6710886400 cpu:               3.5 elap:               0.3
 (Enter /opt/ohpc/pub/libs/gaussian/g16-A.03/haswell/g16/l9999.exe)

 Test job not archived.
 1\1\GINC-HASWELL008\SP\ULC-wHPBE\6-31G\C5H6\SMGO234\25-Feb-2020\0\\#P 
 uLC-wHPBE/6-31G iop(3/107=0272800000, 3/108=0272800000) scf=(conver=6,
 fermi,ndamp=35,noincfock,novaracc,vshift=500,xqc)\\H6 C5\\0,1\C,0,-1.2
 06512,0.69658,0.\C,0,-1.206512,-0.69658,0.\C,0,0.,-1.39316,0.\C,0,1.20
 6512,-0.69658,0.\C,0,1.206512,0.69658,0.\H,0,0.,2.482681,0.\H,0,-2.150
 065,1.24134,0.\H,0,-2.150065,-1.24134,0.\H,0,0.,-2.482681,0.\H,0,2.150
 065,-1.24134,0.\H,0,2.150065,1.24134,0.\\Version=ES64L-G16RevA.03\Stat
 e=1-A1\HF=-193.5489746\S2=0.\S2-1=0.\S2A=0.\RMSD=8.419e-07\Dipole=0.,0
 .4830351,0.\Quadrupole=3.4507045,2.9076733,-6.3583778,0.,0.,0.\PG=C02V
  [C2(H1C1H1),SGV(C4H4)]\\@


 FLOATING POINT NUMBERS ARE LIKE SANDPILES:
 EVERY TIME THAT YOU MOVE ONE, YOU LOSE A LITTLE SAND 
 AND YOU PICK UP A LITTLE DIRT.
 Job cpu time:       0 days  0 hours  0 minutes 52.1 seconds.
 Elapsed time:       0 days  0 hours  0 minutes  3.5 seconds.
 File lengths (MBytes):  RWF=    272 Int=      0 D2E=      0 Chk=     32 Scr=     32
 Normal termination of Gaussian 16 at Tue Feb 25 12:20:44 2020.
