 Entering Gaussian System, Link 0=g16
 Input=1b_tune_c8.gjf
 Output=1b_tune_c8.log
 Initial command:
 /opt/ohpc/pub/libs/gaussian/g16-A.03/haswell/g16/l1.exe "/scratch/smgo234/Ocelot/test/1b/tuning_1b_ocycle0/Gau-35436.inp" -scrdir="/scratch/smgo234/Ocelot/test/1b/tuning_1b_ocycle0/"
 Entering Link 1 = /opt/ohpc/pub/libs/gaussian/g16-A.03/haswell/g16/l1.exe PID=     35437.
  
 Copyright (c) 1988,1990,1992,1993,1995,1998,2003,2009,2016,
            Gaussian, Inc.  All Rights Reserved.
  
 This is part of the Gaussian(R) 16 program.  It is based on
 the Gaussian(R) 09 system (copyright 2009, Gaussian, Inc.),
 the Gaussian(R) 03 system (copyright 2003, Gaussian, Inc.),
 the Gaussian(R) 98 system (copyright 1998, Gaussian, Inc.),
 the Gaussian(R) 94 system (copyright 1995, Gaussian, Inc.),
 the Gaussian 92(TM) system (copyright 1992, Gaussian, Inc.),
 the Gaussian 90(TM) system (copyright 1990, Gaussian, Inc.),
 the Gaussian 88(TM) system (copyright 1988, Gaussian, Inc.),
 the Gaussian 86(TM) system (copyright 1986, Carnegie Mellon
 University), and the Gaussian 82(TM) system (copyright 1983,
 Carnegie Mellon University). Gaussian is a federally registered
 trademark of Gaussian, Inc.
  
 This software contains proprietary and confidential information,
 including trade secrets, belonging to Gaussian, Inc.
  
 This software is provided under written license and may be
 used, copied, transmitted, or stored only in accord with that
 written license.
  
 The following legend is applicable only to US Government
 contracts under FAR:
  
                    RESTRICTED RIGHTS LEGEND
  
 Use, reproduction and disclosure by the US Government is
 subject to restrictions as set forth in subparagraphs (a)
 and (c) of the Commercial Computer Software - Restricted
 Rights clause in FAR 52.227-19.
  
 Gaussian, Inc.
 340 Quinnipiac St., Bldg. 40, Wallingford CT 06492
  
  
 ---------------------------------------------------------------
 Warning -- This program may not be used in any manner that
 competes with the business of Gaussian, Inc. or will provide
 assistance to any competitor of Gaussian, Inc.  The licensee
 of this program is prohibited from giving any competitor of
 Gaussian, Inc. access to this program.  By using this program,
 the user acknowledges that Gaussian, Inc. is engaged in the
 business of creating and licensing software in the field of
 computational chemistry and represents and warrants to the
 licensee that it is not a competitor of Gaussian, Inc. and that
 it will not use this program in any manner prohibited above.
 ---------------------------------------------------------------
  

 Cite this work as:
 Gaussian 16, Revision A.03,
 M. J. Frisch, G. W. Trucks, H. B. Schlegel, G. E. Scuseria, 
 M. A. Robb, J. R. Cheeseman, G. Scalmani, V. Barone, 
 G. A. Petersson, H. Nakatsuji, X. Li, M. Caricato, A. V. Marenich, 
 J. Bloino, B. G. Janesko, R. Gomperts, B. Mennucci, H. P. Hratchian, 
 J. V. Ortiz, A. F. Izmaylov, J. L. Sonnenberg, D. Williams-Young, 
 F. Ding, F. Lipparini, F. Egidi, J. Goings, B. Peng, A. Petrone, 
 T. Henderson, D. Ranasinghe, V. G. Zakrzewski, J. Gao, N. Rega, 
 G. Zheng, W. Liang, M. Hada, M. Ehara, K. Toyota, R. Fukuda, 
 J. Hasegawa, M. Ishida, T. Nakajima, Y. Honda, O. Kitao, H. Nakai, 
 T. Vreven, K. Throssell, J. A. Montgomery, Jr., J. E. Peralta, 
 F. Ogliaro, M. J. Bearpark, J. J. Heyd, E. N. Brothers, K. N. Kudin, 
 V. N. Staroverov, T. A. Keith, R. Kobayashi, J. Normand, 
 K. Raghavachari, A. P. Rendell, J. C. Burant, S. S. Iyengar, 
 J. Tomasi, M. Cossi, J. M. Millam, M. Klene, C. Adamo, R. Cammi, 
 J. W. Ochterski, R. L. Martin, K. Morokuma, O. Farkas, 
 J. B. Foresman, and D. J. Fox, Gaussian, Inc., Wallingford CT, 2016.
 
 ******************************************
 Gaussian 16:  ES64L-G16RevA.03 25-Dec-2016
                25-Feb-2020 
 ******************************************
 %mem=50GB
 %nproc=16
 Will use up to   16 processors via shared memory.
 ----------------------------------------------------------------------
 #P uLC-wHPBE/6-31G iop(3/107=0272500000, 3/108=0272500000) scf=(conver
 =6,fermi,ndamp=35,noincfock,novaracc,vshift=500,xqc)
 ----------------------------------------------------------------------
 1/38=1,172=1/1;
 2/12=2,17=6,18=5,40=1/2;
 3/5=1,6=6,11=2,25=1,30=1,74=-71,107=272500000,108=272500000,116=2/1,2,3;
 4//1;
 5/5=100002,6=6,8=3,10=500,13=1,18=-1,22=13,38=1,93=35/2,8;
 6/7=2,8=2,9=2,10=2,28=1/1;
 99/5=1,9=1/99;
 Leave Link    1 at Tue Feb 25 12:20:28 2020, MaxMem=  6710886400 cpu:              10.4 elap:               0.7
 (Enter /opt/ohpc/pub/libs/gaussian/g16-A.03/haswell/g16/l101.exe)
 -----
 H6 C5
 -----
 Symbolic Z-matrix:
 Charge =  1 Multiplicity = 2
 C                    -1.20651   0.69658   0. 
 C                    -1.20651  -0.69658   0. 
 C                     0.       -1.39316   0. 
 C                     1.20651  -0.69658   0. 
 C                     1.20651   0.69658   0. 
 H                     0.        2.48268   0. 
 H                    -2.15007   1.24134   0. 
 H                    -2.15007  -1.24134   0. 
 H                     0.       -2.48268   0. 
 H                     2.15007  -1.24134   0. 
 H                     2.15007   1.24134   0. 
 
 ITRead=  0  0  0  0  0  0  0  0  0  0  0
 MicOpt= -1 -1 -1 -1 -1 -1 -1 -1 -1 -1 -1
 NAtoms=     11 NQM=       11 NQMF=       0 NMMI=      0 NMMIF=      0
                NMic=       0 NMicF=      0.
                    Isotopes and Nuclear Properties:
 (Nuclear quadrupole moments (NQMom) in fm**2, nuclear magnetic moments (NMagM)
  in nuclear magnetons)

  Atom         1           2           3           4           5           6           7           8           9          10
 IAtWgt=          12          12          12          12          12           1           1           1           1           1
 AtmWgt=  12.0000000  12.0000000  12.0000000  12.0000000  12.0000000   1.0078250   1.0078250   1.0078250   1.0078250   1.0078250
 NucSpn=           0           0           0           0           0           1           1           1           1           1
 AtZEff=  -0.0000000  -0.0000000  -0.0000000  -0.0000000  -0.0000000  -0.0000000  -0.0000000  -0.0000000  -0.0000000  -0.0000000
 NQMom=    0.0000000   0.0000000   0.0000000   0.0000000   0.0000000   0.0000000   0.0000000   0.0000000   0.0000000   0.0000000
 NMagM=    0.0000000   0.0000000   0.0000000   0.0000000   0.0000000   2.7928460   2.7928460   2.7928460   2.7928460   2.7928460
 AtZNuc=   6.0000000   6.0000000   6.0000000   6.0000000   6.0000000   1.0000000   1.0000000   1.0000000   1.0000000   1.0000000

  Atom        11
 IAtWgt=           1
 AtmWgt=   1.0078250
 NucSpn=           1
 AtZEff=  -0.0000000
 NQMom=    0.0000000
 NMagM=    2.7928460
 AtZNuc=   1.0000000
 Leave Link  101 at Tue Feb 25 12:20:29 2020, MaxMem=  6710886400 cpu:               2.3 elap:               0.2
 (Enter /opt/ohpc/pub/libs/gaussian/g16-A.03/haswell/g16/l202.exe)
                          Input orientation:                          
 ---------------------------------------------------------------------
 Center     Atomic      Atomic             Coordinates (Angstroms)
 Number     Number       Type             X           Y           Z
 ---------------------------------------------------------------------
      1          6           0       -1.206512    0.696580    0.000000
      2          6           0       -1.206512   -0.696580    0.000000
      3          6           0        0.000000   -1.393160    0.000000
      4          6           0        1.206512   -0.696580    0.000000
      5          6           0        1.206512    0.696580    0.000000
      6          1           0        0.000000    2.482681    0.000000
      7          1           0       -2.150065    1.241340    0.000000
      8          1           0       -2.150065   -1.241340    0.000000
      9          1           0        0.000000   -2.482681    0.000000
     10          1           0        2.150065   -1.241340    0.000000
     11          1           0        2.150065    1.241340    0.000000
 ---------------------------------------------------------------------
                    Distance matrix (angstroms):
                    1          2          3          4          5
     1  C    0.000000
     2  C    1.393160   0.000000
     3  C    2.413024   1.393160   0.000000
     4  C    2.786320   2.413024   1.393160   0.000000
     5  C    2.413024   2.786320   2.413024   1.393160   0.000000
     6  H    2.155418   3.400496   3.875841   3.400496   2.155418
     7  H    1.089521   2.155418   3.400496   3.875841   3.400496
     8  H    2.155418   1.089521   2.155418   3.400496   3.875841
     9  H    3.400496   2.155418   1.089521   2.155418   3.400496
    10  H    3.875841   3.400496   2.155418   1.089521   2.155418
    11  H    3.400496   3.875841   3.400496   2.155418   1.089521
                    6          7          8          9         10
     6  H    0.000000
     7  H    2.482681   0.000000
     8  H    4.300129   2.482680   0.000000
     9  H    4.965362   4.300129   2.482681   0.000000
    10  H    4.300129   4.965362   4.300130   2.482681   0.000000
    11  H    2.482681   4.300130   4.965362   4.300129   2.482680
                   11
    11  H    0.000000
 Stoichiometry    C5H6(1+,2)
 Framework group  C2V[C2(HCH),SGV(C4H4)]
 Deg. of freedom    10
 Full point group                 C2V     NOp   4
 Largest Abelian subgroup         C2V     NOp   4
 Largest concise Abelian subgroup C2      NOp   2
                         Standard orientation:                         
 ---------------------------------------------------------------------
 Center     Atomic      Atomic             Coordinates (Angstroms)
 Number     Number       Type             X           Y           Z
 ---------------------------------------------------------------------
      1          6           0       -0.000000    1.206512   -0.928773
      2          6           0       -0.000000    1.206512    0.464387
      3          6           0        0.000000    0.000000    1.160967
      4          6           0       -0.000000   -1.206512    0.464387
      5          6           0       -0.000000   -1.206512   -0.928773
      6          1           0       -0.000000   -0.000000   -2.714874
      7          1           0       -0.000000    2.150065   -1.473533
      8          1           0       -0.000000    2.150065    1.009147
      9          1           0        0.000000    0.000000    2.250488
     10          1           0       -0.000000   -2.150065    1.009147
     11          1           0       -0.000000   -2.150065   -1.473533
 ---------------------------------------------------------------------
 Rotational constants (GHZ):           8.2868568           5.7099792           3.3806054
 Leave Link  202 at Tue Feb 25 12:20:29 2020, MaxMem=  6710886400 cpu:               0.2 elap:               0.0
 (Enter /opt/ohpc/pub/libs/gaussian/g16-A.03/haswell/g16/l301.exe)
 Standard basis: 6-31G (6D, 7F)
 Ernie: Thresh=  0.10000D-02 Tol=  0.10000D-05 Strict=F.
 There are    27 symmetry adapted cartesian basis functions of A1  symmetry.
 There are     4 symmetry adapted cartesian basis functions of A2  symmetry.
 There are     6 symmetry adapted cartesian basis functions of B1  symmetry.
 There are    20 symmetry adapted cartesian basis functions of B2  symmetry.
 There are    27 symmetry adapted basis functions of A1  symmetry.
 There are     4 symmetry adapted basis functions of A2  symmetry.
 There are     6 symmetry adapted basis functions of B1  symmetry.
 There are    20 symmetry adapted basis functions of B2  symmetry.
    57 basis functions,   134 primitive gaussians,    57 cartesian basis functions
    18 alpha electrons       17 beta electrons
       nuclear repulsion energy       145.0218997931 Hartrees.
 IExCor=33909 DFT=T Ex+Corr=LC-wHPBE ExCW=0 ScaHFX=  1.000000
 ScaDFX=  1.000000  1.000000  1.000000  1.000000 ScalE2=  1.000000  1.000000
 IRadAn=      5 IRanWt=     -1 IRanGd=            0 ICorTp=0 IEmpDi=  4
 HFx  wShort=  0.000000 wLong=  0.272500 cFull=  0.000000 cShort=  0.000000 cLong=  1.000000
 DFx  wShort=  0.000000 wLong=  0.272500 cFull=  0.000000 cShort=  1.000000 cLong=  0.000000
 NAtoms=   11 NActive=   11 NUniq=    7 SFac= 2.47D+00 NAtFMM=   60 NAOKFM=F Big=F
 Integral buffers will be    131072 words long.
 Raffenetti 2 integral format.
 Two-electron integral symmetry is turned on.
 Leave Link  301 at Tue Feb 25 12:20:29 2020, MaxMem=  6710886400 cpu:               0.8 elap:               0.1
 (Enter /opt/ohpc/pub/libs/gaussian/g16-A.03/haswell/g16/l302.exe)
 NPDir=0 NMtPBC=     1 NCelOv=     1 NCel=       1 NClECP=     1 NCelD=      1
         NCelK=      1 NCelE2=     1 NClLst=     1 CellRange=     0.0.
 One-electron integrals computed using PRISM.
 One-electron integral symmetry used in STVInt
 NBasis=    57 RedAO= T EigKep=  2.88D-03  NBF=    27     4     6    20
 NBsUse=    57 1.00D-06 EigRej= -1.00D+00 NBFU=    27     4     6    20
 Precomputing XC quadrature grid using
 IXCGrd= 4 IRadAn=           5 IRanWt=          -1 IRanGd=           0 AccXCQ= 0.00D+00.
 Generated NRdTot=       0 NPtTot=           0 NUsed=           0 NTot=          32
 NSgBfM=    57    57    57    57    57 MxSgAt=    11 MxSgA2=    11.
 Leave Link  302 at Tue Feb 25 12:20:29 2020, MaxMem=  6710886400 cpu:               3.1 elap:               0.2
 (Enter /opt/ohpc/pub/libs/gaussian/g16-A.03/haswell/g16/l303.exe)
 DipDrv:  MaxL=1.
 Leave Link  303 at Tue Feb 25 12:20:29 2020, MaxMem=  6710886400 cpu:               0.4 elap:               0.0
 (Enter /opt/ohpc/pub/libs/gaussian/g16-A.03/haswell/g16/l401.exe)
 ExpMin= 1.61D-01 ExpMax= 3.05D+03 ExpMxC= 4.57D+02 IAcc=3 IRadAn=         5 AccDes= 0.00D+00
 Harris functional with IExCor=33909 and IRadAn=       5 diagonalized for initial guess.
 HarFok:  IExCor=33909 AccDes= 0.00D+00 IRadAn=         5 IDoV= 1 UseB2=F ITyADJ=14
 ICtDFT=  3500011 ScaDFX=  1.000000  1.000000  1.000000  1.000000
 FoFCou: FMM=F IPFlag=           0 FMFlag=      100000 FMFlg1=           0
         NFxFlg=           0 DoJE=T BraDBF=F KetDBF=T FulRan=T
         wScrn=  0.000000 ICntrl=       500 IOpCl=  0 I1Cent=   200000004 NGrid=           0
         NMat0=    1 NMatS0=      1 NMatT0=    0 NMatD0=    1 NMtDS0=    0 NMtDT0=    0
 Petite list used in FoFCou.
 Harris En= -188.452772203334    
 JPrj=0 DoOrth=F DoCkMO=F.
 Initial guess orbital symmetries:
 Alpha Orbitals:
       Occupied  (A1) (B2) (A1) (B2) (A1) (A1) (B2) (A1) (B2) (A1)
                 (A1) (B2) (B2) (A1) (B1) (A1) (A2) (B1)
       Virtual   (B2) (A1) (A2) (B1) (A1) (B2) (A1) (B2) (A1) (A1)
                 (B2) (A1) (B2) (B1) (B2) (A1) (B1) (A1) (A2) (B2)
                 (A1) (A2) (B1) (B2) (A1) (A1) (B2) (A1) (B2) (A1)
                 (A1) (B2) (A1) (A1) (B2) (B2) (A1) (A1) (B2)
 Beta  Orbitals:
       Occupied  (A1) (B2) (A1) (B2) (A1) (A1) (B2) (A1) (B2) (A1)
                 (A1) (B2) (B2) (A1) (B1) (A1) (A2)
       Virtual   (B1) (B2) (A1) (A2) (B1) (A1) (B2) (A1) (B2) (A1)
                 (A1) (B2) (A1) (B2) (B1) (B2) (A1) (B1) (A1) (A2)
                 (B2) (A1) (A2) (B1) (B2) (A1) (A1) (B2) (A1) (B2)
                 (A1) (A1) (B2) (A1) (A1) (B2) (B2) (A1) (A1) (B2)
 The electronic state of the initial guess is 2-B1.
 Initial guess <Sx>= 0.0000 <Sy>= 0.0000 <Sz>= 0.5000 <S**2>= 0.7500 S= 0.5000
 Leave Link  401 at Tue Feb 25 12:20:29 2020, MaxMem=  6710886400 cpu:               4.4 elap:               0.3
 (Enter /opt/ohpc/pub/libs/gaussian/g16-A.03/haswell/g16/l502.exe)
 Keep R1 and R2 ints in memory in symmetry-blocked form, NReq=16815659.
 FoFCou: FMM=F IPFlag=           0 FMFlag=           0 FMFlg1=           0
         NFxFlg=           0 DoJE=F BraDBF=F KetDBF=F FulRan=T
         wScrn=  0.000000 ICntrl=       600 IOpCl=  0 I1Cent=           0 NGrid=           0
         NMat0=    1 NMatS0=   1653 NMatT0=    0 NMatD0=    1 NMtDS0=    0 NMtDT0=    0
 Petite list used in FoFCou.
 UHF open shell SCF:
 Using DIIS extrapolation, IDIIS=    10.
 NGot=  6710886400 LenX=  6710059583 LenY=  6710055893
 Requested convergence on RMS density matrix=1.00D-06 within  32 cycles.
 Requested convergence on MAX density matrix=1.00D-04.
 Requested convergence on             energy=1.00D-04.
 Virtual orbitals will be shifted by   0.500 hartree.
 No special actions if energy rises.
 Dynamic level shift is on during FON iterations.

 Cycle   1  Pass 1  IDiag  1:
 E= -193.191064762087    
 DIIS: error= 5.82D-02 at cycle   1 NSaved=   1.
 NSaved= 1 IEnMin= 1 EnMin= -193.191064762087     IErMin= 1 ErrMin= 5.82D-02
 ErrMax= 5.82D-02  0.00D+00 EMaxC= 1.00D+00 BMatC= 2.95D-01 BMatP= 2.95D-01
 IDIUse=1 WtCom= 1.00D+00 WtEn= 0.00D+00
 Coeff-Com:  0.100D+01
 Coeff:      0.100D+01
 Gap=     0.067 Goal=   None    Shift=    0.500
 T= 1894. Gap= 0.525 NK=0 IS=   19 IE=   57 IFin=   18
          NO(<0.9)=   0  NV(>0.1)=   0     18.00e < EF      0.00e >EF  Err=0.0D+00
 Gap=     0.092 Goal=   None    Shift=    0.500
 T= 1894. Gap= 0.598 NK=0 IS=   18 IE=   57 IFin=   17
          NO(<0.9)=   0  NV(>0.1)=   0     17.00e < EF      0.00e >EF  Err=0.0D+00
 GapD=    0.067 DampG=0.500 DampE=0.500 DampFc=0.2500 IDamp=-1.
 Damping current iteration by 2.50D-01
 RMSDP=7.76D-03 MaxDP=6.05D-02              OVMax= 1.24D-01

 Cycle   2  Pass 1  IDiag  1:
 E= -193.228002879113     Delta-E=       -0.036938117025 Rises=F Damp=T
 DIIS: error= 4.28D-02 at cycle   2 NSaved=   2.
 NSaved= 2 IEnMin= 2 EnMin= -193.228002879113     IErMin= 2 ErrMin= 4.28D-02
 ErrMax= 4.28D-02  0.00D+00 EMaxC= 1.00D+00 BMatC= 1.44D-01 BMatP= 2.95D-01
 IDIUse=1 WtCom= 1.00D+00 WtEn= 0.00D+00
 Coeff-Com: -0.202D+01 0.302D+01
 Coeff:     -0.202D+01 0.302D+01
 Gap=     0.167 Goal=   None    Shift=    0.500
 T= 1838. Gap= 0.647 NK=4 IS=   19 IE=   24 IFin=   18
          NO(<0.9)=   0  NV(>0.1)=   0     18.00e < EF      0.00e >EF  Err=0.0D+00
 Gap=     0.200 Goal=   None    Shift=    0.500
 T= 1838. Gap= 0.702 NK=4 IS=   18 IE=   21 IFin=   17
          NO(<0.9)=   0  NV(>0.1)=   0     17.00e < EF      0.00e >EF  Err=0.0D+00
 GapD=    0.167 DampG=1.000 DampE=0.500 DampFc=0.5000 IDamp=-1.
 Damping current iteration by 5.00D-01
 RMSDP=6.30D-03 MaxDP=5.18D-02 DE=-3.69D-02 OVMax= 5.12D-02

 Cycle   3  Pass 1  IDiag  1:
 E= -193.272871846862     Delta-E=       -0.044868967749 Rises=F Damp=T
 DIIS: error= 2.31D-02 at cycle   3 NSaved=   3.
 NSaved= 3 IEnMin= 3 EnMin= -193.272871846862     IErMin= 3 ErrMin= 2.31D-02
 ErrMax= 2.31D-02  0.00D+00 EMaxC= 1.00D+00 BMatC= 3.15D-02 BMatP= 1.44D-01
 IDIUse=1 WtCom= 1.00D+00 WtEn= 0.00D+00
 Coeff-Com:  0.101D+01-0.257D+01 0.256D+01
 Coeff:      0.101D+01-0.257D+01 0.256D+01
 Gap=     0.198 Goal=   None    Shift=    0.500
 T= 1689. Gap= 0.697 NK=4 IS=   19 IE=   24 IFin=   18
          NO(<0.9)=   0  NV(>0.1)=   0     18.00e < EF      0.00e >EF  Err=0.0D+00
 Gap=     0.252 Goal=   None    Shift=    0.500
 T= 1689. Gap= 0.752 NK=4 IS=   18 IE=   21 IFin=   17
          NO(<0.9)=   0  NV(>0.1)=   0     17.00e < EF      0.00e >EF  Err=0.0D+00
 GapD=    0.198 DampG=1.000 DampE=0.500 DampFc=0.5000 IDamp=-1.
 Damping current iteration by 5.00D-01
 RMSDP=3.17D-03 MaxDP=2.56D-02 DE=-4.49D-02 OVMax= 2.23D-02

 Cycle   4  Pass 1  IDiag  1:
 E= -193.291581694598     Delta-E=       -0.018709847736 Rises=F Damp=T
 DIIS: error= 1.34D-02 at cycle   4 NSaved=   4.
 NSaved= 4 IEnMin= 4 EnMin= -193.291581694598     IErMin= 4 ErrMin= 1.34D-02
 ErrMax= 1.34D-02  0.00D+00 EMaxC= 1.00D+00 BMatC= 8.64D-03 BMatP= 3.15D-02
 IDIUse=1 WtCom= 1.00D+00 WtEn= 0.00D+00
 Coeff-Com:  0.331D+00-0.118D+00-0.217D+01 0.296D+01
 Coeff:      0.331D+00-0.118D+00-0.217D+01 0.296D+01
 Gap=     0.212 Goal=   None    Shift=    0.500
 T= 1420. Gap= 0.712 NK=4 IS=   19 IE=   24 IFin=   18
          NO(<0.9)=   0  NV(>0.1)=   0     18.00e < EF      0.00e >EF  Err=0.0D+00
 Gap=     0.265 Goal=   None    Shift=    0.500
 T= 1420. Gap= 0.765 NK=4 IS=   18 IE=   21 IFin=   17
          NO(<0.9)=   0  NV(>0.1)=   0     17.00e < EF      0.00e >EF  Err=0.0D+00
 GapD=    0.212 DampG=1.000 DampE=0.500 DampFc=0.5000 IDamp=-1.
 Damping current iteration by 5.00D-01
 RMSDP=1.77D-03 MaxDP=1.87D-02 DE=-1.87D-02 OVMax= 1.52D-02

 Cycle   5  Pass 1  IDiag  1:
 E= -193.300651594641     Delta-E=       -0.009069900043 Rises=F Damp=T
 DIIS: error= 8.89D-03 at cycle   5 NSaved=   5.
 NSaved= 5 IEnMin= 5 EnMin= -193.300651594641     IErMin= 5 ErrMin= 8.89D-03
 ErrMax= 8.89D-03  0.00D+00 EMaxC= 1.00D+00 BMatC= 3.03D-03 BMatP= 8.64D-03
 IDIUse=1 WtCom= 1.00D+00 WtEn= 0.00D+00
 Coeff-Com: -0.344D+00 0.740D+00 0.196D+00-0.374D+01 0.415D+01
 Coeff:     -0.344D+00 0.740D+00 0.196D+00-0.374D+01 0.415D+01
 Gap=     0.217 Goal=   None    Shift=    0.500
 T= 1085. Gap= 0.717 NK=4 IS=   19 IE=   24 IFin=   18
          NO(<0.9)=   0  NV(>0.1)=   0     18.00e < EF      0.00e >EF  Err=0.0D+00
 Gap=     0.268 Goal=   None    Shift=    0.500
 T= 1085. Gap= 0.768 NK=4 IS=   18 IE=   21 IFin=   17
          NO(<0.9)=   0  NV(>0.1)=   0     17.00e < EF      0.00e >EF  Err=0.0D+00
 GapD=    0.217 DampG=1.000 DampE=1.000 DampFc=1.0000 IDamp=-1.
 RMSDP=1.26D-03 MaxDP=1.54D-02 DE=-9.07D-03 OVMax= 1.58D-02

 Cycle   6  Pass 1  IDiag  1:
 E= -193.310603099340     Delta-E=       -0.009951504699 Rises=F Damp=F
 DIIS: error= 3.43D-03 at cycle   6 NSaved=   6.
 NSaved= 6 IEnMin= 6 EnMin= -193.310603099340     IErMin= 6 ErrMin= 3.43D-03
 ErrMax= 3.43D-03  0.00D+00 EMaxC= 1.00D+00 BMatC= 3.31D-04 BMatP= 3.03D-03
 IDIUse=1 WtCom= 1.00D+00 WtEn= 0.00D+00
 Coeff-Com:  0.143D+00-0.400D+00 0.403D+00 0.167D+01-0.337D+01 0.255D+01
 Coeff:      0.143D+00-0.400D+00 0.403D+00 0.167D+01-0.337D+01 0.255D+01
 Gap=     0.219 Goal=   None    Shift=    0.500
 T=  745. Gap= 0.719 NK=4 IS=   19 IE=   24 IFin=   18
          NO(<0.9)=   0  NV(>0.1)=   0     18.00e < EF      0.00e >EF  Err=0.0D+00
 Gap=     0.268 Goal=   None    Shift=    0.500
 T=  745. Gap= 0.768 NK=4 IS=   18 IE=   21 IFin=   17
          NO(<0.9)=   0  NV(>0.1)=   0     17.00e < EF      0.00e >EF  Err=0.0D+00
 GapD=    0.219 DampG=1.000 DampE=1.000 DampFc=1.0000 IDamp=-1.
 RMSDP=3.67D-04 MaxDP=4.93D-03 DE=-9.95D-03 OVMax= 1.41D-02

 Cycle   7  Pass 1  IDiag  1:
 E= -193.311127119211     Delta-E=       -0.000524019871 Rises=F Damp=F
 DIIS: error= 2.57D-03 at cycle   7 NSaved=   7.
 NSaved= 7 IEnMin= 7 EnMin= -193.311127119211     IErMin= 7 ErrMin= 2.57D-03
 ErrMax= 2.57D-03  0.00D+00 EMaxC= 1.00D+00 BMatC= 1.62D-04 BMatP= 3.31D-04
 IDIUse=1 WtCom= 1.00D+00 WtEn= 0.00D+00
 Coeff-Com:  0.412D-01-0.388D-01-0.329D+00 0.650D+00-0.121D+00-0.217D+01
 Coeff-Com:  0.297D+01
 Coeff:      0.412D-01-0.388D-01-0.329D+00 0.650D+00-0.121D+00-0.217D+01
 Coeff:      0.297D+01
 Gap=     0.221 Goal=   None    Shift=    0.500
 T=  416. Gap= 0.721 NK=4 IS=   19 IE=   24 IFin=   18
          NO(<0.9)=   0  NV(>0.1)=   0     18.00e < EF      0.00e >EF  Err=0.0D+00
 Gap=     0.268 Goal=   None    Shift=    0.500
 T=  416. Gap= 0.768 NK=4 IS=   18 IE=   21 IFin=   17
          NO(<0.9)=   0  NV(>0.1)=   0     17.00e < EF      0.00e >EF  Err=0.0D+00
 GapD=    0.221 DampG=1.000 DampE=1.000 DampFc=1.0000 IDamp=-1.
 RMSDP=2.96D-04 MaxDP=4.35D-03 DE=-5.24D-04 OVMax= 1.24D-02

 Cycle   8  Pass 1  IDiag  1:
 E= -193.311437981429     Delta-E=       -0.000310862218 Rises=F Damp=F
 DIIS: error= 1.76D-03 at cycle   8 NSaved=   8.
 NSaved= 8 IEnMin= 8 EnMin= -193.311437981429     IErMin= 8 ErrMin= 1.76D-03
 ErrMax= 1.76D-03  0.00D+00 EMaxC= 1.00D+00 BMatC= 8.27D-05 BMatP= 1.62D-04
 IDIUse=1 WtCom= 1.00D+00 WtEn= 0.00D+00
 Coeff-Com: -0.261D-01 0.943D-01-0.184D+00-0.404D+00 0.106D+01-0.165D+01
 Coeff-Com:  0.633D+00 0.148D+01
 Coeff:     -0.261D-01 0.943D-01-0.184D+00-0.404D+00 0.106D+01-0.165D+01
 Coeff:      0.633D+00 0.148D+01
 Gap=     0.222 Goal=   None    Shift=    0.500
 T=   26. Gap= 0.722 NK=4 IS=   19 IE=   24 IFin=   18
          NO(<0.9)=   0  NV(>0.1)=   0     18.00e < EF      0.00e >EF  Err=0.0D+00
 Gap=     0.268 Goal=   None    Shift=    0.500
 T=   26. Gap= 0.768 NK=4 IS=   18 IE=   21 IFin=   17
          NO(<0.9)=   0  NV(>0.1)=   0     17.00e < EF      0.00e >EF  Err=0.0D+00
 GapD=    0.222 DampG=1.000 DampE=1.000 DampFc=1.0000 IDamp=-1.
 RMSDP=1.96D-04 MaxDP=2.51D-03 DE=-3.11D-04 OVMax= 8.32D-03

 Cycle   9  Pass 1  IDiag  1:
 E= -193.311591584943     Delta-E=       -0.000153603514 Rises=F Damp=F
 DIIS: error= 1.34D-03 at cycle   9 NSaved=   9.
 NSaved= 9 IEnMin= 9 EnMin= -193.311591584943     IErMin= 9 ErrMin= 1.34D-03
 ErrMax= 1.34D-03  0.00D+00 EMaxC= 1.00D+00 BMatC= 4.86D-05 BMatP= 8.27D-05
 IDIUse=1 WtCom= 1.00D+00 WtEn= 0.00D+00
 Coeff-Com:  0.561D-02-0.709D-01 0.421D+00-0.499D+00-0.172D+00 0.209D+01
 Coeff-Com: -0.256D+01-0.189D+01 0.367D+01
 Coeff:      0.561D-02-0.709D-01 0.421D+00-0.499D+00-0.172D+00 0.209D+01
 Coeff:     -0.256D+01-0.189D+01 0.367D+01
 Gap=     0.224 Goal=   None    Shift=    0.500
 Gap=     0.266 Goal=   None    Shift=    0.500
 GapD=    0.224 DampG=1.000 DampE=1.000 DampFc=1.0000 IDamp=-1.
 RMSDP=1.95D-04 MaxDP=3.00D-03 DE=-1.54D-04 OVMax= 8.40D-03

 Cycle  10  Pass 1  IDiag  1:
 E= -193.311717728486     Delta-E=       -0.000126143543 Rises=F Damp=F
 DIIS: error= 1.17D-03 at cycle  10 NSaved=  10.
 NSaved=10 IEnMin=10 EnMin= -193.311717728486     IErMin=10 ErrMin= 1.17D-03
 ErrMax= 1.17D-03  0.00D+00 EMaxC= 1.00D+00 BMatC= 3.10D-05 BMatP= 4.86D-05
 IDIUse=1 WtCom= 1.00D+00 WtEn= 0.00D+00
 Coeff-Com:  0.177D-02 0.284D-02-0.281D-01 0.131D+00-0.189D+00 0.152D+00
 Coeff-Com:  0.250D+00-0.376D+00-0.177D+01 0.283D+01
 Coeff:      0.177D-02 0.284D-02-0.281D-01 0.131D+00-0.189D+00 0.152D+00
 Coeff:      0.250D+00-0.376D+00-0.177D+01 0.283D+01
 Gap=     0.225 Goal=   None    Shift=    0.500
 Gap=     0.266 Goal=   None    Shift=    0.500
 GapD=    0.225 DampG=1.000 DampE=1.000 DampFc=1.0000 IDamp=-1.
 RMSDP=1.62D-04 MaxDP=2.94D-03 DE=-1.26D-04 OVMax= 8.08D-03

 Cycle  11  Pass 1  IDiag  1:
 E= -193.311809270642     Delta-E=       -0.000091542156 Rises=F Damp=F
 DIIS: error= 1.06D-03 at cycle  11 NSaved=  11.
 NSaved=11 IEnMin=11 EnMin= -193.311809270642     IErMin=11 ErrMin= 1.06D-03
 ErrMax= 1.06D-03  0.00D+00 EMaxC= 1.00D+00 BMatC= 2.35D-05 BMatP= 3.10D-05
 IDIUse=1 WtCom= 1.00D+00 WtEn= 0.00D+00
 Large coefficients: NSaved= 11 BigCof=   12.08 CofMax=   10.00 Det=-1.59D-08
 Inversion failed.  Reducing to 10 matrices.
 Large coefficients: NSaved= 10 BigCof=   12.08 CofMax=   10.00 Det=-1.59D-08
 Inversion failed.  Reducing to  9 matrices.
 Coeff-Com:  0.133D-01-0.246D+00 0.431D+00-0.326D+00-0.328D+00 0.442D+00
 Coeff-Com:  0.364D+01-0.960D+01 0.697D+01
 Coeff:      0.133D-01-0.246D+00 0.431D+00-0.326D+00-0.328D+00 0.442D+00
 Coeff:      0.364D+01-0.960D+01 0.697D+01
 Gap=     0.228 Goal=   None    Shift=    0.500
 Gap=     0.264 Goal=   None    Shift=    0.500
 GapD=    0.228 DampG=1.000 DampE=1.000 DampFc=1.0000 IDamp=-1.
 RMSDP=2.04D-04 MaxDP=3.90D-03 DE=-9.15D-05 OVMax= 1.11D-02

 Cycle  12  Pass 1  IDiag  1:
 E= -193.311914518801     Delta-E=       -0.000105248159 Rises=F Damp=F
 DIIS: error= 9.79D-04 at cycle  12 NSaved=  10.
 NSaved=10 IEnMin=10 EnMin= -193.311914518801     IErMin=10 ErrMin= 9.79D-04
 ErrMax= 9.79D-04  0.00D+00 EMaxC= 1.00D+00 BMatC= 2.02D-05 BMatP= 2.35D-05
 IDIUse=1 WtCom= 1.00D+00 WtEn= 0.00D+00
 Coeff-Com:  0.204D-01-0.248D+00 0.408D+00-0.258D+00-0.345D+00 0.339D+00
 Coeff-Com:  0.331D+01-0.832D+01 0.562D+01 0.473D+00
 Coeff:      0.204D-01-0.248D+00 0.408D+00-0.258D+00-0.345D+00 0.339D+00
 Coeff:      0.331D+01-0.832D+01 0.562D+01 0.473D+00
 Gap=     0.228 Goal=   None    Shift=    0.500
 Gap=     0.264 Goal=   None    Shift=    0.500
 RMSDP=1.26D-04 MaxDP=2.74D-03 DE=-1.05D-04 OVMax= 7.09D-03

 Cycle  13  Pass 1  IDiag  1:
 E= -193.311975932483     Delta-E=       -0.000061413682 Rises=F Damp=F
 DIIS: error= 9.03D-04 at cycle  13 NSaved=  11.
 NSaved=11 IEnMin=11 EnMin= -193.311975932483     IErMin=11 ErrMin= 9.03D-04
 ErrMax= 9.03D-04  0.00D+00 EMaxC= 1.00D+00 BMatC= 1.73D-05 BMatP= 2.02D-05
 IDIUse=1 WtCom= 1.00D+00 WtEn= 0.00D+00
 Large coefficients: NSaved= 11 BigCof=   13.56 CofMax=   10.00 Det=-6.97D-09
 Inversion failed.  Reducing to 10 matrices.
 Large coefficients: NSaved= 10 BigCof=   13.58 CofMax=   10.00 Det=-6.98D-09
 Inversion failed.  Reducing to  9 matrices.
 Coeff-Com:  0.170D-01-0.146D+00 0.225D+00-0.517D-01-0.132D+01 0.598D+01
 Coeff-Com: -0.710D+01-0.395D+01 0.734D+01
 Coeff:      0.170D-01-0.146D+00 0.225D+00-0.517D-01-0.132D+01 0.598D+01
 Coeff:     -0.710D+01-0.395D+01 0.734D+01
 Gap=     0.233 Goal=   None    Shift=    0.500
 Gap=     0.260 Goal=   None    Shift=    0.500
 RMSDP=3.60D-04 MaxDP=6.89D-03 DE=-6.14D-05 OVMax= 2.02D-02

 Cycle  14  Pass 1  IDiag  1:
 E= -193.312126692353     Delta-E=       -0.000150759871 Rises=F Damp=F
 DIIS: error= 7.91D-04 at cycle  14 NSaved=  10.
 NSaved=10 IEnMin=10 EnMin= -193.312126692353     IErMin=10 ErrMin= 7.91D-04
 ErrMax= 7.91D-04  0.00D+00 EMaxC= 1.00D+00 BMatC= 1.75D-05 BMatP= 1.73D-05
 IDIUse=1 WtCom= 1.00D+00 WtEn= 0.00D+00
 Large coefficients: NSaved= 10 BigCof=   15.52 CofMax=   10.00 Det=-1.60D-08
 Inversion failed.  Reducing to  9 matrices.
 Large coefficients: NSaved=  9 BigCof=   15.62 CofMax=   10.00 Det=-1.81D-08
 Inversion failed.  Reducing to  8 matrices.
 Large coefficients: NSaved=  8 BigCof=   15.58 CofMax=   10.00 Det=-2.46D-08
 Inversion failed.  Reducing to  7 matrices.
 Large coefficients: NSaved=  7 BigCof=   15.50 CofMax=   10.00 Det=-1.63D-08
 Inversion failed.  Reducing to  6 matrices.
 Large coefficients: NSaved=  6 BigCof=   14.93 CofMax=   10.00 Det=-1.67D-08
 Inversion failed.  Reducing to  5 matrices.
 Large coefficients: NSaved=  5 BigCof=   14.33 CofMax=   10.00 Det=-3.39D-08
 Inversion failed.  Reducing to  4 matrices.
 Large coefficients: NSaved=  4 BigCof=   13.86 CofMax=   10.00 Det=-4.65D-08
 Inversion failed.  Reducing to  3 matrices.
 Coeff-Com: -0.366D+01 0.403D+01 0.635D+00
 Coeff:     -0.366D+01 0.403D+01 0.635D+00
 Gap=     0.234 Goal=   None    Shift=    0.500
 Gap=     0.262 Goal=   None    Shift=    0.500
 RMSDP=1.67D-04 MaxDP=3.84D-03 DE=-1.51D-04 OVMax= 9.31D-03

 Cycle  15  Pass 1  IDiag  1:
 E= -193.312188492826     Delta-E=       -0.000061800472 Rises=F Damp=F
 DIIS: error= 7.05D-04 at cycle  15 NSaved=   4.
 NSaved= 4 IEnMin= 4 EnMin= -193.312188492826     IErMin= 4 ErrMin= 7.05D-04
 ErrMax= 7.05D-04  0.00D+00 EMaxC= 1.00D+00 BMatC= 1.24D-05 BMatP= 1.73D-05
 IDIUse=1 WtCom= 1.00D+00 WtEn= 0.00D+00
 Coeff-Com:  0.254D+01-0.329D+01-0.329D+01 0.504D+01
 Coeff:      0.254D+01-0.329D+01-0.329D+01 0.504D+01
 Gap=     0.232 Goal=   None    Shift=    0.500
 Gap=     0.260 Goal=   None    Shift=    0.500
 RMSDP=2.80D-04 MaxDP=5.59D-03 DE=-6.18D-05 OVMax= 1.61D-02

 Cycle  16  Pass 1  IDiag  1:
 E= -193.312271740920     Delta-E=       -0.000083248094 Rises=F Damp=F
 DIIS: error= 5.92D-04 at cycle  16 NSaved=   5.
 NSaved= 5 IEnMin= 5 EnMin= -193.312271740920     IErMin= 5 ErrMin= 5.92D-04
 ErrMax= 5.92D-04  0.00D+00 EMaxC= 1.00D+00 BMatC= 1.25D-05 BMatP= 1.24D-05
 IDIUse=1 WtCom= 1.00D+00 WtEn= 0.00D+00
 Coeff-Com:  0.219D+01-0.216D+01-0.381D+01 0.352D+01 0.125D+01
 Coeff:      0.219D+01-0.216D+01-0.381D+01 0.352D+01 0.125D+01
 Gap=     0.232 Goal=   None    Shift=    0.500
 Gap=     0.260 Goal=   None    Shift=    0.500
 RMSDP=1.86D-04 MaxDP=4.12D-03 DE=-8.32D-05 OVMax= 1.08D-02

 Cycle  17  Pass 1  IDiag  1:
 E= -193.312316647474     Delta-E=       -0.000044906554 Rises=F Damp=F
 DIIS: error= 4.93D-04 at cycle  17 NSaved=   6.
 NSaved= 6 IEnMin= 6 EnMin= -193.312316647474     IErMin= 6 ErrMin= 4.93D-04
 ErrMax= 4.93D-04  0.00D+00 EMaxC= 1.00D+00 BMatC= 8.46D-06 BMatP= 1.24D-05
 IDIUse=1 WtCom= 1.00D+00 WtEn= 0.00D+00
 Coeff-Com: -0.398D+01 0.528D+01 0.300D+01-0.460D+01-0.432D+01 0.563D+01
 Coeff:     -0.398D+01 0.528D+01 0.300D+01-0.460D+01-0.432D+01 0.563D+01
 Gap=     0.232 Goal=   None    Shift=    0.500
 Gap=     0.260 Goal=   None    Shift=    0.500
 RMSDP=1.27D-04 MaxDP=2.78D-03 DE=-4.49D-05 OVMax= 7.61D-03

 Cycle  18  Pass 1  IDiag  1:
 E= -193.312342088028     Delta-E=       -0.000025440554 Rises=F Damp=F
 DIIS: error= 4.31D-04 at cycle  18 NSaved=   7.
 NSaved= 7 IEnMin= 7 EnMin= -193.312342088028     IErMin= 7 ErrMin= 4.31D-04
 ErrMax= 4.31D-04  0.00D+00 EMaxC= 1.00D+00 BMatC= 5.26D-06 BMatP= 8.46D-06
 IDIUse=1 WtCom= 1.00D+00 WtEn= 0.00D+00
 Coeff-Com: -0.943D+00 0.105D+01 0.496D+00-0.580D+00-0.354D+00-0.177D+01
 Coeff-Com:  0.310D+01
 Coeff:     -0.943D+00 0.105D+01 0.496D+00-0.580D+00-0.354D+00-0.177D+01
 Coeff:      0.310D+01
 Gap=     0.231 Goal=   None    Shift=    0.500
 Gap=     0.259 Goal=   None    Shift=    0.500
 RMSDP=1.31D-04 MaxDP=2.80D-03 DE=-2.54D-05 OVMax= 7.54D-03

 Cycle  19  Pass 1  IDiag  1:
 E= -193.312361699711     Delta-E=       -0.000019611684 Rises=F Damp=F
 DIIS: error= 2.90D-04 at cycle  19 NSaved=   8.
 NSaved= 8 IEnMin= 8 EnMin= -193.312361699711     IErMin= 8 ErrMin= 2.90D-04
 ErrMax= 2.90D-04  0.00D+00 EMaxC= 1.00D+00 BMatC= 3.50D-06 BMatP= 5.26D-06
 IDIUse=1 WtCom= 1.00D+00 WtEn= 0.00D+00
 Coeff-Com:  0.292D+01-0.337D+01-0.302D+01 0.355D+01 0.312D+01-0.561D+01
 Coeff-Com:  0.108D+01 0.234D+01
 Coeff:      0.292D+01-0.337D+01-0.302D+01 0.355D+01 0.312D+01-0.561D+01
 Coeff:      0.108D+01 0.234D+01
 Gap=     0.231 Goal=   None    Shift=    0.500
 Gap=     0.259 Goal=   None    Shift=    0.500
 RMSDP=1.03D-04 MaxDP=2.23D-03 DE=-1.96D-05 OVMax= 6.02D-03

 Cycle  20  Pass 1  IDiag  1:
 E= -193.312372969769     Delta-E=       -0.000011270057 Rises=F Damp=F
 DIIS: error= 2.11D-04 at cycle  20 NSaved=   9.
 NSaved= 9 IEnMin= 9 EnMin= -193.312372969769     IErMin= 9 ErrMin= 2.11D-04
 ErrMax= 2.11D-04  0.00D+00 EMaxC= 1.00D+00 BMatC= 2.09D-06 BMatP= 3.50D-06
 IDIUse=1 WtCom= 1.00D+00 WtEn= 0.00D+00
 Coeff-Com:  0.172D+00 0.264D+00-0.706D+00 0.322D+00-0.520D+00 0.119D+01
 Coeff-Com: -0.141D+01-0.857D+00 0.254D+01
 Coeff:      0.172D+00 0.264D+00-0.706D+00 0.322D+00-0.520D+00 0.119D+01
 Coeff:     -0.141D+01-0.857D+00 0.254D+01
 Gap=     0.231 Goal=   None    Shift=    0.500
 Gap=     0.259 Goal=   None    Shift=    0.500
 RMSDP=4.81D-05 MaxDP=1.12D-03 DE=-1.13D-05 OVMax= 2.74D-03

 Cycle  21  Pass 1  IDiag  1:
 E= -193.312377096162     Delta-E=       -0.000004126394 Rises=F Damp=F
 DIIS: error= 1.95D-04 at cycle  21 NSaved=  10.
 NSaved=10 IEnMin=10 EnMin= -193.312377096162     IErMin=10 ErrMin= 1.95D-04
 ErrMax= 1.95D-04  0.00D+00 EMaxC= 1.00D+00 BMatC= 9.32D-07 BMatP= 2.09D-06
 IDIUse=1 WtCom= 1.00D+00 WtEn= 0.00D+00
 Coeff-Com: -0.239D+00 0.515D+00-0.671D-01-0.248D+00-0.688D+00 0.189D+01
 Coeff-Com: -0.188D+01-0.878D-01 0.246D+00 0.157D+01
 Coeff:     -0.239D+00 0.515D+00-0.671D-01-0.248D+00-0.688D+00 0.189D+01
 Coeff:     -0.188D+01-0.878D-01 0.246D+00 0.157D+01
 Gap=     0.231 Goal=   None    Shift=    0.500
 Gap=     0.259 Goal=   None    Shift=    0.500
 RMSDP=4.47D-05 MaxDP=9.85D-04 DE=-4.13D-06 OVMax= 2.55D-03

 Cycle  22  Pass 1  IDiag  1:
 E= -193.312379605401     Delta-E=       -0.000002509239 Rises=F Damp=F
 DIIS: error= 1.47D-04 at cycle  22 NSaved=  11.
 NSaved=11 IEnMin=11 EnMin= -193.312379605401     IErMin=11 ErrMin= 1.47D-04
 ErrMax= 1.47D-04  0.00D+00 EMaxC= 1.00D+00 BMatC= 5.27D-07 BMatP= 9.32D-07
 IDIUse=1 WtCom= 1.00D+00 WtEn= 0.00D+00
 Coeff-Com: -0.744D-02 0.232D+00-0.409D+00 0.121D+00 0.325D-01-0.270D+00
 Coeff-Com:  0.406D+00 0.204D+00 0.669D+00-0.437D+01 0.439D+01
 Coeff:     -0.744D-02 0.232D+00-0.409D+00 0.121D+00 0.325D-01-0.270D+00
 Coeff:      0.406D+00 0.204D+00 0.669D+00-0.437D+01 0.439D+01
 Gap=     0.231 Goal=   None    Shift=    0.500
 Gap=     0.259 Goal=   None    Shift=    0.500
 RMSDP=3.22D-05 MaxDP=7.22D-04 DE=-2.51D-06 OVMax= 1.83D-03

 Cycle  23  Pass 1  IDiag  1:
 E= -193.312380817217     Delta-E=       -0.000001211816 Rises=F Damp=F
 DIIS: error= 1.09D-04 at cycle  23 NSaved=  12.
 NSaved=12 IEnMin=12 EnMin= -193.312380817217     IErMin=12 ErrMin= 1.09D-04
 ErrMax= 1.09D-04  0.00D+00 EMaxC= 1.00D+00 BMatC= 2.72D-07 BMatP= 5.27D-07
 IDIUse=1 WtCom= 1.00D+00 WtEn= 0.00D+00
 Coeff-Com:  0.283D+00-0.221D+00-0.538D+00 0.506D+00 0.272D+00-0.232D+00
 Coeff-Com: -0.433D+00-0.525D-01 0.699D+00 0.918D+00-0.364D+01 0.344D+01
 Coeff:      0.283D+00-0.221D+00-0.538D+00 0.506D+00 0.272D+00-0.232D+00
 Coeff:     -0.433D+00-0.525D-01 0.699D+00 0.918D+00-0.364D+01 0.344D+01
 Gap=     0.231 Goal=   None    Shift=    0.500
 Gap=     0.259 Goal=   None    Shift=    0.500
 RMSDP=2.14D-05 MaxDP=5.01D-04 DE=-1.21D-06 OVMax= 1.21D-03

 Cycle  24  Pass 1  IDiag  1:
 E= -193.312381348215     Delta-E=       -0.000000530998 Rises=F Damp=F
 DIIS: error= 7.69D-05 at cycle  24 NSaved=  13.
 NSaved=13 IEnMin=13 EnMin= -193.312381348215     IErMin=13 ErrMin= 7.69D-05
 ErrMax= 7.69D-05  0.00D+00 EMaxC= 1.00D+00 BMatC= 1.33D-07 BMatP= 2.72D-07
 IDIUse=1 WtCom= 1.00D+00 WtEn= 0.00D+00
 Coeff-Com: -0.164D+00 0.228D+00 0.682D-01-0.142D+00-0.174D+00 0.218D+00
 Coeff-Com:  0.527D-01 0.717D-01-0.391D-01-0.132D+01 0.345D+01-0.585D+01
 Coeff-Com:  0.460D+01
 Coeff:     -0.164D+00 0.228D+00 0.682D-01-0.142D+00-0.174D+00 0.218D+00
 Coeff:      0.527D-01 0.717D-01-0.391D-01-0.132D+01 0.345D+01-0.585D+01
 Coeff:      0.460D+01
 Gap=     0.231 Goal=   None    Shift=    0.500
 Gap=     0.259 Goal=   None    Shift=    0.500
 RMSDP=1.40D-05 MaxDP=3.49D-04 DE=-5.31D-07 OVMax= 8.23D-04

 Cycle  25  Pass 1  IDiag  1:
 E= -193.312381577331     Delta-E=       -0.000000229116 Rises=F Damp=F
 DIIS: error= 5.11D-05 at cycle  25 NSaved=  14.
 NSaved=14 IEnMin=14 EnMin= -193.312381577331     IErMin=14 ErrMin= 5.11D-05
 ErrMax= 5.11D-05  0.00D+00 EMaxC= 1.00D+00 BMatC= 5.91D-08 BMatP= 1.33D-07
 IDIUse=1 WtCom= 1.00D+00 WtEn= 0.00D+00
 Coeff-Com: -0.115D+00 0.191D+00 0.890D-02-0.107D+00-0.868D-01 0.128D+00
 Coeff-Com:  0.146D-02 0.410D-01 0.740D-01-0.753D+00 0.123D+01-0.894D+00
 Coeff-Com: -0.118D+01 0.246D+01
 Coeff:     -0.115D+00 0.191D+00 0.890D-02-0.107D+00-0.868D-01 0.128D+00
 Coeff:      0.146D-02 0.410D-01 0.740D-01-0.753D+00 0.123D+01-0.894D+00
 Coeff:     -0.118D+01 0.246D+01
 Gap=     0.231 Goal=   None    Shift=    0.500
 Gap=     0.259 Goal=   None    Shift=    0.500
 RMSDP=7.01D-06 MaxDP=1.88D-04 DE=-2.29D-07 OVMax= 4.09D-04

 Cycle  26  Pass 1  IDiag  1:
 E= -193.312381656474     Delta-E=       -0.000000079144 Rises=F Damp=F
 DIIS: error= 3.70D-05 at cycle  26 NSaved=  15.
 NSaved=15 IEnMin=15 EnMin= -193.312381656474     IErMin=15 ErrMin= 3.70D-05
 ErrMax= 3.70D-05  0.00D+00 EMaxC= 1.00D+00 BMatC= 2.58D-08 BMatP= 5.91D-08
 IDIUse=1 WtCom= 1.00D+00 WtEn= 0.00D+00
 Coeff-Com:  0.151D-01 0.176D-01-0.868D-01 0.444D-01 0.529D-01-0.383D-01
 Coeff-Com: -0.999D-01 0.517D-01 0.170D+00-0.224D-01-0.826D+00 0.224D+01
 Coeff-Com: -0.295D+01 0.702D+00 0.173D+01
 Coeff:      0.151D-01 0.176D-01-0.868D-01 0.444D-01 0.529D-01-0.383D-01
 Coeff:     -0.999D-01 0.517D-01 0.170D+00-0.224D-01-0.826D+00 0.224D+01
 Coeff:     -0.295D+01 0.702D+00 0.173D+01
 Gap=     0.231 Goal=   None    Shift=    0.500
 Gap=     0.259 Goal=   None    Shift=    0.500
 RMSDP=5.14D-06 MaxDP=1.31D-04 DE=-7.91D-08 OVMax= 3.09D-04

 Cycle  27  Pass 1  IDiag  1:
 E= -193.312381693589     Delta-E=       -0.000000037115 Rises=F Damp=F
 DIIS: error= 2.55D-05 at cycle  27 NSaved=  16.
 NSaved=16 IEnMin=16 EnMin= -193.312381693589     IErMin=16 ErrMin= 2.55D-05
 ErrMax= 2.55D-05  0.00D+00 EMaxC= 1.00D+00 BMatC= 1.19D-08 BMatP= 2.58D-08
 IDIUse=1 WtCom= 1.00D+00 WtEn= 0.00D+00
 Coeff-Com: -0.123D-03 0.940D-02-0.293D-01 0.230D-01 0.464D-02 0.144D-01
 Coeff-Com: -0.637D-01 0.159D-01 0.762D-01 0.239D-03-0.135D+00 0.568D-01
 Coeff-Com:  0.399D+00-0.758D+00-0.140D+01 0.278D+01
 Coeff:     -0.123D-03 0.940D-02-0.293D-01 0.230D-01 0.464D-02 0.144D-01
 Coeff:     -0.637D-01 0.159D-01 0.762D-01 0.239D-03-0.135D+00 0.568D-01
 Coeff:      0.399D+00-0.758D+00-0.140D+01 0.278D+01
 Gap=     0.231 Goal=   None    Shift=    0.500
 Gap=     0.259 Goal=   None    Shift=    0.500
 RMSDP=3.62D-06 MaxDP=9.13D-05 DE=-3.71D-08 OVMax= 2.23D-04

 Cycle  28  Pass 1  IDiag  1:
 E= -193.312381710580     Delta-E=       -0.000000016991 Rises=F Damp=F
 DIIS: error= 1.64D-05 at cycle  28 NSaved=  17.
 NSaved=17 IEnMin=17 EnMin= -193.312381710580     IErMin=17 ErrMin= 1.64D-05
 ErrMax= 1.64D-05  0.00D+00 EMaxC= 1.00D+00 BMatC= 5.17D-09 BMatP= 1.19D-08
 IDIUse=1 WtCom= 1.00D+00 WtEn= 0.00D+00
 Coeff-Com: -0.524D-01 0.678D-01 0.338D-01-0.481D-01-0.468D-01 0.571D-01
 Coeff-Com:  0.100D-01-0.105D-01-0.256D-01-0.669D-01 0.297D+00-0.521D+00
 Coeff-Com:  0.275D+00 0.430D+00-0.342D+00-0.205D+01 0.300D+01
 Coeff:     -0.524D-01 0.678D-01 0.338D-01-0.481D-01-0.468D-01 0.571D-01
 Coeff:      0.100D-01-0.105D-01-0.256D-01-0.669D-01 0.297D+00-0.521D+00
 Coeff:      0.275D+00 0.430D+00-0.342D+00-0.205D+01 0.300D+01
 Gap=     0.231 Goal=   None    Shift=    0.500
 Gap=     0.259 Goal=   None    Shift=    0.500
 RMSDP=1.89D-06 MaxDP=5.16D-05 DE=-1.70D-08 OVMax= 1.18D-04

 Cycle  29  Pass 1  IDiag  1:
 E= -193.312381716761     Delta-E=       -0.000000006181 Rises=F Damp=F
 DIIS: error= 1.10D-05 at cycle  29 NSaved=  18.
 NSaved=18 IEnMin=18 EnMin= -193.312381716761     IErMin=18 ErrMin= 1.10D-05
 ErrMax= 1.10D-05  0.00D+00 EMaxC= 1.00D+00 BMatC= 2.14D-09 BMatP= 5.17D-09
 IDIUse=1 WtCom= 1.00D+00 WtEn= 0.00D+00
 Coeff-Com:  0.791D-02-0.876D-02-0.641D-02 0.787D-02 0.347D-02-0.332D-02
 Coeff-Com: -0.185D-01 0.179D-01 0.279D-01-0.514D-01-0.193D-01 0.156D+00
 Coeff-Com: -0.210D+00 0.873D-01-0.776D-02 0.941D+00-0.369D+01 0.377D+01
 Coeff:      0.791D-02-0.876D-02-0.641D-02 0.787D-02 0.347D-02-0.332D-02
 Coeff:     -0.185D-01 0.179D-01 0.279D-01-0.514D-01-0.193D-01 0.156D+00
 Coeff:     -0.210D+00 0.873D-01-0.776D-02 0.941D+00-0.369D+01 0.377D+01
 Gap=     0.231 Goal=   None    Shift=    0.500
 Gap=     0.259 Goal=   None    Shift=    0.500
 RMSDP=1.60D-06 MaxDP=4.07D-05 DE=-6.18D-09 OVMax= 1.00D-04

 Cycle  30  Pass 1  IDiag  1:
 E= -193.312381719736     Delta-E=       -0.000000002975 Rises=F Damp=F
 DIIS: error= 6.69D-06 at cycle  30 NSaved=  19.
 NSaved=19 IEnMin=19 EnMin= -193.312381719736     IErMin=19 ErrMin= 6.69D-06
 ErrMax= 6.69D-06  0.00D+00 EMaxC= 1.00D+00 BMatC= 9.02D-10 BMatP= 2.14D-09
 IDIUse=1 WtCom= 1.00D+00 WtEn= 0.00D+00
 Coeff-Com: -0.153D-01 0.223D-01 0.228D-02-0.993D-02-0.451D-02 0.742D-02
 Coeff-Com:  0.189D-02-0.643D-02-0.536D-02 0.302D-01-0.220D-01-0.350D-01
 Coeff-Com:  0.946D-01-0.122D+00-0.185D+00 0.257D+00 0.973D+00-0.337D+01
 Coeff-Com:  0.339D+01
 Coeff:     -0.153D-01 0.223D-01 0.228D-02-0.993D-02-0.451D-02 0.742D-02
 Coeff:      0.189D-02-0.643D-02-0.536D-02 0.302D-01-0.220D-01-0.350D-01
 Coeff:      0.946D-01-0.122D+00-0.185D+00 0.257D+00 0.973D+00-0.337D+01
 Coeff:      0.339D+01
 Gap=     0.231 Goal=   None    Shift=    0.500
 Gap=     0.259 Goal=   None    Shift=    0.500
 RMSDP=6.29D-07 MaxDP=1.87D-05 DE=-2.98D-09 OVMax= 3.93D-05

 SCF Done:  E(ULC-wHPBE) =  -193.312381720     A.U. after   30 cycles
            NFock= 30  Conv=0.63D-06     -V/T= 2.0082
 <Sx>= 0.0000 <Sy>= 0.0000 <Sz>= 0.5000 <S**2>= 0.9239 S= 0.5835
 <L.S>= 0.000000000000E+00
 KE= 1.917386203018D+02 PE=-7.299866346492D+02 EE= 1.999137328346D+02
 Annihilation of the first spin contaminant:
 S**2 before annihilation     0.9239,   after     0.7716
 Leave Link  502 at Tue Feb 25 12:20:32 2020, MaxMem=  6710886400 cpu:              35.8 elap:               2.3
 (Enter /opt/ohpc/pub/libs/gaussian/g16-A.03/haswell/g16/l508.exe)
 QCSCF skips out because SCF is already converged.
 Leave Link  508 at Tue Feb 25 12:20:32 2020, MaxMem=  6710886400 cpu:               0.0 elap:               0.0
 (Enter /opt/ohpc/pub/libs/gaussian/g16-A.03/haswell/g16/l601.exe)
 Copying SCF densities to generalized density rwf, IOpCl= 1 IROHF=0.

 **********************************************************************

            Population analysis using the SCF density.

 **********************************************************************

 Orbital symmetries:
 Alpha Orbitals:
       Occupied  (B2) (A1) (B2) (A1) (A1) (A1) (B2) (A1) (B2) (A1)
                 (A1) (B2) (B2) (A1) (B1) (A1) (A2) (B1)
       Virtual   (B2) (A1) (A2) (B1) (A1) (B2) (A1) (B2) (A1) (A1)
                 (B2) (A1) (B2) (B1) (B2) (B1) (A1) (A2) (A1) (B2)
                 (A1) (A2) (A1) (B1) (B2) (A1) (B2) (A1) (B2) (A1)
                 (A1) (A1) (B2) (A1) (B2) (B2) (A1) (A1) (B2)
 Beta  Orbitals:
       Occupied  (B2) (A1) (B2) (A1) (A1) (A1) (B2) (A1) (B2) (A1)
                 (A1) (B2) (B2) (A1) (A1) (B1) (A2)
       Virtual   (A1) (B2) (B1) (A2) (B1) (A1) (B2) (A1) (B2) (A1)
                 (A1) (B2) (A1) (B2) (B1) (B2) (A1) (A2) (B1) (A1)
                 (B2) (A1) (A2) (A1) (B2) (B1) (A1) (B2) (A1) (B2)
                 (A1) (A1) (A1) (B2) (A1) (B2) (B2) (A1) (A1) (B2)
 The electronic state is 2-B1.
 Alpha  occ. eigenvalues --  -10.35528 -10.35526 -10.27930 -10.27930 -10.27167
 Alpha  occ. eigenvalues --   -1.14153  -1.05436  -0.99006  -0.88548  -0.81750
 Alpha  occ. eigenvalues --   -0.81092  -0.74049  -0.69506  -0.67250  -0.66817
 Alpha  occ. eigenvalues --   -0.63709  -0.57585  -0.50571
 Alpha virt. eigenvalues --   -0.27467  -0.25979  -0.14498  -0.03866  -0.00142
 Alpha virt. eigenvalues --    0.03802   0.07214   0.08635   0.09991   0.18040
 Alpha virt. eigenvalues --    0.19348   0.27324   0.28837   0.37436   0.39917
 Alpha virt. eigenvalues --    0.47281   0.47345   0.47582   0.49853   0.51077
 Alpha virt. eigenvalues --    0.53025   0.54597   0.55632   0.57367   0.57844
 Alpha virt. eigenvalues --    0.68709   0.72247   0.73953   0.77673   0.77713
 Alpha virt. eigenvalues --    0.83305   0.84958   0.86892   0.92962   1.00001
 Alpha virt. eigenvalues --    1.04667   1.09398   1.32019   1.32653
  Beta  occ. eigenvalues --  -10.34606 -10.34602 -10.28278 -10.28277 -10.26367
  Beta  occ. eigenvalues --   -1.13257  -1.04788  -0.96558  -0.87611  -0.81341
  Beta  occ. eigenvalues --   -0.80301  -0.73577  -0.69213  -0.66645  -0.64387
  Beta  occ. eigenvalues --   -0.63802  -0.55187
  Beta virt. eigenvalues --   -0.29280  -0.23661  -0.23570  -0.11651  -0.01387
  Beta virt. eigenvalues --    0.00121   0.04116   0.07716   0.08730   0.10428
  Beta virt. eigenvalues --    0.18653   0.19821   0.27838   0.29081   0.40158
  Beta virt. eigenvalues --    0.40462   0.47883   0.49027   0.49331   0.50486
  Beta virt. eigenvalues --    0.51617   0.53334   0.55257   0.57433   0.58644
  Beta virt. eigenvalues --    0.58679   0.65169   0.72688   0.73430   0.77766
  Beta virt. eigenvalues --    0.78609   0.83722   0.85178   0.87351   0.94265
  Beta virt. eigenvalues --    1.00232   1.05316   1.09975   1.32779   1.33895
          Condensed to atoms (all electrons):
               1          2          3          4          5          6
     1  C    5.179002   0.512126  -0.061429  -0.041841   0.138837   0.100172
     2  C    0.512126   4.949137   0.494557  -0.059417  -0.041841  -0.003216
     3  C   -0.061429   0.494557   4.845588   0.494557  -0.061429   0.000346
     4  C   -0.041841  -0.059417   0.494557   4.949137   0.512126  -0.003216
     5  C    0.138837  -0.041841  -0.061429   0.512126   5.179002   0.100172
     6  H    0.100172  -0.003216   0.000346  -0.003216   0.100172   0.534127
     7  H    0.348184  -0.028179   0.002586   0.000733  -0.002732  -0.004961
     8  H   -0.024600   0.354411  -0.010602   0.003331   0.000434   0.000106
     9  H    0.004337  -0.029057   0.368551  -0.029057   0.004337  -0.000002
    10  H    0.000434   0.003331  -0.010602   0.354411  -0.024600   0.000106
    11  H   -0.002732   0.000733   0.002586  -0.028179   0.348184  -0.004961
               7          8          9         10         11
     1  C    0.348184  -0.024600   0.004337   0.000434  -0.002732
     2  C   -0.028179   0.354411  -0.029057   0.003331   0.000733
     3  C    0.002586  -0.010602   0.368551  -0.010602   0.002586
     4  C    0.000733   0.003331  -0.029057   0.354411  -0.028179
     5  C   -0.002732   0.000434   0.004337  -0.024600   0.348184
     6  H   -0.004961   0.000106  -0.000002   0.000106  -0.004961
     7  H    0.403522   0.000580  -0.000090  -0.000007   0.000020
     8  H    0.000580   0.384699  -0.002753  -0.000058  -0.000007
     9  H   -0.000090  -0.002753   0.442654  -0.002753  -0.000090
    10  H   -0.000007  -0.000058  -0.002753   0.384699   0.000580
    11  H    0.000020  -0.000007  -0.000090   0.000580   0.403522
          Atomic-Atomic Spin Densities.
               1          2          3          4          5          6
     1  C    0.725118  -0.034643  -0.021359  -0.010466   0.051228  -0.012122
     2  C   -0.034643  -0.300486   0.012892   0.005657  -0.010466  -0.000514
     3  C   -0.021359   0.012892   0.649511   0.012892  -0.021359   0.000002
     4  C   -0.010466   0.005657   0.012892  -0.300486  -0.034643  -0.000514
     5  C    0.051228  -0.010466  -0.021359  -0.034643   0.725118  -0.012122
     6  H   -0.012122  -0.000514   0.000002  -0.000514  -0.012122  -0.275972
     7  H   -0.007385   0.001876  -0.000066   0.000034  -0.000212   0.002243
     8  H   -0.001865   0.004084  -0.001060  -0.000176   0.000194  -0.000013
     9  H   -0.000001   0.000061  -0.001310   0.000061  -0.000001   0.000000
    10  H    0.000194  -0.000176  -0.001060   0.004084  -0.001865  -0.000013
    11  H   -0.000212   0.000034  -0.000066   0.001876  -0.007385   0.002243
               7          8          9         10         11
     1  C   -0.007385  -0.001865  -0.000001   0.000194  -0.000212
     2  C    0.001876   0.004084   0.000061  -0.000176   0.000034
     3  C   -0.000066  -0.001060  -0.001310  -0.001060  -0.000066
     4  C    0.000034  -0.000176   0.000061   0.004084   0.001876
     5  C   -0.000212   0.000194  -0.000001  -0.001865  -0.007385
     6  H    0.002243  -0.000013   0.000000  -0.000013   0.002243
     7  H   -0.030892   0.000063   0.000005  -0.000000  -0.000006
     8  H    0.000063   0.014427   0.000046   0.000006  -0.000000
     9  H    0.000005   0.000046  -0.027487   0.000046   0.000005
    10  H   -0.000000   0.000006   0.000046   0.014427   0.000063
    11  H   -0.000006  -0.000000   0.000005   0.000063  -0.030892
 Mulliken charges and spin densities:
               1          2
     1  C   -0.152489   0.688487
     2  C   -0.152586  -0.321682
     3  C   -0.064709   0.629017
     4  C   -0.152586  -0.321682
     5  C   -0.152489   0.688487
     6  H    0.281328  -0.296782
     7  H    0.280343  -0.034341
     8  H    0.294460   0.015706
     9  H    0.243924  -0.028574
    10  H    0.294460   0.015706
    11  H    0.280343  -0.034341
 Sum of Mulliken charges =   1.00000   1.00000
 Mulliken charges and spin densities with hydrogens summed into heavy atoms:
               1          2
     1  C    0.409183   0.357364
     2  C    0.141874  -0.305976
     3  C    0.179214   0.600443
     4  C    0.141874  -0.305976
     5  C    0.127855   0.654146
 Electronic spatial extent (au):  <R**2>=            374.8626
 Charge=              1.0000 electrons
 Dipole moment (field-independent basis, Debye):
    X=             -0.0000    Y=              0.0000    Z=             -2.7488  Tot=              2.7488
 Quadrupole moment (field-independent basis, Debye-Ang):
   XX=            -32.5408   YY=            -13.1678   ZZ=            -10.5083
   XY=              0.0000   XZ=              0.0000   YZ=             -0.0000
 Traceless Quadrupole moment (field-independent basis, Debye-Ang):
   XX=            -13.8018   YY=              5.5711   ZZ=              8.2307
   XY=              0.0000   XZ=              0.0000   YZ=             -0.0000
 Octapole moment (field-independent basis, Debye-Ang**2):
  XXX=              0.0000  YYY=              0.0000  ZZZ=            -22.3227  XYY=             -0.0000
  XXY=              0.0000  XXZ=              1.6038  XZZ=              0.0000  YZZ=              0.0000
  YYZ=             -3.2449  XYZ=             -0.0000
 Hexadecapole moment (field-independent basis, Debye-Ang**3):
 XXXX=            -33.2202 YYYY=           -180.3583 ZZZZ=            -97.6008 XXXY=             -0.0000
 XXXZ=             -0.0000 YYYX=             -0.0000 YYYZ=              0.0000 ZZZX=             -0.0000
 ZZZY=              0.0000 XXYY=            -55.3496 XXZZ=            -44.3942 YYZZ=            -50.9157
 XXYZ=              0.0000 YYXZ=              0.0000 ZZXY=             -0.0000
 N-N= 1.450218997931D+02 E-N=-7.299865836284D+02  KE= 1.917386203018D+02
 Symmetry A1   KE= 1.107564210135D+02
 Symmetry A2   KE= 2.409459256599D+00
 Symmetry B1   KE= 3.299550178712D+00
 Symmetry B2   KE= 7.527318985291D+01
 Symmetry A1   SP= 7.948015735162D-15
 Symmetry A2   SP= 4.768785508551D-15
 Symmetry B1   SP= 1.000000000000D+00
 Symmetry B2   SP=-8.232932814653D-15
                          Isotropic Fermi Contact Couplings
        Atom                 a.u.       MegaHertz       Gauss      10(-4) cm-1
     1  C(13)              0.12409     139.50009      49.77710      46.53222
     2  C(13)             -0.05123     -57.59274     -20.55052     -19.21087
     3  C(13)              0.09445     106.17599      37.88623      35.41650
     4  C(13)             -0.05123     -57.59274     -20.55052     -19.21087
     5  C(13)              0.12409     139.50009      49.77710      46.53222
     6  H(1)              -0.10015    -447.67896    -159.74298    -149.32963
     7  H(1)              -0.01273     -56.88505     -20.29800     -18.97481
     8  H(1)               0.00649      29.01456      10.35312       9.67822
     9  H(1)              -0.01030     -46.02607     -16.42325     -15.35264
    10  H(1)               0.00649      29.01456      10.35312       9.67822
    11  H(1)              -0.01273     -56.88505     -20.29800     -18.97481
 --------------------------------------------------------
       Center         ----  Spin Dipole Couplings  ----
                      3XX-RR        3YY-RR        3ZZ-RR
 --------------------------------------------------------
     1   Atom        0.503496     -0.211880     -0.291617
     2   Atom       -0.252301      0.099660      0.152641
     3   Atom        0.599646     -0.321548     -0.278098
     4   Atom       -0.252301      0.099660      0.152641
     5   Atom        0.503496     -0.211880     -0.291617
     6   Atom       -0.014986     -0.005334      0.020320
     7   Atom       -0.011929      0.033094     -0.021165
     8   Atom       -0.007952      0.000601      0.007351
     9   Atom       -0.006038     -0.039794      0.045832
    10   Atom       -0.007952      0.000601      0.007351
    11   Atom       -0.011929      0.033094     -0.021165
 --------------------------------------------------------
                        XY            XZ            YZ
 --------------------------------------------------------
     1   Atom        0.000000      0.000000      0.082047
     2   Atom       -0.000000      0.000000     -0.000762
     3   Atom       -0.000000      0.000000     -0.000000
     4   Atom       -0.000000     -0.000000      0.000762
     5   Atom        0.000000      0.000000     -0.082047
     6   Atom        0.000000     -0.000000      0.000000
     7   Atom        0.000000      0.000000     -0.040368
     8   Atom        0.000000      0.000000     -0.008436
     9   Atom       -0.000000     -0.000000     -0.000000
    10   Atom        0.000000     -0.000000      0.008436
    11   Atom       -0.000000      0.000000      0.040368
 --------------------------------------------------------


 ---------------------------------------------------------------------------------
              Anisotropic Spin Dipole Couplings in Principal Axis System
 ---------------------------------------------------------------------------------

       Atom             a.u.   MegaHertz   Gauss  10(-4) cm-1        Axes

              Baa    -0.3430   -46.023   -16.422   -15.352 -0.0000 -0.5305  0.8477
     1 C(13)  Bbb    -0.1605   -21.541    -7.686    -7.185  0.0000  0.8477  0.5305
              Bcc     0.5035    67.564    24.109    22.537  1.0000 -0.0000  0.0000
 
              Baa    -0.2523   -33.856   -12.081   -11.293  1.0000  0.0000 -0.0000
     2 C(13)  Bbb     0.0996    13.372     4.771     4.460 -0.0000  0.9999  0.0144
              Bcc     0.1527    20.484     7.309     6.833  0.0000 -0.0144  0.9999
 
              Baa    -0.3215   -43.149   -15.397   -14.393  0.0000  1.0000  0.0000
     3 C(13)  Bbb    -0.2781   -37.318   -13.316   -12.448  0.0000  0.0000  1.0000
              Bcc     0.5996    80.467    28.713    26.841  1.0000  0.0000  0.0000
 
              Baa    -0.2523   -33.856   -12.081   -11.293  1.0000  0.0000  0.0000
     4 C(13)  Bbb     0.0996    13.372     4.771     4.460 -0.0000  0.9999 -0.0144
              Bcc     0.1527    20.484     7.309     6.833 -0.0000  0.0144  0.9999
 
              Baa    -0.3430   -46.023   -16.422   -15.352 -0.0000  0.5305  0.8477
     5 C(13)  Bbb    -0.1605   -21.541    -7.686    -7.185 -0.0000  0.8477 -0.5305
              Bcc     0.5035    67.564    24.109    22.537  1.0000  0.0000  0.0000
 
              Baa    -0.0150    -7.996    -2.853    -2.667  1.0000 -0.0000  0.0000
     6 H(1)   Bbb    -0.0053    -2.846    -1.016    -0.949  0.0000  1.0000 -0.0000
              Bcc     0.0203    10.842     3.869     3.616 -0.0000  0.0000  1.0000
 
              Baa    -0.0427   -22.768    -8.124    -7.595 -0.0000  0.4702  0.8826
     7 H(1)   Bbb    -0.0119    -6.365    -2.271    -2.123  1.0000  0.0000  0.0000
              Bcc     0.0546    29.133    10.395     9.718 -0.0000  0.8826 -0.4702
 
              Baa    -0.0080    -4.243    -1.514    -1.415  1.0000  0.0000  0.0000
     8 H(1)   Bbb    -0.0051    -2.727    -0.973    -0.910 -0.0000  0.8281  0.5606
              Bcc     0.0131     6.969     2.487     2.325  0.0000 -0.5606  0.8281
 
              Baa    -0.0398   -21.232    -7.576    -7.082 -0.0000  1.0000 -0.0000
     9 H(1)   Bbb    -0.0060    -3.222    -1.150    -1.075  1.0000  0.0000 -0.0000
              Bcc     0.0458    24.454     8.726     8.157  0.0000  0.0000  1.0000
 
              Baa    -0.0080    -4.243    -1.514    -1.415  1.0000 -0.0000  0.0000
    10 H(1)   Bbb    -0.0051    -2.727    -0.973    -0.910  0.0000  0.8281 -0.5606
              Bcc     0.0131     6.969     2.487     2.325  0.0000  0.5606  0.8281
 
              Baa    -0.0427   -22.768    -8.124    -7.595 -0.0000 -0.4702  0.8826
    11 H(1)   Bbb    -0.0119    -6.365    -2.271    -2.123  1.0000 -0.0000  0.0000
              Bcc     0.0546    29.133    10.395     9.718  0.0000  0.8826  0.4702
 

 ---------------------------------------------------------------------------------

 No NMR shielding tensors so no spin-rotation constants.
 Leave Link  601 at Tue Feb 25 12:20:32 2020, MaxMem=  6710886400 cpu:               4.9 elap:               0.3
 (Enter /opt/ohpc/pub/libs/gaussian/g16-A.03/haswell/g16/l9999.exe)

 Test job not archived.
 1\1\GINC-HASWELL008\SP\ULC-wHPBE\6-31G\C5H6(1+,2)\SMGO234\25-Feb-2020\
 0\\#P uLC-wHPBE/6-31G iop(3/107=0272500000, 3/108=0272500000) scf=(con
 ver=6,fermi,ndamp=35,noincfock,novaracc,vshift=500,xqc)\\H6 C5\\1,2\C,
 0,-1.206512,0.69658,0.\C,0,-1.206512,-0.69658,0.\C,0,0.,-1.39316,0.\C,
 0,1.206512,-0.69658,0.\C,0,1.206512,0.69658,0.\H,0,0.,2.482681,0.\H,0,
 -2.150065,1.24134,0.\H,0,-2.150065,-1.24134,0.\H,0,0.,-2.482681,0.\H,0
 ,2.150065,-1.24134,0.\H,0,2.150065,1.24134,0.\\Version=ES64L-G16RevA.0
 3\State=2-B1\HF=-193.3123817\S2=0.923899\S2-1=0.\S2A=0.771637\RMSD=6.2
 88e-07\Dipole=0.,1.0814464,0.\Quadrupole=4.1420095,6.119309,-10.261318
 4,0.,0.,0.\PG=C02V [C2(H1C1H1),SGV(C4H4)]\\@


 IT IS A SIMPLE TASK TO MAKE THINGS COMPLEX,
 BUT A COMPLEX TASK TO MAKE THEM SIMPLE.
 Job cpu time:       0 days  0 hours  1 minutes  2.8 seconds.
 Elapsed time:       0 days  0 hours  0 minutes  4.2 seconds.
 File lengths (MBytes):  RWF=    272 Int=      0 D2E=      0 Chk=     32 Scr=     32
 Normal termination of Gaussian 16 at Tue Feb 25 12:20:32 2020.
