 Entering Gaussian System, Link 0=g16
 Input=1b_tune_c5.gjf
 Output=1b_tune_c5.log
 Initial command:
 /opt/ohpc/pub/libs/gaussian/g16-A.03/haswell/g16/l1.exe "/scratch/smgo234/Ocelot/test/1b/tuning_1b_ocycle0/Gau-34415.inp" -scrdir="/scratch/smgo234/Ocelot/test/1b/tuning_1b_ocycle0/"
 Entering Link 1 = /opt/ohpc/pub/libs/gaussian/g16-A.03/haswell/g16/l1.exe PID=     34416.
  
 Copyright (c) 1988,1990,1992,1993,1995,1998,2003,2009,2016,
            Gaussian, Inc.  All Rights Reserved.
  
 This is part of the Gaussian(R) 16 program.  It is based on
 the Gaussian(R) 09 system (copyright 2009, Gaussian, Inc.),
 the Gaussian(R) 03 system (copyright 2003, Gaussian, Inc.),
 the Gaussian(R) 98 system (copyright 1998, Gaussian, Inc.),
 the Gaussian(R) 94 system (copyright 1995, Gaussian, Inc.),
 the Gaussian 92(TM) system (copyright 1992, Gaussian, Inc.),
 the Gaussian 90(TM) system (copyright 1990, Gaussian, Inc.),
 the Gaussian 88(TM) system (copyright 1988, Gaussian, Inc.),
 the Gaussian 86(TM) system (copyright 1986, Carnegie Mellon
 University), and the Gaussian 82(TM) system (copyright 1983,
 Carnegie Mellon University). Gaussian is a federally registered
 trademark of Gaussian, Inc.
  
 This software contains proprietary and confidential information,
 including trade secrets, belonging to Gaussian, Inc.
  
 This software is provided under written license and may be
 used, copied, transmitted, or stored only in accord with that
 written license.
  
 The following legend is applicable only to US Government
 contracts under FAR:
  
                    RESTRICTED RIGHTS LEGEND
  
 Use, reproduction and disclosure by the US Government is
 subject to restrictions as set forth in subparagraphs (a)
 and (c) of the Commercial Computer Software - Restricted
 Rights clause in FAR 52.227-19.
  
 Gaussian, Inc.
 340 Quinnipiac St., Bldg. 40, Wallingford CT 06492
  
  
 ---------------------------------------------------------------
 Warning -- This program may not be used in any manner that
 competes with the business of Gaussian, Inc. or will provide
 assistance to any competitor of Gaussian, Inc.  The licensee
 of this program is prohibited from giving any competitor of
 Gaussian, Inc. access to this program.  By using this program,
 the user acknowledges that Gaussian, Inc. is engaged in the
 business of creating and licensing software in the field of
 computational chemistry and represents and warrants to the
 licensee that it is not a competitor of Gaussian, Inc. and that
 it will not use this program in any manner prohibited above.
 ---------------------------------------------------------------
  

 Cite this work as:
 Gaussian 16, Revision A.03,
 M. J. Frisch, G. W. Trucks, H. B. Schlegel, G. E. Scuseria, 
 M. A. Robb, J. R. Cheeseman, G. Scalmani, V. Barone, 
 G. A. Petersson, H. Nakatsuji, X. Li, M. Caricato, A. V. Marenich, 
 J. Bloino, B. G. Janesko, R. Gomperts, B. Mennucci, H. P. Hratchian, 
 J. V. Ortiz, A. F. Izmaylov, J. L. Sonnenberg, D. Williams-Young, 
 F. Ding, F. Lipparini, F. Egidi, J. Goings, B. Peng, A. Petrone, 
 T. Henderson, D. Ranasinghe, V. G. Zakrzewski, J. Gao, N. Rega, 
 G. Zheng, W. Liang, M. Hada, M. Ehara, K. Toyota, R. Fukuda, 
 J. Hasegawa, M. Ishida, T. Nakajima, Y. Honda, O. Kitao, H. Nakai, 
 T. Vreven, K. Throssell, J. A. Montgomery, Jr., J. E. Peralta, 
 F. Ogliaro, M. J. Bearpark, J. J. Heyd, E. N. Brothers, K. N. Kudin, 
 V. N. Staroverov, T. A. Keith, R. Kobayashi, J. Normand, 
 K. Raghavachari, A. P. Rendell, J. C. Burant, S. S. Iyengar, 
 J. Tomasi, M. Cossi, J. M. Millam, M. Klene, C. Adamo, R. Cammi, 
 J. W. Ochterski, R. L. Martin, K. Morokuma, O. Farkas, 
 J. B. Foresman, and D. J. Fox, Gaussian, Inc., Wallingford CT, 2016.
 
 ******************************************
 Gaussian 16:  ES64L-G16RevA.03 25-Dec-2016
                25-Feb-2020 
 ******************************************
 %mem=50GB
 %nproc=16
 Will use up to   16 processors via shared memory.
 ----------------------------------------------------------------------
 #P uLC-wHPBE/6-31G iop(3/107=0255700000, 3/108=0255700000) scf=(conver
 =6,fermi,ndamp=35,noincfock,novaracc,vshift=500,xqc)
 ----------------------------------------------------------------------
 1/38=1,172=1/1;
 2/12=2,17=6,18=5,40=1/2;
 3/5=1,6=6,11=2,25=1,30=1,74=-71,107=255700000,108=255700000,116=2/1,2,3;
 4//1;
 5/5=100002,6=6,8=3,10=500,13=1,18=-1,22=13,38=1,93=35/2,8;
 6/7=2,8=2,9=2,10=2,28=1/1;
 99/5=1,9=1/99;
 Leave Link    1 at Tue Feb 25 12:20:05 2020, MaxMem=  6710886400 cpu:               9.9 elap:               0.7
 (Enter /opt/ohpc/pub/libs/gaussian/g16-A.03/haswell/g16/l101.exe)
 -----
 H6 C5
 -----
 Symbolic Z-matrix:
 Charge =  1 Multiplicity = 2
 C                    -1.20651   0.69658   0. 
 C                    -1.20651  -0.69658   0. 
 C                     0.       -1.39316   0. 
 C                     1.20651  -0.69658   0. 
 C                     1.20651   0.69658   0. 
 H                     0.        2.48268   0. 
 H                    -2.15007   1.24134   0. 
 H                    -2.15007  -1.24134   0. 
 H                     0.       -2.48268   0. 
 H                     2.15007  -1.24134   0. 
 H                     2.15007   1.24134   0. 
 
 ITRead=  0  0  0  0  0  0  0  0  0  0  0
 MicOpt= -1 -1 -1 -1 -1 -1 -1 -1 -1 -1 -1
 NAtoms=     11 NQM=       11 NQMF=       0 NMMI=      0 NMMIF=      0
                NMic=       0 NMicF=      0.
                    Isotopes and Nuclear Properties:
 (Nuclear quadrupole moments (NQMom) in fm**2, nuclear magnetic moments (NMagM)
  in nuclear magnetons)

  Atom         1           2           3           4           5           6           7           8           9          10
 IAtWgt=          12          12          12          12          12           1           1           1           1           1
 AtmWgt=  12.0000000  12.0000000  12.0000000  12.0000000  12.0000000   1.0078250   1.0078250   1.0078250   1.0078250   1.0078250
 NucSpn=           0           0           0           0           0           1           1           1           1           1
 AtZEff=  -0.0000000  -0.0000000  -0.0000000  -0.0000000  -0.0000000  -0.0000000  -0.0000000  -0.0000000  -0.0000000  -0.0000000
 NQMom=    0.0000000   0.0000000   0.0000000   0.0000000   0.0000000   0.0000000   0.0000000   0.0000000   0.0000000   0.0000000
 NMagM=    0.0000000   0.0000000   0.0000000   0.0000000   0.0000000   2.7928460   2.7928460   2.7928460   2.7928460   2.7928460
 AtZNuc=   6.0000000   6.0000000   6.0000000   6.0000000   6.0000000   1.0000000   1.0000000   1.0000000   1.0000000   1.0000000

  Atom        11
 IAtWgt=           1
 AtmWgt=   1.0078250
 NucSpn=           1
 AtZEff=  -0.0000000
 NQMom=    0.0000000
 NMagM=    2.7928460
 AtZNuc=   1.0000000
 Leave Link  101 at Tue Feb 25 12:20:05 2020, MaxMem=  6710886400 cpu:               2.2 elap:               0.2
 (Enter /opt/ohpc/pub/libs/gaussian/g16-A.03/haswell/g16/l202.exe)
                          Input orientation:                          
 ---------------------------------------------------------------------
 Center     Atomic      Atomic             Coordinates (Angstroms)
 Number     Number       Type             X           Y           Z
 ---------------------------------------------------------------------
      1          6           0       -1.206512    0.696580    0.000000
      2          6           0       -1.206512   -0.696580    0.000000
      3          6           0        0.000000   -1.393160    0.000000
      4          6           0        1.206512   -0.696580    0.000000
      5          6           0        1.206512    0.696580    0.000000
      6          1           0        0.000000    2.482681    0.000000
      7          1           0       -2.150065    1.241340    0.000000
      8          1           0       -2.150065   -1.241340    0.000000
      9          1           0        0.000000   -2.482681    0.000000
     10          1           0        2.150065   -1.241340    0.000000
     11          1           0        2.150065    1.241340    0.000000
 ---------------------------------------------------------------------
                    Distance matrix (angstroms):
                    1          2          3          4          5
     1  C    0.000000
     2  C    1.393160   0.000000
     3  C    2.413024   1.393160   0.000000
     4  C    2.786320   2.413024   1.393160   0.000000
     5  C    2.413024   2.786320   2.413024   1.393160   0.000000
     6  H    2.155418   3.400496   3.875841   3.400496   2.155418
     7  H    1.089521   2.155418   3.400496   3.875841   3.400496
     8  H    2.155418   1.089521   2.155418   3.400496   3.875841
     9  H    3.400496   2.155418   1.089521   2.155418   3.400496
    10  H    3.875841   3.400496   2.155418   1.089521   2.155418
    11  H    3.400496   3.875841   3.400496   2.155418   1.089521
                    6          7          8          9         10
     6  H    0.000000
     7  H    2.482681   0.000000
     8  H    4.300129   2.482680   0.000000
     9  H    4.965362   4.300129   2.482681   0.000000
    10  H    4.300129   4.965362   4.300130   2.482681   0.000000
    11  H    2.482681   4.300130   4.965362   4.300129   2.482680
                   11
    11  H    0.000000
 Stoichiometry    C5H6(1+,2)
 Framework group  C2V[C2(HCH),SGV(C4H4)]
 Deg. of freedom    10
 Full point group                 C2V     NOp   4
 Largest Abelian subgroup         C2V     NOp   4
 Largest concise Abelian subgroup C2      NOp   2
                         Standard orientation:                         
 ---------------------------------------------------------------------
 Center     Atomic      Atomic             Coordinates (Angstroms)
 Number     Number       Type             X           Y           Z
 ---------------------------------------------------------------------
      1          6           0       -0.000000    1.206512   -0.928773
      2          6           0       -0.000000    1.206512    0.464387
      3          6           0        0.000000    0.000000    1.160967
      4          6           0       -0.000000   -1.206512    0.464387
      5          6           0       -0.000000   -1.206512   -0.928773
      6          1           0       -0.000000   -0.000000   -2.714874
      7          1           0       -0.000000    2.150065   -1.473533
      8          1           0       -0.000000    2.150065    1.009147
      9          1           0        0.000000    0.000000    2.250488
     10          1           0       -0.000000   -2.150065    1.009147
     11          1           0       -0.000000   -2.150065   -1.473533
 ---------------------------------------------------------------------
 Rotational constants (GHZ):           8.2868568           5.7099792           3.3806054
 Leave Link  202 at Tue Feb 25 12:20:05 2020, MaxMem=  6710886400 cpu:               0.2 elap:               0.0
 (Enter /opt/ohpc/pub/libs/gaussian/g16-A.03/haswell/g16/l301.exe)
 Standard basis: 6-31G (6D, 7F)
 Ernie: Thresh=  0.10000D-02 Tol=  0.10000D-05 Strict=F.
 There are    27 symmetry adapted cartesian basis functions of A1  symmetry.
 There are     4 symmetry adapted cartesian basis functions of A2  symmetry.
 There are     6 symmetry adapted cartesian basis functions of B1  symmetry.
 There are    20 symmetry adapted cartesian basis functions of B2  symmetry.
 There are    27 symmetry adapted basis functions of A1  symmetry.
 There are     4 symmetry adapted basis functions of A2  symmetry.
 There are     6 symmetry adapted basis functions of B1  symmetry.
 There are    20 symmetry adapted basis functions of B2  symmetry.
    57 basis functions,   134 primitive gaussians,    57 cartesian basis functions
    18 alpha electrons       17 beta electrons
       nuclear repulsion energy       145.0218997931 Hartrees.
 IExCor=33909 DFT=T Ex+Corr=LC-wHPBE ExCW=0 ScaHFX=  1.000000
 ScaDFX=  1.000000  1.000000  1.000000  1.000000 ScalE2=  1.000000  1.000000
 IRadAn=      5 IRanWt=     -1 IRanGd=            0 ICorTp=0 IEmpDi=  4
 HFx  wShort=  0.000000 wLong=  0.255700 cFull=  0.000000 cShort=  0.000000 cLong=  1.000000
 DFx  wShort=  0.000000 wLong=  0.255700 cFull=  0.000000 cShort=  1.000000 cLong=  0.000000
 NAtoms=   11 NActive=   11 NUniq=    7 SFac= 2.47D+00 NAtFMM=   60 NAOKFM=F Big=F
 Integral buffers will be    131072 words long.
 Raffenetti 2 integral format.
 Two-electron integral symmetry is turned on.
 Leave Link  301 at Tue Feb 25 12:20:05 2020, MaxMem=  6710886400 cpu:               0.8 elap:               0.1
 (Enter /opt/ohpc/pub/libs/gaussian/g16-A.03/haswell/g16/l302.exe)
 NPDir=0 NMtPBC=     1 NCelOv=     1 NCel=       1 NClECP=     1 NCelD=      1
         NCelK=      1 NCelE2=     1 NClLst=     1 CellRange=     0.0.
 One-electron integrals computed using PRISM.
 One-electron integral symmetry used in STVInt
 NBasis=    57 RedAO= T EigKep=  2.88D-03  NBF=    27     4     6    20
 NBsUse=    57 1.00D-06 EigRej= -1.00D+00 NBFU=    27     4     6    20
 Precomputing XC quadrature grid using
 IXCGrd= 4 IRadAn=           5 IRanWt=          -1 IRanGd=           0 AccXCQ= 0.00D+00.
 Generated NRdTot=       0 NPtTot=           0 NUsed=           0 NTot=          32
 NSgBfM=    57    57    57    57    57 MxSgAt=    11 MxSgA2=    11.
 Leave Link  302 at Tue Feb 25 12:20:05 2020, MaxMem=  6710886400 cpu:               3.9 elap:               0.3
 (Enter /opt/ohpc/pub/libs/gaussian/g16-A.03/haswell/g16/l303.exe)
 DipDrv:  MaxL=1.
 Leave Link  303 at Tue Feb 25 12:20:05 2020, MaxMem=  6710886400 cpu:               0.4 elap:               0.1
 (Enter /opt/ohpc/pub/libs/gaussian/g16-A.03/haswell/g16/l401.exe)
 ExpMin= 1.61D-01 ExpMax= 3.05D+03 ExpMxC= 4.57D+02 IAcc=3 IRadAn=         5 AccDes= 0.00D+00
 Harris functional with IExCor=33909 and IRadAn=       5 diagonalized for initial guess.
 HarFok:  IExCor=33909 AccDes= 0.00D+00 IRadAn=         5 IDoV= 1 UseB2=F ITyADJ=14
 ICtDFT=  3500011 ScaDFX=  1.000000  1.000000  1.000000  1.000000
 FoFCou: FMM=F IPFlag=           0 FMFlag=      100000 FMFlg1=           0
         NFxFlg=           0 DoJE=T BraDBF=F KetDBF=T FulRan=T
         wScrn=  0.000000 ICntrl=       500 IOpCl=  0 I1Cent=   200000004 NGrid=           0
         NMat0=    1 NMatS0=      1 NMatT0=    0 NMatD0=    1 NMtDS0=    0 NMtDT0=    0
 Petite list used in FoFCou.
 Harris En= -188.720948860659    
 JPrj=0 DoOrth=F DoCkMO=F.
 Initial guess orbital symmetries:
 Alpha Orbitals:
       Occupied  (A1) (B2) (A1) (B2) (A1) (A1) (B2) (A1) (B2) (A1)
                 (A1) (B2) (B2) (A1) (B1) (A1) (A2) (B1)
       Virtual   (B2) (A1) (A2) (B1) (A1) (B2) (A1) (B2) (A1) (A1)
                 (B2) (A1) (B2) (B1) (B2) (A1) (B1) (A1) (A2) (B2)
                 (A1) (A2) (B1) (B2) (A1) (A1) (B2) (A1) (B2) (A1)
                 (A1) (B2) (A1) (A1) (B2) (B2) (A1) (A1) (B2)
 Beta  Orbitals:
       Occupied  (A1) (B2) (A1) (B2) (A1) (A1) (B2) (A1) (B2) (A1)
                 (A1) (B2) (B2) (A1) (B1) (A1) (A2)
       Virtual   (B1) (B2) (A1) (A2) (B1) (A1) (B2) (A1) (B2) (A1)
                 (A1) (B2) (A1) (B2) (B1) (B2) (A1) (B1) (A1) (A2)
                 (B2) (A1) (A2) (B1) (B2) (A1) (A1) (B2) (A1) (B2)
                 (A1) (A1) (B2) (A1) (A1) (B2) (B2) (A1) (A1) (B2)
 The electronic state of the initial guess is 2-B1.
 Initial guess <Sx>= 0.0000 <Sy>= 0.0000 <Sz>= 0.5000 <S**2>= 0.7500 S= 0.5000
 Leave Link  401 at Tue Feb 25 12:20:06 2020, MaxMem=  6710886400 cpu:               4.4 elap:               0.3
 (Enter /opt/ohpc/pub/libs/gaussian/g16-A.03/haswell/g16/l502.exe)
 Keep R1 and R2 ints in memory in symmetry-blocked form, NReq=16815659.
 FoFCou: FMM=F IPFlag=           0 FMFlag=           0 FMFlg1=           0
         NFxFlg=           0 DoJE=F BraDBF=F KetDBF=F FulRan=T
         wScrn=  0.000000 ICntrl=       600 IOpCl=  0 I1Cent=           0 NGrid=           0
         NMat0=    1 NMatS0=   1653 NMatT0=    0 NMatD0=    1 NMtDS0=    0 NMtDT0=    0
 Petite list used in FoFCou.
 UHF open shell SCF:
 Using DIIS extrapolation, IDIIS=    10.
 NGot=  6710886400 LenX=  6710059583 LenY=  6710055893
 Requested convergence on RMS density matrix=1.00D-06 within  32 cycles.
 Requested convergence on MAX density matrix=1.00D-04.
 Requested convergence on             energy=1.00D-04.
 Virtual orbitals will be shifted by   0.500 hartree.
 No special actions if energy rises.
 Dynamic level shift is on during FON iterations.

 Cycle   1  Pass 1  IDiag  1:
 E= -193.187182413404    
 DIIS: error= 5.81D-02 at cycle   1 NSaved=   1.
 NSaved= 1 IEnMin= 1 EnMin= -193.187182413404     IErMin= 1 ErrMin= 5.81D-02
 ErrMax= 5.81D-02  0.00D+00 EMaxC= 1.00D+00 BMatC= 3.01D-01 BMatP= 3.01D-01
 IDIUse=1 WtCom= 1.00D+00 WtEn= 0.00D+00
 Coeff-Com:  0.100D+01
 Coeff:      0.100D+01
 Gap=     0.057 Goal=   None    Shift=    0.500
 T= 1893. Gap= 0.514 NK=0 IS=   19 IE=   57 IFin=   18
          NO(<0.9)=   0  NV(>0.1)=   0     18.00e < EF      0.00e >EF  Err=0.0D+00
 Gap=     0.081 Goal=   None    Shift=    0.500
 T= 1893. Gap= 0.588 NK=0 IS=   18 IE=   57 IFin=   17
          NO(<0.9)=   0  NV(>0.1)=   0     17.00e < EF      0.00e >EF  Err=0.0D+00
 GapD=    0.057 DampG=0.500 DampE=0.500 DampFc=0.2500 IDamp=-1.
 Damping current iteration by 2.50D-01
 RMSDP=7.80D-03 MaxDP=6.01D-02              OVMax= 1.25D-01

 Cycle   2  Pass 1  IDiag  1:
 E= -193.225360171609     Delta-E=       -0.038177758205 Rises=F Damp=T
 DIIS: error= 4.25D-02 at cycle   2 NSaved=   2.
 NSaved= 2 IEnMin= 2 EnMin= -193.225360171609     IErMin= 2 ErrMin= 4.25D-02
 ErrMax= 4.25D-02  0.00D+00 EMaxC= 1.00D+00 BMatC= 1.46D-01 BMatP= 3.01D-01
 IDIUse=1 WtCom= 1.00D+00 WtEn= 0.00D+00
 Coeff-Com: -0.200D+01 0.300D+01
 Coeff:     -0.200D+01 0.300D+01
 Gap=     0.160 Goal=   None    Shift=    0.500
 T= 1837. Gap= 0.639 NK=4 IS=   19 IE=   24 IFin=   18
          NO(<0.9)=   0  NV(>0.1)=   0     18.00e < EF      0.00e >EF  Err=0.0D+00
 Gap=     0.192 Goal=   None    Shift=    0.500
 T= 1837. Gap= 0.694 NK=4 IS=   18 IE=   21 IFin=   17
          NO(<0.9)=   0  NV(>0.1)=   0     17.00e < EF      0.00e >EF  Err=0.0D+00
 GapD=    0.160 DampG=1.000 DampE=0.500 DampFc=0.5000 IDamp=-1.
 Damping current iteration by 5.00D-01
 RMSDP=6.29D-03 MaxDP=5.11D-02 DE=-3.82D-02 OVMax= 5.27D-02

 Cycle   3  Pass 1  IDiag  1:
 E= -193.271386579175     Delta-E=       -0.046026407566 Rises=F Damp=T
 DIIS: error= 2.26D-02 at cycle   3 NSaved=   3.
 NSaved= 3 IEnMin= 3 EnMin= -193.271386579175     IErMin= 3 ErrMin= 2.26D-02
 ErrMax= 2.26D-02  0.00D+00 EMaxC= 1.00D+00 BMatC= 3.14D-02 BMatP= 1.46D-01
 IDIUse=1 WtCom= 1.00D+00 WtEn= 0.00D+00
 Coeff-Com:  0.959D+00-0.247D+01 0.251D+01
 Coeff:      0.959D+00-0.247D+01 0.251D+01
 Gap=     0.190 Goal=   None    Shift=    0.500
 T= 1685. Gap= 0.690 NK=4 IS=   19 IE=   24 IFin=   18
          NO(<0.9)=   0  NV(>0.1)=   0     18.00e < EF      0.00e >EF  Err=0.0D+00
 Gap=     0.245 Goal=   None    Shift=    0.500
 T= 1685. Gap= 0.745 NK=4 IS=   18 IE=   21 IFin=   17
          NO(<0.9)=   0  NV(>0.1)=   0     17.00e < EF      0.00e >EF  Err=0.0D+00
 GapD=    0.190 DampG=1.000 DampE=0.500 DampFc=0.5000 IDamp=-1.
 Damping current iteration by 5.00D-01
 RMSDP=3.11D-03 MaxDP=2.50D-02 DE=-4.60D-02 OVMax= 2.18D-02

 Cycle   4  Pass 1  IDiag  1:
 E= -193.290295231851     Delta-E=       -0.018908652676 Rises=F Damp=T
 DIIS: error= 1.29D-02 at cycle   4 NSaved=   4.
 NSaved= 4 IEnMin= 4 EnMin= -193.290295231851     IErMin= 4 ErrMin= 1.29D-02
 ErrMax= 1.29D-02  0.00D+00 EMaxC= 1.00D+00 BMatC= 8.37D-03 BMatP= 3.14D-02
 IDIUse=1 WtCom= 1.00D+00 WtEn= 0.00D+00
 Coeff-Com:  0.339D+00-0.160D+00-0.206D+01 0.288D+01
 Coeff:      0.339D+00-0.160D+00-0.206D+01 0.288D+01
 Gap=     0.204 Goal=   None    Shift=    0.500
 T= 1410. Gap= 0.704 NK=4 IS=   19 IE=   24 IFin=   18
          NO(<0.9)=   0  NV(>0.1)=   0     18.00e < EF      0.00e >EF  Err=0.0D+00
 Gap=     0.257 Goal=   None    Shift=    0.500
 T= 1410. Gap= 0.758 NK=4 IS=   18 IE=   21 IFin=   17
          NO(<0.9)=   0  NV(>0.1)=   0     17.00e < EF      0.00e >EF  Err=0.0D+00
 GapD=    0.204 DampG=1.000 DampE=0.500 DampFc=0.5000 IDamp=-1.
 Damping current iteration by 5.00D-01
 RMSDP=1.71D-03 MaxDP=1.89D-02 DE=-1.89D-02 OVMax= 1.46D-02

 Cycle   5  Pass 1  IDiag  1:
 E= -193.299335713474     Delta-E=       -0.009040481623 Rises=F Damp=T
 DIIS: error= 8.45D-03 at cycle   5 NSaved=   5.
 NSaved= 5 IEnMin= 5 EnMin= -193.299335713474     IErMin= 5 ErrMin= 8.45D-03
 ErrMax= 8.45D-03  0.00D+00 EMaxC= 1.00D+00 BMatC= 2.87D-03 BMatP= 8.37D-03
 IDIUse=1 WtCom= 1.00D+00 WtEn= 0.00D+00
 Coeff-Com: -0.322D+00 0.698D+00 0.204D+00-0.368D+01 0.410D+01
 Coeff:     -0.322D+00 0.698D+00 0.204D+00-0.368D+01 0.410D+01
 Gap=     0.209 Goal=   None    Shift=    0.500
 T= 1066. Gap= 0.709 NK=4 IS=   19 IE=   24 IFin=   18
          NO(<0.9)=   0  NV(>0.1)=   0     18.00e < EF      0.00e >EF  Err=0.0D+00
 Gap=     0.261 Goal=   None    Shift=    0.500
 T= 1066. Gap= 0.761 NK=4 IS=   18 IE=   21 IFin=   17
          NO(<0.9)=   0  NV(>0.1)=   0     17.00e < EF      0.00e >EF  Err=0.0D+00
 GapD=    0.209 DampG=1.000 DampE=1.000 DampFc=1.0000 IDamp=-1.
 RMSDP=1.21D-03 MaxDP=1.54D-02 DE=-9.04D-03 OVMax= 1.45D-02

 Cycle   6  Pass 1  IDiag  1:
 E= -193.309066529542     Delta-E=       -0.009730816068 Rises=F Damp=F
 DIIS: error= 3.20D-03 at cycle   6 NSaved=   6.
 NSaved= 6 IEnMin= 6 EnMin= -193.309066529542     IErMin= 6 ErrMin= 3.20D-03
 ErrMax= 3.20D-03  0.00D+00 EMaxC= 1.00D+00 BMatC= 3.03D-04 BMatP= 2.87D-03
 IDIUse=1 WtCom= 1.00D+00 WtEn= 0.00D+00
 Coeff-Com:  0.128D+00-0.360D+00 0.342D+00 0.168D+01-0.332D+01 0.252D+01
 Coeff:      0.128D+00-0.360D+00 0.342D+00 0.168D+01-0.332D+01 0.252D+01
 Gap=     0.211 Goal=   None    Shift=    0.500
 T=  717. Gap= 0.711 NK=4 IS=   19 IE=   24 IFin=   18
          NO(<0.9)=   0  NV(>0.1)=   0     18.00e < EF      0.00e >EF  Err=0.0D+00
 Gap=     0.261 Goal=   None    Shift=    0.500
 T=  717. Gap= 0.761 NK=4 IS=   18 IE=   21 IFin=   17
          NO(<0.9)=   0  NV(>0.1)=   0     17.00e < EF      0.00e >EF  Err=0.0D+00
 GapD=    0.211 DampG=1.000 DampE=1.000 DampFc=1.0000 IDamp=-1.
 RMSDP=3.48D-04 MaxDP=4.63D-03 DE=-9.73D-03 OVMax= 1.30D-02

 Cycle   7  Pass 1  IDiag  1:
 E= -193.309537578090     Delta-E=       -0.000471048548 Rises=F Damp=F
 DIIS: error= 2.43D-03 at cycle   7 NSaved=   7.
 NSaved= 7 IEnMin= 7 EnMin= -193.309537578090     IErMin= 7 ErrMin= 2.43D-03
 ErrMax= 2.43D-03  0.00D+00 EMaxC= 1.00D+00 BMatC= 1.49D-04 BMatP= 3.03D-04
 IDIUse=1 WtCom= 1.00D+00 WtEn= 0.00D+00
 Coeff-Com:  0.470D-01-0.548D-01-0.317D+00 0.708D+00-0.216D+00-0.215D+01
 Coeff-Com:  0.298D+01
 Coeff:      0.470D-01-0.548D-01-0.317D+00 0.708D+00-0.216D+00-0.215D+01
 Coeff:      0.298D+01
 Gap=     0.213 Goal=   None    Shift=    0.500
 T=  383. Gap= 0.713 NK=4 IS=   19 IE=   24 IFin=   18
          NO(<0.9)=   0  NV(>0.1)=   0     18.00e < EF      0.00e >EF  Err=0.0D+00
 Gap=     0.260 Goal=   None    Shift=    0.500
 T=  383. Gap= 0.761 NK=4 IS=   18 IE=   21 IFin=   17
          NO(<0.9)=   0  NV(>0.1)=   0     17.00e < EF      0.00e >EF  Err=0.0D+00
 GapD=    0.213 DampG=1.000 DampE=1.000 DampFc=1.0000 IDamp=-1.
 RMSDP=2.82D-04 MaxDP=4.15D-03 DE=-4.71D-04 OVMax= 1.17D-02

 Cycle   8  Pass 1  IDiag  1:
 E= -193.309821857554     Delta-E=       -0.000284279464 Rises=F Damp=F
 DIIS: error= 1.67D-03 at cycle   8 NSaved=   8.
 NSaved= 8 IEnMin= 8 EnMin= -193.309821857554     IErMin= 8 ErrMin= 1.67D-03
 ErrMax= 1.67D-03  0.00D+00 EMaxC= 1.00D+00 BMatC= 7.62D-05 BMatP= 1.49D-04
 IDIUse=1 WtCom= 1.00D+00 WtEn= 0.00D+00
 Coeff-Com: -0.177D-01 0.747D-01-0.173D+00-0.361D+00 0.998D+00-0.168D+01
 Coeff-Com:  0.715D+00 0.144D+01
 Coeff:     -0.177D-01 0.747D-01-0.173D+00-0.361D+00 0.998D+00-0.168D+01
 Coeff:      0.715D+00 0.144D+01
 Gap=     0.214 Goal=   None    Shift=    0.500
 Gap=     0.260 Goal=   None    Shift=    0.500
 GapD=    0.214 DampG=1.000 DampE=1.000 DampFc=1.0000 IDamp=-1.
 RMSDP=1.87D-04 MaxDP=2.40D-03 DE=-2.84D-04 OVMax= 7.87D-03

 Cycle   9  Pass 1  IDiag  1:
 E= -193.309962337136     Delta-E=       -0.000140479582 Rises=F Damp=F
 DIIS: error= 1.29D-03 at cycle   9 NSaved=   9.
 NSaved= 9 IEnMin= 9 EnMin= -193.309962337136     IErMin= 9 ErrMin= 1.29D-03
 ErrMax= 1.29D-03  0.00D+00 EMaxC= 1.00D+00 BMatC= 4.44D-05 BMatP= 7.62D-05
 IDIUse=1 WtCom= 1.00D+00 WtEn= 0.00D+00
 Coeff-Com: -0.233D-02-0.498D-01 0.405D+00-0.567D+00-0.613D-01 0.208D+01
 Coeff-Com: -0.260D+01-0.194D+01 0.374D+01
 Coeff:     -0.233D-02-0.498D-01 0.405D+00-0.567D+00-0.613D-01 0.208D+01
 Coeff:     -0.260D+01-0.194D+01 0.374D+01
 Gap=     0.215 Goal=   None    Shift=    0.500
 Gap=     0.259 Goal=   None    Shift=    0.500
 GapD=    0.215 DampG=1.000 DampE=1.000 DampFc=1.0000 IDamp=-1.
 RMSDP=1.86D-04 MaxDP=2.87D-03 DE=-1.40D-04 OVMax= 8.04D-03

 Cycle  10  Pass 1  IDiag  1:
 E= -193.310076887540     Delta-E=       -0.000114550404 Rises=F Damp=F
 DIIS: error= 1.12D-03 at cycle  10 NSaved=  10.
 NSaved=10 IEnMin=10 EnMin= -193.310076887540     IErMin=10 ErrMin= 1.12D-03
 ErrMax= 1.12D-03  0.00D+00 EMaxC= 1.00D+00 BMatC= 2.79D-05 BMatP= 4.44D-05
 IDIUse=1 WtCom= 1.00D+00 WtEn= 0.00D+00
 Coeff-Com:  0.290D-03 0.508D-02-0.288D-01 0.146D+00-0.220D+00 0.206D+00
 Coeff-Com:  0.212D+00-0.387D+00-0.183D+01 0.289D+01
 Coeff:      0.290D-03 0.508D-02-0.288D-01 0.146D+00-0.220D+00 0.206D+00
 Coeff:      0.212D+00-0.387D+00-0.183D+01 0.289D+01
 Gap=     0.217 Goal=   None    Shift=    0.500
 Gap=     0.258 Goal=   None    Shift=    0.500
 GapD=    0.217 DampG=1.000 DampE=1.000 DampFc=1.0000 IDamp=-1.
 RMSDP=1.56D-04 MaxDP=2.82D-03 DE=-1.15D-04 OVMax= 7.77D-03

 Cycle  11  Pass 1  IDiag  1:
 E= -193.310159682938     Delta-E=       -0.000082795398 Rises=F Damp=F
 DIIS: error= 1.00D-03 at cycle  11 NSaved=  11.
 NSaved=11 IEnMin=11 EnMin= -193.310159682938     IErMin=11 ErrMin= 1.00D-03
 ErrMax= 1.00D-03  0.00D+00 EMaxC= 1.00D+00 BMatC= 2.07D-05 BMatP= 2.79D-05
 IDIUse=1 WtCom= 1.00D+00 WtEn= 0.00D+00
 Large coefficients: NSaved= 11 BigCof=   11.69 CofMax=   10.00 Det=-1.55D-08
 Inversion failed.  Reducing to 10 matrices.
 Large coefficients: NSaved= 10 BigCof=   11.69 CofMax=   10.00 Det=-1.55D-08
 Inversion failed.  Reducing to  9 matrices.
 Coeff-Com:  0.207D-01-0.295D+00 0.499D+00-0.410D+00-0.255D+00 0.454D+00
 Coeff-Com:  0.365D+01-0.967D+01 0.700D+01
 Coeff:      0.207D-01-0.295D+00 0.499D+00-0.410D+00-0.255D+00 0.454D+00
 Coeff:      0.365D+01-0.967D+01 0.700D+01
 Gap=     0.219 Goal=   None    Shift=    0.500
 Gap=     0.257 Goal=   None    Shift=    0.500
 GapD=    0.219 DampG=1.000 DampE=1.000 DampFc=1.0000 IDamp=-1.
 RMSDP=1.93D-04 MaxDP=3.68D-03 DE=-8.28D-05 OVMax= 1.05D-02

 Cycle  12  Pass 1  IDiag  1:
 E= -193.310252010528     Delta-E=       -0.000092327590 Rises=F Damp=F
 DIIS: error= 9.13D-04 at cycle  12 NSaved=  10.
 NSaved=10 IEnMin=10 EnMin= -193.310252010528     IErMin=10 ErrMin= 9.13D-04
 ErrMax= 9.13D-04  0.00D+00 EMaxC= 1.00D+00 BMatC= 1.74D-05 BMatP= 2.07D-05
 IDIUse=1 WtCom= 1.00D+00 WtEn= 0.00D+00
 Coeff-Com:  0.284D-01-0.291D+00 0.462D+00-0.316D+00-0.283D+00 0.325D+00
 Coeff-Com:  0.323D+01-0.806D+01 0.532D+01 0.577D+00
 Coeff:      0.284D-01-0.291D+00 0.462D+00-0.316D+00-0.283D+00 0.325D+00
 Coeff:      0.323D+01-0.806D+01 0.532D+01 0.577D+00
 Gap=     0.220 Goal=   None    Shift=    0.500
 Gap=     0.257 Goal=   None    Shift=    0.500
 RMSDP=1.21D-04 MaxDP=2.62D-03 DE=-9.23D-05 OVMax= 6.83D-03

 Cycle  13  Pass 1  IDiag  1:
 E= -193.310306243432     Delta-E=       -0.000054232904 Rises=F Damp=F
 DIIS: error= 8.34D-04 at cycle  13 NSaved=  11.
 NSaved=11 IEnMin=11 EnMin= -193.310306243432     IErMin=11 ErrMin= 8.34D-04
 ErrMax= 8.34D-04  0.00D+00 EMaxC= 1.00D+00 BMatC= 1.47D-05 BMatP= 1.74D-05
 IDIUse=1 WtCom= 1.00D+00 WtEn= 0.00D+00
 Large coefficients: NSaved= 11 BigCof=   12.42 CofMax=   10.00 Det=-6.66D-09
 Inversion failed.  Reducing to 10 matrices.
 Large coefficients: NSaved= 10 BigCof=   12.40 CofMax=   10.00 Det=-6.66D-09
 Inversion failed.  Reducing to  9 matrices.
 Coeff-Com:  0.163D-01-0.126D+00 0.173D+00-0.357D-01-0.110D+01 0.537D+01
 Coeff-Com: -0.638D+01-0.444D+01 0.753D+01
 Coeff:      0.163D-01-0.126D+00 0.173D+00-0.357D-01-0.110D+01 0.537D+01
 Coeff:     -0.638D+01-0.444D+01 0.753D+01
 Gap=     0.226 Goal=   None    Shift=    0.500
 Gap=     0.253 Goal=   None    Shift=    0.500
 RMSDP=3.33D-04 MaxDP=6.40D-03 DE=-5.42D-05 OVMax= 1.88D-02

 Cycle  14  Pass 1  IDiag  1:
 E= -193.310432221050     Delta-E=       -0.000125977618 Rises=F Damp=F
 DIIS: error= 7.14D-04 at cycle  14 NSaved=  10.
 NSaved=10 IEnMin=10 EnMin= -193.310432221050     IErMin=10 ErrMin= 7.14D-04
 ErrMax= 7.14D-04  0.00D+00 EMaxC= 1.00D+00 BMatC= 1.45D-05 BMatP= 1.47D-05
 IDIUse=1 WtCom= 1.00D+00 WtEn= 0.00D+00
 Large coefficients: NSaved= 10 BigCof=   14.33 CofMax=   10.00 Det=-1.56D-08
 Inversion failed.  Reducing to  9 matrices.
 Large coefficients: NSaved=  9 BigCof=   14.43 CofMax=   10.00 Det=-1.78D-08
 Inversion failed.  Reducing to  8 matrices.
 Large coefficients: NSaved=  8 BigCof=   14.21 CofMax=   10.00 Det=-2.29D-08
 Inversion failed.  Reducing to  7 matrices.
 Large coefficients: NSaved=  7 BigCof=   14.21 CofMax=   10.00 Det=-1.54D-08
 Inversion failed.  Reducing to  6 matrices.
 Large coefficients: NSaved=  6 BigCof=   13.88 CofMax=   10.00 Det=-3.04D-08
 Inversion failed.  Reducing to  5 matrices.
 Large coefficients: NSaved=  5 BigCof=   13.20 CofMax=   10.00 Det=-3.36D-08
 Inversion failed.  Reducing to  4 matrices.
 Large coefficients: NSaved=  4 BigCof=   13.04 CofMax=   10.00 Det=-4.60D-08
 Inversion failed.  Reducing to  3 matrices.
 Coeff-Com: -0.369D+01 0.412D+01 0.568D+00
 Coeff:     -0.369D+01 0.412D+01 0.568D+00
 Gap=     0.226 Goal=   None    Shift=    0.500
 Gap=     0.255 Goal=   None    Shift=    0.500
 RMSDP=1.50D-04 MaxDP=3.47D-03 DE=-1.26D-04 OVMax= 8.40D-03

 Cycle  15  Pass 1  IDiag  1:
 E= -193.310481609454     Delta-E=       -0.000049388404 Rises=F Damp=F
 DIIS: error= 6.21D-04 at cycle  15 NSaved=   4.
 NSaved= 4 IEnMin= 4 EnMin= -193.310481609454     IErMin= 4 ErrMin= 6.21D-04
 ErrMax= 6.21D-04  0.00D+00 EMaxC= 1.00D+00 BMatC= 9.94D-06 BMatP= 1.45D-05
 IDIUse=1 WtCom= 1.00D+00 WtEn= 0.00D+00
 Coeff-Com:  0.208D+01-0.285D+01-0.281D+01 0.459D+01
 Coeff:      0.208D+01-0.285D+01-0.281D+01 0.459D+01
 Gap=     0.225 Goal=   None    Shift=    0.500
 Gap=     0.253 Goal=   None    Shift=    0.500
 RMSDP=2.41D-04 MaxDP=4.85D-03 DE=-4.94D-05 OVMax= 1.39D-02

 Cycle  16  Pass 1  IDiag  1:
 E= -193.310544762168     Delta-E=       -0.000063152714 Rises=F Damp=F
 DIIS: error= 5.19D-04 at cycle  16 NSaved=   5.
 NSaved= 5 IEnMin= 5 EnMin= -193.310544762168     IErMin= 5 ErrMin= 5.19D-04
 ErrMax= 5.19D-04  0.00D+00 EMaxC= 1.00D+00 BMatC= 9.81D-06 BMatP= 9.94D-06
 IDIUse=1 WtCom= 1.00D+00 WtEn= 0.00D+00
 Coeff-Com:  0.206D+01-0.213D+01-0.345D+01 0.321D+01 0.131D+01
 Coeff:      0.206D+01-0.213D+01-0.345D+01 0.321D+01 0.131D+01
 Gap=     0.225 Goal=   None    Shift=    0.500
 Gap=     0.253 Goal=   None    Shift=    0.500
 RMSDP=1.67D-04 MaxDP=3.66D-03 DE=-6.32D-05 OVMax= 9.75D-03

 Cycle  17  Pass 1  IDiag  1:
 E= -193.310579806832     Delta-E=       -0.000035044664 Rises=F Damp=F
 DIIS: error= 4.28D-04 at cycle  17 NSaved=   6.
 NSaved= 6 IEnMin= 6 EnMin= -193.310579806832     IErMin= 6 ErrMin= 4.28D-04
 ErrMax= 4.28D-04  0.00D+00 EMaxC= 1.00D+00 BMatC= 6.64D-06 BMatP= 9.81D-06
 IDIUse=1 WtCom= 1.00D+00 WtEn= 0.00D+00
 Coeff-Com: -0.337D+01 0.471D+01 0.205D+01-0.375D+01-0.386D+01 0.522D+01
 Coeff:     -0.337D+01 0.471D+01 0.205D+01-0.375D+01-0.386D+01 0.522D+01
 Gap=     0.225 Goal=   None    Shift=    0.500
 Gap=     0.253 Goal=   None    Shift=    0.500
 RMSDP=1.13D-04 MaxDP=2.47D-03 DE=-3.50D-05 OVMax= 6.81D-03

 Cycle  18  Pass 1  IDiag  1:
 E= -193.310599444881     Delta-E=       -0.000019638049 Rises=F Damp=F
 DIIS: error= 3.73D-04 at cycle  18 NSaved=   7.
 NSaved= 7 IEnMin= 7 EnMin= -193.310599444881     IErMin= 7 ErrMin= 3.73D-04
 ErrMax= 3.73D-04  0.00D+00 EMaxC= 1.00D+00 BMatC= 4.19D-06 BMatP= 6.64D-06
 IDIUse=1 WtCom= 1.00D+00 WtEn= 0.00D+00
 Coeff-Com: -0.165D+01 0.202D+01 0.101D+01-0.137D+01-0.945D+00-0.104D+01
 Coeff-Com:  0.297D+01
 Coeff:     -0.165D+01 0.202D+01 0.101D+01-0.137D+01-0.945D+00-0.104D+01
 Coeff:      0.297D+01
 Gap=     0.225 Goal=   None    Shift=    0.500
 Gap=     0.252 Goal=   None    Shift=    0.500
 RMSDP=1.07D-04 MaxDP=2.31D-03 DE=-1.96D-05 OVMax= 6.22D-03

 Cycle  19  Pass 1  IDiag  1:
 E= -193.310613693340     Delta-E=       -0.000014248459 Rises=F Damp=F
 DIIS: error= 2.58D-04 at cycle  19 NSaved=   8.
 NSaved= 8 IEnMin= 8 EnMin= -193.310613693340     IErMin= 8 ErrMin= 2.58D-04
 ErrMax= 2.58D-04  0.00D+00 EMaxC= 1.00D+00 BMatC= 2.67D-06 BMatP= 4.19D-06
 IDIUse=1 WtCom= 1.00D+00 WtEn= 0.00D+00
 Coeff-Com:  0.284D+01-0.350D+01-0.257D+01 0.328D+01 0.337D+01-0.583D+01
 Coeff-Com:  0.802D+00 0.261D+01
 Coeff:      0.284D+01-0.350D+01-0.257D+01 0.328D+01 0.337D+01-0.583D+01
 Coeff:      0.802D+00 0.261D+01
 Gap=     0.224 Goal=   None    Shift=    0.500
 Gap=     0.252 Goal=   None    Shift=    0.500
 RMSDP=9.49D-05 MaxDP=2.02D-03 DE=-1.42D-05 OVMax= 5.56D-03

 Cycle  20  Pass 1  IDiag  1:
 E= -193.310622860681     Delta-E=       -0.000009167341 Rises=F Damp=F
 DIIS: error= 1.81D-04 at cycle  20 NSaved=   9.
 NSaved= 9 IEnMin= 9 EnMin= -193.310622860681     IErMin= 9 ErrMin= 1.81D-04
 ErrMax= 1.81D-04  0.00D+00 EMaxC= 1.00D+00 BMatC= 1.66D-06 BMatP= 2.67D-06
 IDIUse=1 WtCom= 1.00D+00 WtEn= 0.00D+00
 Coeff-Com:  0.505D+00-0.151D+00-0.102D+01 0.666D+00-0.242D+00 0.843D+00
 Coeff-Com: -0.110D+01-0.122D+01 0.271D+01
 Coeff:      0.505D+00-0.151D+00-0.102D+01 0.666D+00-0.242D+00 0.843D+00
 Coeff:     -0.110D+01-0.122D+01 0.271D+01
 Gap=     0.224 Goal=   None    Shift=    0.500
 Gap=     0.252 Goal=   None    Shift=    0.500
 RMSDP=4.85D-05 MaxDP=1.12D-03 DE=-9.17D-06 OVMax= 2.84D-03

 Cycle  21  Pass 1  IDiag  1:
 E= -193.310626462204     Delta-E=       -0.000003601524 Rises=F Damp=F
 DIIS: error= 1.63D-04 at cycle  21 NSaved=  10.
 NSaved=10 IEnMin=10 EnMin= -193.310626462204     IErMin=10 ErrMin= 1.63D-04
 ErrMax= 1.63D-04  0.00D+00 EMaxC= 1.00D+00 BMatC= 7.64D-07 BMatP= 1.66D-06
 IDIUse=1 WtCom= 1.00D+00 WtEn= 0.00D+00
 Coeff-Com: -0.172D-01 0.282D+00-0.369D+00 0.294D-01-0.469D+00 0.154D+01
 Coeff-Com: -0.148D+01-0.482D+00 0.459D+00 0.150D+01
 Coeff:     -0.172D-01 0.282D+00-0.369D+00 0.294D-01-0.469D+00 0.154D+01
 Coeff:     -0.148D+01-0.482D+00 0.459D+00 0.150D+01
 Gap=     0.224 Goal=   None    Shift=    0.500
 Gap=     0.252 Goal=   None    Shift=    0.500
 RMSDP=3.99D-05 MaxDP=8.90D-04 DE=-3.60D-06 OVMax= 2.29D-03

 Cycle  22  Pass 1  IDiag  1:
 E= -193.310628401458     Delta-E=       -0.000001939254 Rises=F Damp=F
 DIIS: error= 1.22D-04 at cycle  22 NSaved=  11.
 NSaved=11 IEnMin=11 EnMin= -193.310628401458     IErMin=11 ErrMin= 1.22D-04
 ErrMax= 1.22D-04  0.00D+00 EMaxC= 1.00D+00 BMatC= 4.14D-07 BMatP= 7.64D-07
 IDIUse=1 WtCom= 1.00D+00 WtEn= 0.00D+00
 Coeff-Com:  0.981D-01 0.187D-01-0.322D+00 0.140D+00 0.144D+00-0.381D+00
 Coeff-Com:  0.351D+00 0.274D+00 0.670D+00-0.447D+01 0.448D+01
 Coeff:      0.981D-01 0.187D-01-0.322D+00 0.140D+00 0.144D+00-0.381D+00
 Coeff:      0.351D+00 0.274D+00 0.670D+00-0.447D+01 0.448D+01
 Gap=     0.224 Goal=   None    Shift=    0.500
 Gap=     0.252 Goal=   None    Shift=    0.500
 RMSDP=3.09D-05 MaxDP=6.87D-04 DE=-1.94D-06 OVMax= 1.76D-03

 Cycle  23  Pass 1  IDiag  1:
 E= -193.310629371996     Delta-E=       -0.000000970538 Rises=F Damp=F
 DIIS: error= 8.62D-05 at cycle  23 NSaved=  12.
 NSaved=12 IEnMin=12 EnMin= -193.310629371996     IErMin=12 ErrMin= 8.62D-05
 ErrMax= 8.62D-05  0.00D+00 EMaxC= 1.00D+00 BMatC= 2.08D-07 BMatP= 4.14D-07
 IDIUse=1 WtCom= 1.00D+00 WtEn= 0.00D+00
 Coeff-Com:  0.157D+00-0.387D-01-0.422D+00 0.262D+00 0.208D+00-0.262D+00
 Coeff-Com: -0.178D-02-0.554D-01 0.693D+00-0.115D+01-0.493D+00 0.211D+01
 Coeff:      0.157D+00-0.387D-01-0.422D+00 0.262D+00 0.208D+00-0.262D+00
 Coeff:     -0.178D-02-0.554D-01 0.693D+00-0.115D+01-0.493D+00 0.211D+01
 Gap=     0.224 Goal=   None    Shift=    0.500
 Gap=     0.252 Goal=   None    Shift=    0.500
 RMSDP=1.69D-05 MaxDP=4.05D-04 DE=-9.71D-07 OVMax= 9.52D-04

 Cycle  24  Pass 1  IDiag  1:
 E= -193.310629730013     Delta-E=       -0.000000358017 Rises=F Damp=F
 DIIS: error= 6.40D-05 at cycle  24 NSaved=  13.
 NSaved=13 IEnMin=13 EnMin= -193.310629730013     IErMin=13 ErrMin= 6.40D-05
 ErrMax= 6.40D-05  0.00D+00 EMaxC= 1.00D+00 BMatC= 9.57D-08 BMatP= 2.08D-07
 IDIUse=1 WtCom= 1.00D+00 WtEn= 0.00D+00
 Coeff-Com:  0.155D+00-0.128D+00-0.298D+00 0.280D+00 0.163D+00-0.841D-01
 Coeff-Com: -0.299D+00-0.116D+00 0.453D+00 0.905D+00-0.211D+01 0.697D-01
 Coeff-Com:  0.201D+01
 Coeff:      0.155D+00-0.128D+00-0.298D+00 0.280D+00 0.163D+00-0.841D-01
 Coeff:     -0.299D+00-0.116D+00 0.453D+00 0.905D+00-0.211D+01 0.697D-01
 Coeff:      0.201D+01
 Gap=     0.224 Goal=   None    Shift=    0.500
 Gap=     0.252 Goal=   None    Shift=    0.500
 RMSDP=1.21D-05 MaxDP=2.90D-04 DE=-3.58D-07 OVMax= 7.00D-04

 Cycle  25  Pass 1  IDiag  1:
 E= -193.310629892453     Delta-E=       -0.000000162440 Rises=F Damp=F
 DIIS: error= 4.34D-05 at cycle  25 NSaved=  14.
 NSaved=14 IEnMin=14 EnMin= -193.310629892453     IErMin=14 ErrMin= 4.34D-05
 ErrMax= 4.34D-05  0.00D+00 EMaxC= 1.00D+00 BMatC= 4.44D-08 BMatP= 9.57D-08
 IDIUse=1 WtCom= 1.00D+00 WtEn= 0.00D+00
 Coeff-Com: -0.550D-01 0.656D-01 0.438D-01-0.444D-01-0.104D+00 0.135D+00
 Coeff-Com: -0.253D-01 0.675D-01 0.580D-01-0.905D+00 0.186D+01-0.168D+01
 Coeff-Com: -0.148D+01 0.306D+01
 Coeff:     -0.550D-01 0.656D-01 0.438D-01-0.444D-01-0.104D+00 0.135D+00
 Coeff:     -0.253D-01 0.675D-01 0.580D-01-0.905D+00 0.186D+01-0.168D+01
 Coeff:     -0.148D+01 0.306D+01
 Gap=     0.224 Goal=   None    Shift=    0.500
 Gap=     0.252 Goal=   None    Shift=    0.500
 RMSDP=7.68D-06 MaxDP=1.96D-04 DE=-1.62D-07 OVMax= 4.59D-04

 Cycle  26  Pass 1  IDiag  1:
 E= -193.310629959726     Delta-E=       -0.000000067273 Rises=F Damp=F
 DIIS: error= 2.76D-05 at cycle  26 NSaved=  15.
 NSaved=15 IEnMin=15 EnMin= -193.310629959726     IErMin=15 ErrMin= 2.76D-05
 ErrMax= 2.76D-05  0.00D+00 EMaxC= 1.00D+00 BMatC= 1.83D-08 BMatP= 4.44D-08
 IDIUse=1 WtCom= 1.00D+00 WtEn= 0.00D+00
 Coeff-Com: -0.821D-01 0.136D+00 0.820D-02-0.836D-01-0.280D-01 0.567D-01
 Coeff-Com:  0.153D-02-0.140D-01 0.133D-01-0.179D-01-0.243D+00 0.734D+00
 Coeff-Com: -0.163D+00-0.241D+01 0.309D+01
 Coeff:     -0.821D-01 0.136D+00 0.820D-02-0.836D-01-0.280D-01 0.567D-01
 Coeff:      0.153D-02-0.140D-01 0.133D-01-0.179D-01-0.243D+00 0.734D+00
 Coeff:     -0.163D+00-0.241D+01 0.309D+01
 Gap=     0.224 Goal=   None    Shift=    0.500
 Gap=     0.252 Goal=   None    Shift=    0.500
 RMSDP=3.45D-06 MaxDP=9.46D-05 DE=-6.73D-08 OVMax= 1.99D-04

 Cycle  27  Pass 1  IDiag  1:
 E= -193.310629981075     Delta-E=       -0.000000021349 Rises=F Damp=F
 DIIS: error= 2.00D-05 at cycle  27 NSaved=  16.
 NSaved=16 IEnMin=16 EnMin= -193.310629981075     IErMin=16 ErrMin= 2.00D-05
 ErrMax= 2.00D-05  0.00D+00 EMaxC= 1.00D+00 BMatC= 7.56D-09 BMatP= 1.83D-08
 IDIUse=1 WtCom= 1.00D+00 WtEn= 0.00D+00
 Coeff-Com:  0.305D-01-0.263D-01-0.468D-01 0.410D-01 0.306D-01-0.185D-01
 Coeff-Com: -0.676D-01 0.174D-01 0.150D+00-0.993D-01-0.261D+00 0.512D+00
 Coeff-Com: -0.551D-02-0.260D+00-0.199D+01 0.299D+01
 Coeff:      0.305D-01-0.263D-01-0.468D-01 0.410D-01 0.306D-01-0.185D-01
 Coeff:     -0.676D-01 0.174D-01 0.150D+00-0.993D-01-0.261D+00 0.512D+00
 Coeff:     -0.551D-02-0.260D+00-0.199D+01 0.299D+01
 Gap=     0.224 Goal=   None    Shift=    0.500
 Gap=     0.252 Goal=   None    Shift=    0.500
 RMSDP=2.89D-06 MaxDP=7.17D-05 DE=-2.13D-08 OVMax= 1.77D-04

 Cycle  28  Pass 1  IDiag  1:
 E= -193.310629991674     Delta-E=       -0.000000010599 Rises=F Damp=F
 DIIS: error= 1.29D-05 at cycle  28 NSaved=  17.
 NSaved=17 IEnMin=17 EnMin= -193.310629991674     IErMin=17 ErrMin= 1.29D-05
 ErrMax= 1.29D-05  0.00D+00 EMaxC= 1.00D+00 BMatC= 3.31D-09 BMatP= 7.56D-09
 IDIUse=1 WtCom= 1.00D+00 WtEn= 0.00D+00
 Coeff-Com: -0.369D-01 0.505D-01 0.139D-01-0.244D-01-0.361D-01 0.485D-01
 Coeff-Com: -0.444D-02-0.120D-01-0.189D-01 0.158D-01 0.103D+00-0.178D+00
 Coeff-Com: -0.169D+00 0.367D+00 0.513D+00-0.288D+01 0.325D+01
 Coeff:     -0.369D-01 0.505D-01 0.139D-01-0.244D-01-0.361D-01 0.485D-01
 Coeff:     -0.444D-02-0.120D-01-0.189D-01 0.158D-01 0.103D+00-0.178D+00
 Coeff:     -0.169D+00 0.367D+00 0.513D+00-0.288D+01 0.325D+01
 Gap=     0.224 Goal=   None    Shift=    0.500
 Gap=     0.252 Goal=   None    Shift=    0.500
 RMSDP=1.55D-06 MaxDP=4.09D-05 DE=-1.06D-08 OVMax= 9.61D-05

 Cycle  29  Pass 1  IDiag  1:
 E= -193.310629995613     Delta-E=       -0.000000003939 Rises=F Damp=F
 DIIS: error= 8.52D-06 at cycle  29 NSaved=  18.
 NSaved=18 IEnMin=18 EnMin= -193.310629995613     IErMin=18 ErrMin= 8.52D-06
 ErrMax= 8.52D-06  0.00D+00 EMaxC= 1.00D+00 BMatC= 1.35D-09 BMatP= 3.31D-09
 IDIUse=1 WtCom= 1.00D+00 WtEn= 0.00D+00
 Coeff-Com:  0.321D-02-0.348D-02-0.450D-04-0.725D-03 0.265D-02-0.225D-02
 Coeff-Com: -0.111D-01 0.700D-02 0.297D-01-0.417D-01-0.512D-01 0.179D+00
 Coeff-Com:  0.847D-02-0.374D+00 0.865D-01 0.154D+01-0.438D+01 0.401D+01
 Coeff:      0.321D-02-0.348D-02-0.450D-04-0.725D-03 0.265D-02-0.225D-02
 Coeff:     -0.111D-01 0.700D-02 0.297D-01-0.417D-01-0.512D-01 0.179D+00
 Coeff:      0.847D-02-0.374D+00 0.865D-01 0.154D+01-0.438D+01 0.401D+01
 Gap=     0.224 Goal=   None    Shift=    0.500
 Gap=     0.252 Goal=   None    Shift=    0.500
 RMSDP=1.21D-06 MaxDP=3.07D-05 DE=-3.94D-09 OVMax= 7.60D-05

 Cycle  30  Pass 1  IDiag  1:
 E= -193.310629997389     Delta-E=       -0.000000001776 Rises=F Damp=F
 DIIS: error= 5.22D-06 at cycle  30 NSaved=  19.
 NSaved=19 IEnMin=19 EnMin= -193.310629997389     IErMin=19 ErrMin= 5.22D-06
 ErrMax= 5.22D-06  0.00D+00 EMaxC= 1.00D+00 BMatC= 5.57D-10 BMatP= 1.35D-09
 IDIUse=1 WtCom= 1.00D+00 WtEn= 0.00D+00
 Coeff-Com: -0.105D-01 0.159D-01 0.721D-03-0.618D-02-0.552D-02 0.737D-02
 Coeff-Com:  0.302D-03-0.168D-03-0.505D-02 0.365D-02 0.218D-01-0.414D-01
 Coeff-Com: -0.507D-01 0.181D+00-0.247D+00-0.262D+00 0.173D+01-0.377D+01
 Coeff-Com:  0.344D+01
 Coeff:     -0.105D-01 0.159D-01 0.721D-03-0.618D-02-0.552D-02 0.737D-02
 Coeff:      0.302D-03-0.168D-03-0.505D-02 0.365D-02 0.218D-01-0.414D-01
 Coeff:     -0.507D-01 0.181D+00-0.247D+00-0.262D+00 0.173D+01-0.377D+01
 Coeff:      0.344D+01
 Gap=     0.224 Goal=   None    Shift=    0.500
 Gap=     0.252 Goal=   None    Shift=    0.500
 RMSDP=5.55D-07 MaxDP=1.57D-05 DE=-1.78D-09 OVMax= 3.49D-05

 SCF Done:  E(ULC-wHPBE) =  -193.310629997     A.U. after   30 cycles
            NFock= 30  Conv=0.55D-06     -V/T= 2.0082
 <Sx>= 0.0000 <Sy>= 0.0000 <Sz>= 0.5000 <S**2>= 0.9024 S= 0.5735
 <L.S>= 0.000000000000E+00
 KE= 1.917460392658D+02 PE=-7.300036142831D+02 EE= 1.999250452269D+02
 Annihilation of the first spin contaminant:
 S**2 before annihilation     0.9024,   after     0.7666
 Leave Link  502 at Tue Feb 25 12:20:08 2020, MaxMem=  6710886400 cpu:              35.4 elap:               2.2
 (Enter /opt/ohpc/pub/libs/gaussian/g16-A.03/haswell/g16/l508.exe)
 QCSCF skips out because SCF is already converged.
 Leave Link  508 at Tue Feb 25 12:20:08 2020, MaxMem=  6710886400 cpu:               0.1 elap:               0.0
 (Enter /opt/ohpc/pub/libs/gaussian/g16-A.03/haswell/g16/l601.exe)
 Copying SCF densities to generalized density rwf, IOpCl= 1 IROHF=0.

 **********************************************************************

            Population analysis using the SCF density.

 **********************************************************************

 Orbital symmetries:
 Alpha Orbitals:
       Occupied  (B2) (A1) (B2) (A1) (A1) (A1) (B2) (A1) (B2) (A1)
                 (A1) (B2) (B2) (A1) (B1) (A1) (A2) (B1)
       Virtual   (B2) (A1) (A2) (B1) (A1) (B2) (A1) (B2) (A1) (A1)
                 (B2) (A1) (B2) (B1) (B2) (B1) (A1) (A2) (A1) (B2)
                 (A1) (A2) (A1) (B1) (B2) (A1) (B2) (A1) (B2) (A1)
                 (A1) (A1) (B2) (A1) (B2) (B2) (A1) (A1) (B2)
 Beta  Orbitals:
       Occupied  (B2) (A1) (B2) (A1) (A1) (A1) (B2) (A1) (B2) (A1)
                 (A1) (B2) (B2) (A1) (A1) (B1) (A2)
       Virtual   (A1) (B2) (B1) (A2) (B1) (A1) (B2) (A1) (B2) (A1)
                 (A1) (B2) (A1) (B2) (B1) (B2) (A1) (A2) (B1) (A1)
                 (B2) (A1) (A2) (A1) (B2) (B1) (A1) (B2) (A1) (B2)
                 (A1) (A1) (A1) (B2) (A1) (B2) (B2) (A1) (A1) (B2)
 The electronic state is 2-B1.
 Alpha  occ. eigenvalues --  -10.34503 -10.34501 -10.26996 -10.26996 -10.26233
 Alpha  occ. eigenvalues --   -1.13158  -1.04516  -0.98093  -0.87793  -0.81045
 Alpha  occ. eigenvalues --   -0.80383  -0.73400  -0.68946  -0.66656  -0.66170
 Alpha  occ. eigenvalues --   -0.63350  -0.57052  -0.50075
 Alpha virt. eigenvalues --   -0.27669  -0.26581  -0.14804  -0.04304  -0.00511
 Alpha virt. eigenvalues --    0.03423   0.06831   0.08223   0.09558   0.17594
 Alpha virt. eigenvalues --    0.18895   0.26874   0.28350   0.36965   0.39449
 Alpha virt. eigenvalues --    0.46751   0.46868   0.47079   0.49275   0.50483
 Alpha virt. eigenvalues --    0.52473   0.54016   0.55074   0.56785   0.57244
 Alpha virt. eigenvalues --    0.68006   0.71657   0.73256   0.77068   0.77151
 Alpha virt. eigenvalues --    0.82682   0.84328   0.86276   0.92366   0.99417
 Alpha virt. eigenvalues --    1.04088   1.08785   1.31399   1.32047
  Beta  occ. eigenvalues --  -10.33609 -10.33606 -10.27326 -10.27325 -10.25445
  Beta  occ. eigenvalues --   -1.12282  -1.03880  -0.95755  -0.86886  -0.80666
  Beta  occ. eigenvalues --   -0.79612  -0.72951  -0.68653  -0.66068  -0.63946
  Beta  occ. eigenvalues --   -0.63287  -0.54751
  Beta virt. eigenvalues --   -0.29546  -0.24137  -0.23933  -0.12063  -0.01877
  Beta virt. eigenvalues --   -0.00256   0.03726   0.07314   0.08326   0.09999
  Beta virt. eigenvalues --    0.18194   0.19359   0.27382   0.28603   0.39633
  Beta virt. eigenvalues --    0.39979   0.47400   0.48514   0.48785   0.49895
  Beta virt. eigenvalues --    0.51020   0.52792   0.54706   0.56810   0.58023
  Beta virt. eigenvalues --    0.58109   0.64719   0.72078   0.72805   0.77169
  Beta virt. eigenvalues --    0.78021   0.83097   0.84557   0.86735   0.93673
  Beta virt. eigenvalues --    0.99664   1.04724   1.09374   1.32164   1.33283
          Condensed to atoms (all electrons):
               1          2          3          4          5          6
     1  C    5.177877   0.512744  -0.061338  -0.041601   0.137779   0.100970
     2  C    0.512744   4.946610   0.495651  -0.059461  -0.041601  -0.003172
     3  C   -0.061338   0.495651   4.842080   0.495651  -0.061338   0.000270
     4  C   -0.041601  -0.059461   0.495651   4.946610   0.512744  -0.003172
     5  C    0.137779  -0.041601  -0.061338   0.512744   5.177877   0.100970
     6  H    0.100970  -0.003172   0.000270  -0.003172   0.100970   0.532613
     7  H    0.347683  -0.028383   0.002656   0.000747  -0.002808  -0.005009
     8  H   -0.025052   0.354029  -0.010806   0.003405   0.000447   0.000112
     9  H    0.004437  -0.029425   0.368010  -0.029425   0.004437  -0.000002
    10  H    0.000447   0.003405  -0.010806   0.354029  -0.025052   0.000112
    11  H   -0.002808   0.000747   0.002656  -0.028383   0.347683  -0.005009
               7          8          9         10         11
     1  C    0.347683  -0.025052   0.004437   0.000447  -0.002808
     2  C   -0.028383   0.354029  -0.029425   0.003405   0.000747
     3  C    0.002656  -0.010806   0.368010  -0.010806   0.002656
     4  C    0.000747   0.003405  -0.029425   0.354029  -0.028383
     5  C   -0.002808   0.000447   0.004437  -0.025052   0.347683
     6  H   -0.005009   0.000112  -0.000002   0.000112  -0.005009
     7  H    0.405964   0.000572  -0.000092  -0.000007   0.000020
     8  H    0.000572   0.386989  -0.002844  -0.000059  -0.000007
     9  H   -0.000092  -0.002844   0.445648  -0.002844  -0.000092
    10  H   -0.000007  -0.000059  -0.002844   0.386989   0.000572
    11  H    0.000020  -0.000007  -0.000092   0.000572   0.405964
          Atomic-Atomic Spin Densities.
               1          2          3          4          5          6
     1  C    0.703665  -0.033426  -0.021797  -0.009559   0.048320  -0.011074
     2  C   -0.033426  -0.285575   0.012791   0.004957  -0.009559  -0.000491
     3  C   -0.021797   0.012791   0.639040   0.012791  -0.021797   0.000019
     4  C   -0.009559   0.004957   0.012791  -0.285575  -0.033426  -0.000491
     5  C    0.048320  -0.009559  -0.021797  -0.033426   0.703665  -0.011074
     6  H   -0.011074  -0.000491   0.000019  -0.000491  -0.011074  -0.256329
     7  H   -0.006999   0.001702  -0.000063   0.000032  -0.000207   0.002082
     8  H   -0.001798   0.003848  -0.001046  -0.000169   0.000187  -0.000013
     9  H   -0.000011   0.000075  -0.001203   0.000075  -0.000011   0.000000
    10  H    0.000187  -0.000169  -0.001046   0.003848  -0.001798  -0.000013
    11  H   -0.000207   0.000032  -0.000063   0.001702  -0.006999   0.002082
               7          8          9         10         11
     1  C   -0.006999  -0.001798  -0.000011   0.000187  -0.000207
     2  C    0.001702   0.003848   0.000075  -0.000169   0.000032
     3  C   -0.000063  -0.001046  -0.001203  -0.001046  -0.000063
     4  C    0.000032  -0.000169   0.000075   0.003848   0.001702
     5  C   -0.000207   0.000187  -0.000011  -0.001798  -0.006999
     6  H    0.002082  -0.000013   0.000000  -0.000013   0.002082
     7  H   -0.029759   0.000063   0.000005  -0.000000  -0.000006
     8  H    0.000063   0.013413   0.000053   0.000006  -0.000000
     9  H    0.000005   0.000053  -0.027114   0.000053   0.000005
    10  H   -0.000000   0.000006   0.000053   0.013413   0.000063
    11  H   -0.000006  -0.000000   0.000005   0.000063  -0.029759
 Mulliken charges and spin densities:
               1          2
     1  C   -0.151138   0.667300
     2  C   -0.151145  -0.305816
     3  C   -0.062688   0.617627
     4  C   -0.151145  -0.305816
     5  C   -0.151138   0.667300
     6  H    0.281318  -0.275302
     7  H    0.278656  -0.033151
     8  H    0.293216   0.014542
     9  H    0.242193  -0.028073
    10  H    0.293216   0.014542
    11  H    0.278656  -0.033151
 Sum of Mulliken charges =   1.00000   1.00000
 Mulliken charges and spin densities with hydrogens summed into heavy atoms:
               1          2
     1  C    0.408836   0.358847
     2  C    0.142071  -0.291275
     3  C    0.179504   0.589553
     4  C    0.142071  -0.291275
     5  C    0.127518   0.634149
 Electronic spatial extent (au):  <R**2>=            374.8459
 Charge=              1.0000 electrons
 Dipole moment (field-independent basis, Debye):
    X=             -0.0000    Y=             -0.0000    Z=             -2.7380  Tot=              2.7380
 Quadrupole moment (field-independent basis, Debye-Ang):
   XX=            -32.5294   YY=            -13.1666   ZZ=            -10.4984
   XY=              0.0000   XZ=              0.0000   YZ=             -0.0000
 Traceless Quadrupole moment (field-independent basis, Debye-Ang):
   XX=            -13.7979   YY=              5.5648   ZZ=              8.2331
   XY=              0.0000   XZ=              0.0000   YZ=             -0.0000
 Octapole moment (field-independent basis, Debye-Ang**2):
  XXX=              0.0000  YYY=             -0.0000  ZZZ=            -22.3836  XYY=             -0.0000
  XXY=              0.0000  XXZ=              1.6011  XZZ=              0.0000  YZZ=              0.0000
  YYZ=             -3.1999  XYZ=             -0.0000
 Hexadecapole moment (field-independent basis, Debye-Ang**3):
 XXXX=            -33.1981 YYYY=           -180.4763 ZZZZ=            -97.4323 XXXY=             -0.0000
 XXXZ=             -0.0000 YYYX=             -0.0000 YYYZ=              0.0000 ZZZX=             -0.0000
 ZZZY=              0.0000 XXYY=            -55.3329 XXZZ=            -44.3713 YYZZ=            -50.9611
 XXYZ=             -0.0000 YYXZ=              0.0000 ZZXY=             -0.0000
 N-N= 1.450218997931D+02 E-N=-7.300035735953D+02  KE= 1.917460392658D+02
 Symmetry A1   KE= 1.107616768298D+02
 Symmetry A2   KE= 2.409184140817D+00
 Symmetry B1   KE= 3.299286140260D+00
 Symmetry B2   KE= 7.527589215493D+01
 Symmetry A1   SP= 3.994445856900D-14
 Symmetry A2   SP= 6.047325036943D-15
 Symmetry B1   SP= 1.000000000000D+00
 Symmetry B2   SP=-6.625952573157D-15
                          Isotropic Fermi Contact Couplings
        Atom                 a.u.       MegaHertz       Gauss      10(-4) cm-1
     1  C(13)              0.11920     134.00625      47.81676      44.69967
     2  C(13)             -0.04916     -55.26420     -19.71964     -18.43415
     3  C(13)              0.09203     103.45601      36.91568      34.50921
     4  C(13)             -0.04916     -55.26420     -19.71964     -18.43415
     5  C(13)              0.11920     134.00625      47.81676      44.69967
     6  H(1)              -0.09309    -416.08131    -148.46816    -138.78978
     7  H(1)              -0.01223     -54.66251     -19.50494     -18.23345
     8  H(1)               0.00597      26.67417       9.51801       8.89754
     9  H(1)              -0.01008     -45.05490     -16.07671     -15.02870
    10  H(1)               0.00597      26.67417       9.51801       8.89754
    11  H(1)              -0.01223     -54.66251     -19.50494     -18.23345
 --------------------------------------------------------
       Center         ----  Spin Dipole Couplings  ----
                      3XX-RR        3YY-RR        3ZZ-RR
 --------------------------------------------------------
     1   Atom        0.497951     -0.211597     -0.286353
     2   Atom       -0.238088      0.094175      0.143913
     3   Atom        0.592117     -0.316808     -0.275309
     4   Atom       -0.238088      0.094175      0.143913
     5   Atom        0.497951     -0.211597     -0.286353
     6   Atom       -0.014454     -0.005121      0.019574
     7   Atom       -0.011435      0.032122     -0.020687
     8   Atom       -0.007834      0.000924      0.006910
     9   Atom       -0.006041     -0.039252      0.045293
    10   Atom       -0.007834      0.000924      0.006910
    11   Atom       -0.011435      0.032122     -0.020687
 --------------------------------------------------------
                        XY            XZ            YZ
 --------------------------------------------------------
     1   Atom        0.000000      0.000000      0.075494
     2   Atom       -0.000000      0.000000     -0.001369
     3   Atom       -0.000000      0.000000     -0.000000
     4   Atom       -0.000000     -0.000000      0.001369
     5   Atom        0.000000      0.000000     -0.075494
     6   Atom        0.000000     -0.000000      0.000000
     7   Atom        0.000000      0.000000     -0.039228
     8   Atom        0.000000      0.000000     -0.007815
     9   Atom       -0.000000     -0.000000     -0.000000
    10   Atom        0.000000     -0.000000      0.007815
    11   Atom       -0.000000      0.000000      0.039228
 --------------------------------------------------------


 ---------------------------------------------------------------------------------
              Anisotropic Spin Dipole Couplings in Principal Axis System
 ---------------------------------------------------------------------------------

       Atom             a.u.   MegaHertz   Gauss  10(-4) cm-1        Axes

              Baa    -0.3332   -44.714   -15.955   -14.915 -0.0000 -0.5274  0.8496
     1 C(13)  Bbb    -0.1647   -22.106    -7.888    -7.374  0.0000  0.8496  0.5274
              Bcc     0.4980    66.820    23.843    22.289  1.0000 -0.0000  0.0000
 
              Baa    -0.2381   -31.949   -11.400   -10.657  1.0000  0.0000  0.0000
     2 C(13)  Bbb     0.0941    12.632     4.508     4.214 -0.0000  0.9996  0.0275
              Bcc     0.1440    19.317     6.893     6.443  0.0000 -0.0275  0.9996
 
              Baa    -0.3168   -42.513   -15.170   -14.181  0.0000  1.0000  0.0000
     3 C(13)  Bbb    -0.2753   -36.944   -13.182   -12.323  0.0000  0.0000  1.0000
              Bcc     0.5921    79.456    28.352    26.504  1.0000 -0.0000  0.0000
 
              Baa    -0.2381   -31.949   -11.400   -10.657  1.0000  0.0000  0.0000
     4 C(13)  Bbb     0.0941    12.632     4.508     4.214 -0.0000  0.9996 -0.0275
              Bcc     0.1440    19.317     6.893     6.443 -0.0000  0.0275  0.9996
 
              Baa    -0.3332   -44.714   -15.955   -14.915 -0.0000  0.5274  0.8496
     5 C(13)  Bbb    -0.1647   -22.106    -7.888    -7.374 -0.0000  0.8496 -0.5274
              Bcc     0.4980    66.820    23.843    22.289  1.0000  0.0000  0.0000
 
              Baa    -0.0145    -7.712    -2.752    -2.572  1.0000 -0.0000  0.0000
     6 H(1)   Bbb    -0.0051    -2.732    -0.975    -0.911  0.0000  1.0000 -0.0000
              Bcc     0.0196    10.444     3.727     3.484 -0.0000  0.0000  1.0000
 
              Baa    -0.0416   -22.180    -7.914    -7.398 -0.0000  0.4699  0.8827
     7 H(1)   Bbb    -0.0114    -6.101    -2.177    -2.035  1.0000  0.0000  0.0000
              Bcc     0.0530    28.281    10.091     9.433 -0.0000  0.8827 -0.4699
 
              Baa    -0.0078    -4.180    -1.491    -1.394  1.0000  0.0000  0.0000
     8 H(1)   Bbb    -0.0045    -2.375    -0.847    -0.792 -0.0000  0.8239  0.5667
              Bcc     0.0123     6.555     2.339     2.186  0.0000 -0.5667  0.8239
 
              Baa    -0.0393   -20.943    -7.473    -6.986  0.0000  1.0000 -0.0000
     9 H(1)   Bbb    -0.0060    -3.223    -1.150    -1.075  1.0000 -0.0000 -0.0000
              Bcc     0.0453    24.166     8.623     8.061  0.0000  0.0000  1.0000
 
              Baa    -0.0078    -4.180    -1.491    -1.394  1.0000 -0.0000  0.0000
    10 H(1)   Bbb    -0.0045    -2.375    -0.847    -0.792  0.0000  0.8239 -0.5667
              Bcc     0.0123     6.555     2.339     2.186  0.0000  0.5667  0.8239
 
              Baa    -0.0416   -22.180    -7.914    -7.398 -0.0000 -0.4699  0.8827
    11 H(1)   Bbb    -0.0114    -6.101    -2.177    -2.035  1.0000 -0.0000  0.0000
              Bcc     0.0530    28.281    10.091     9.433  0.0000  0.8827  0.4699
 

 ---------------------------------------------------------------------------------

 No NMR shielding tensors so no spin-rotation constants.
 Leave Link  601 at Tue Feb 25 12:20:08 2020, MaxMem=  6710886400 cpu:               5.0 elap:               0.3
 (Enter /opt/ohpc/pub/libs/gaussian/g16-A.03/haswell/g16/l9999.exe)

 Test job not archived.
 1\1\GINC-HASWELL008\SP\ULC-wHPBE\6-31G\C5H6(1+,2)\SMGO234\25-Feb-2020\
 0\\#P uLC-wHPBE/6-31G iop(3/107=0255700000, 3/108=0255700000) scf=(con
 ver=6,fermi,ndamp=35,noincfock,novaracc,vshift=500,xqc)\\H6 C5\\1,2\C,
 0,-1.206512,0.69658,0.\C,0,-1.206512,-0.69658,0.\C,0,0.,-1.39316,0.\C,
 0,1.206512,-0.69658,0.\C,0,1.206512,0.69658,0.\H,0,0.,2.482681,0.\H,0,
 -2.150065,1.24134,0.\H,0,-2.150065,-1.24134,0.\H,0,0.,-2.482681,0.\H,0
 ,2.150065,-1.24134,0.\H,0,2.150065,1.24134,0.\\Version=ES64L-G16RevA.0
 3\State=2-B1\HF=-193.31063\S2=0.902356\S2-1=0.\S2A=0.76662\RMSD=5.546e
 -07\Dipole=0.,1.0772164,0.\Quadrupole=4.1373189,6.1210888,-10.2584077,
 0.,0.,0.\PG=C02V [C2(H1C1H1),SGV(C4H4)]\\@


 A people that values its privileges above its principles soon loses both.
 -- Dwight D. Eisenhower
 Job cpu time:       0 days  0 hours  1 minutes  2.9 seconds.
 Elapsed time:       0 days  0 hours  0 minutes  4.3 seconds.
 File lengths (MBytes):  RWF=    272 Int=      0 D2E=      0 Chk=     32 Scr=     32
 Normal termination of Gaussian 16 at Tue Feb 25 12:20:08 2020.
