 Entering Gaussian System, Link 0=g16
 Input=1b_tune_c0.gjf
 Output=1b_tune_c0.log
 Initial command:
 /opt/ohpc/pub/libs/gaussian/g16-A.03/sandybridge/g16/l1.exe "/scratch/qai222/ocelot_api/tests/wtuning_test/1b/tuning_1b_ocycle0/Gau-110635.inp" -scrdir="/scratch/qai222/ocelot_api/tests/wtuning_test/1b/tuning_1b_ocycle0/"
 Entering Link 1 = /opt/ohpc/pub/libs/gaussian/g16-A.03/sandybridge/g16/l1.exe PID=    110636.
  
 Copyright (c) 1988,1990,1992,1993,1995,1998,2003,2009,2016,
            Gaussian, Inc.  All Rights Reserved.
  
 This is part of the Gaussian(R) 16 program.  It is based on
 the Gaussian(R) 09 system (copyright 2009, Gaussian, Inc.),
 the Gaussian(R) 03 system (copyright 2003, Gaussian, Inc.),
 the Gaussian(R) 98 system (copyright 1998, Gaussian, Inc.),
 the Gaussian(R) 94 system (copyright 1995, Gaussian, Inc.),
 the Gaussian 92(TM) system (copyright 1992, Gaussian, Inc.),
 the Gaussian 90(TM) system (copyright 1990, Gaussian, Inc.),
 the Gaussian 88(TM) system (copyright 1988, Gaussian, Inc.),
 the Gaussian 86(TM) system (copyright 1986, Carnegie Mellon
 University), and the Gaussian 82(TM) system (copyright 1983,
 Carnegie Mellon University). Gaussian is a federally registered
 trademark of Gaussian, Inc.
  
 This software contains proprietary and confidential information,
 including trade secrets, belonging to Gaussian, Inc.
  
 This software is provided under written license and may be
 used, copied, transmitted, or stored only in accord with that
 written license.
  
 The following legend is applicable only to US Government
 contracts under FAR:
  
                    RESTRICTED RIGHTS LEGEND
  
 Use, reproduction and disclosure by the US Government is
 subject to restrictions as set forth in subparagraphs (a)
 and (c) of the Commercial Computer Software - Restricted
 Rights clause in FAR 52.227-19.
  
 Gaussian, Inc.
 340 Quinnipiac St., Bldg. 40, Wallingford CT 06492
  
  
 ---------------------------------------------------------------
 Warning -- This program may not be used in any manner that
 competes with the business of Gaussian, Inc. or will provide
 assistance to any competitor of Gaussian, Inc.  The licensee
 of this program is prohibited from giving any competitor of
 Gaussian, Inc. access to this program.  By using this program,
 the user acknowledges that Gaussian, Inc. is engaged in the
 business of creating and licensing software in the field of
 computational chemistry and represents and warrants to the
 licensee that it is not a competitor of Gaussian, Inc. and that
 it will not use this program in any manner prohibited above.
 ---------------------------------------------------------------
  

 Cite this work as:
 Gaussian 16, Revision A.03,
 M. J. Frisch, G. W. Trucks, H. B. Schlegel, G. E. Scuseria, 
 M. A. Robb, J. R. Cheeseman, G. Scalmani, V. Barone, 
 G. A. Petersson, H. Nakatsuji, X. Li, M. Caricato, A. V. Marenich, 
 J. Bloino, B. G. Janesko, R. Gomperts, B. Mennucci, H. P. Hratchian, 
 J. V. Ortiz, A. F. Izmaylov, J. L. Sonnenberg, D. Williams-Young, 
 F. Ding, F. Lipparini, F. Egidi, J. Goings, B. Peng, A. Petrone, 
 T. Henderson, D. Ranasinghe, V. G. Zakrzewski, J. Gao, N. Rega, 
 G. Zheng, W. Liang, M. Hada, M. Ehara, K. Toyota, R. Fukuda, 
 J. Hasegawa, M. Ishida, T. Nakajima, Y. Honda, O. Kitao, H. Nakai, 
 T. Vreven, K. Throssell, J. A. Montgomery, Jr., J. E. Peralta, 
 F. Ogliaro, M. J. Bearpark, J. J. Heyd, E. N. Brothers, K. N. Kudin, 
 V. N. Staroverov, T. A. Keith, R. Kobayashi, J. Normand, 
 K. Raghavachari, A. P. Rendell, J. C. Burant, S. S. Iyengar, 
 J. Tomasi, M. Cossi, J. M. Millam, M. Klene, C. Adamo, R. Cammi, 
 J. W. Ochterski, R. L. Martin, K. Morokuma, O. Farkas, 
 J. B. Foresman, and D. J. Fox, Gaussian, Inc., Wallingford CT, 2016.
 
 ******************************************
 Gaussian 16:  EM64L-G16RevA.03 25-Dec-2016
                22-Apr-2020 
 ******************************************
 %mem=50GB
 %nproc=16
 Will use up to   16 processors via shared memory.
 ----------------------------------------------------------------------
 #P uLC-wHPBE/6-31G iop(3/107=0221900000, 3/108=0221900000) scf=(conver
 =6,fermi,ndamp=35,noincfock,novaracc,vshift=500,xqc)
 ----------------------------------------------------------------------
 1/38=1,172=1/1;
 2/12=2,17=6,18=5,40=1/2;
 3/5=1,6=6,11=2,25=1,30=1,74=-71,107=221900000,108=221900000,116=2/1,2,3;
 4//1;
 5/5=100002,6=6,8=3,10=500,13=1,18=-1,22=13,38=1,93=35/2,8;
 6/7=2,8=2,9=2,10=2,28=1/1;
 99/5=1,9=1/99;
 Leave Link    1 at Wed Apr 22 16:20:19 2020, MaxMem=  6710886400 cpu:               9.9 elap:               0.7
 (Enter /opt/ohpc/pub/libs/gaussian/g16-A.03/sandybridge/g16/l101.exe)
 -----
 H6 C6
 -----
 Symbolic Z-matrix:
 Charge =  1 Multiplicity = 2
 C                     0.        1.39316   0. 
 C                    -1.20651   0.69658   0. 
 C                    -1.20651  -0.69658   0. 
 C                     0.       -1.39316   0. 
 C                     1.20651  -0.69658   0. 
 C                     1.20651   0.69658   0. 
 H                     0.        2.48268   0. 
 H                    -2.15007   1.24134   0. 
 H                    -2.15007  -1.24134   0. 
 H                     0.       -2.48268   0. 
 H                     2.15007  -1.24134   0. 
 H                     2.15007   1.24134   0. 
 
 ITRead=  0  0  0  0  0  0  0  0  0  0  0  0
 MicOpt= -1 -1 -1 -1 -1 -1 -1 -1 -1 -1 -1 -1
 NAtoms=     12 NQM=       12 NQMF=       0 NMMI=      0 NMMIF=      0
                NMic=       0 NMicF=      0.
                    Isotopes and Nuclear Properties:
 (Nuclear quadrupole moments (NQMom) in fm**2, nuclear magnetic moments (NMagM)
  in nuclear magnetons)

  Atom         1           2           3           4           5           6           7           8           9          10
 IAtWgt=          12          12          12          12          12          12           1           1           1           1
 AtmWgt=  12.0000000  12.0000000  12.0000000  12.0000000  12.0000000  12.0000000   1.0078250   1.0078250   1.0078250   1.0078250
 NucSpn=           0           0           0           0           0           0           1           1           1           1
 AtZEff=  -0.0000000  -0.0000000  -0.0000000  -0.0000000  -0.0000000  -0.0000000  -0.0000000  -0.0000000  -0.0000000  -0.0000000
 NQMom=    0.0000000   0.0000000   0.0000000   0.0000000   0.0000000   0.0000000   0.0000000   0.0000000   0.0000000   0.0000000
 NMagM=    0.0000000   0.0000000   0.0000000   0.0000000   0.0000000   0.0000000   2.7928460   2.7928460   2.7928460   2.7928460
 AtZNuc=   6.0000000   6.0000000   6.0000000   6.0000000   6.0000000   6.0000000   1.0000000   1.0000000   1.0000000   1.0000000

  Atom        11          12
 IAtWgt=           1           1
 AtmWgt=   1.0078250   1.0078250
 NucSpn=           1           1
 AtZEff=  -0.0000000  -0.0000000
 NQMom=    0.0000000   0.0000000
 NMagM=    2.7928460   2.7928460
 AtZNuc=   1.0000000   1.0000000
 Leave Link  101 at Wed Apr 22 16:20:19 2020, MaxMem=  6710886400 cpu:               2.5 elap:               0.2
 (Enter /opt/ohpc/pub/libs/gaussian/g16-A.03/sandybridge/g16/l202.exe)
                          Input orientation:                          
 ---------------------------------------------------------------------
 Center     Atomic      Atomic             Coordinates (Angstroms)
 Number     Number       Type             X           Y           Z
 ---------------------------------------------------------------------
      1          6           0        0.000000    1.393160    0.000000
      2          6           0       -1.206512    0.696580    0.000000
      3          6           0       -1.206512   -0.696580    0.000000
      4          6           0        0.000000   -1.393160    0.000000
      5          6           0        1.206512   -0.696580    0.000000
      6          6           0        1.206512    0.696580    0.000000
      7          1           0        0.000000    2.482681    0.000000
      8          1           0       -2.150065    1.241340    0.000000
      9          1           0       -2.150065   -1.241340    0.000000
     10          1           0        0.000000   -2.482681    0.000000
     11          1           0        2.150065   -1.241340    0.000000
     12          1           0        2.150065    1.241340    0.000000
 ---------------------------------------------------------------------
                    Distance matrix (angstroms):
                    1          2          3          4          5
     1  C    0.000000
     2  C    1.393160   0.000000
     3  C    2.413024   1.393160   0.000000
     4  C    2.786320   2.413024   1.393160   0.000000
     5  C    2.413024   2.786320   2.413024   1.393160   0.000000
     6  C    1.393160   2.413024   2.786320   2.413024   1.393160
     7  H    1.089521   2.155418   3.400496   3.875841   3.400496
     8  H    2.155418   1.089521   2.155418   3.400496   3.875841
     9  H    3.400496   2.155418   1.089521   2.155418   3.400496
    10  H    3.875841   3.400496   2.155418   1.089521   2.155418
    11  H    3.400496   3.875841   3.400496   2.155418   1.089521
    12  H    2.155418   3.400496   3.875841   3.400496   2.155418
                    6          7          8          9         10
     6  C    0.000000
     7  H    2.155418   0.000000
     8  H    3.400496   2.482681   0.000000
     9  H    3.875841   4.300129   2.482680   0.000000
    10  H    3.400496   4.965362   4.300129   2.482681   0.000000
    11  H    2.155418   4.300129   4.965362   4.300130   2.482681
    12  H    1.089521   2.482681   4.300130   4.965362   4.300129
                   11         12
    11  H    0.000000
    12  H    2.482680   0.000000
 Stoichiometry    C6H6(1+,2)
 Framework group  D6H[3C2'(HC.CH)]
 Deg. of freedom     2
 Full point group                 D6H     NOp  24
 Largest Abelian subgroup         D2H     NOp   8
 Largest concise Abelian subgroup D2      NOp   4
                         Standard orientation:                         
 ---------------------------------------------------------------------
 Center     Atomic      Atomic             Coordinates (Angstroms)
 Number     Number       Type             X           Y           Z
 ---------------------------------------------------------------------
      1          6           0       -0.000000    1.393160   -0.000000
      2          6           0       -1.206512    0.696580   -0.000000
      3          6           0       -1.206512   -0.696580   -0.000000
      4          6           0       -0.000000   -1.393160   -0.000000
      5          6           0        1.206512   -0.696580   -0.000000
      6          6           0        1.206512    0.696580   -0.000000
      7          1           0        0.000000    2.482681   -0.000000
      8          1           0       -2.150065    1.241341   -0.000000
      9          1           0       -2.150065   -1.241340   -0.000000
     10          1           0       -0.000000   -2.482681   -0.000000
     11          1           0        2.150065   -1.241341   -0.000000
     12          1           0        2.150065    1.241340   -0.000000
 ---------------------------------------------------------------------
 Rotational constants (GHZ):           5.7099798           5.7099798           2.8549899
 Leave Link  202 at Wed Apr 22 16:20:19 2020, MaxMem=  6710886400 cpu:               0.3 elap:               0.0
 (Enter /opt/ohpc/pub/libs/gaussian/g16-A.03/sandybridge/g16/l301.exe)
 Standard basis: 6-31G (6D, 7F)
 Ernie: Thresh=  0.10000D-02 Tol=  0.10000D-05 Strict=F.
 There are    16 symmetry adapted cartesian basis functions of AG  symmetry.
 There are    11 symmetry adapted cartesian basis functions of B1G symmetry.
 There are     2 symmetry adapted cartesian basis functions of B2G symmetry.
 There are     4 symmetry adapted cartesian basis functions of B3G symmetry.
 There are     2 symmetry adapted cartesian basis functions of AU  symmetry.
 There are     4 symmetry adapted cartesian basis functions of B1U symmetry.
 There are    16 symmetry adapted cartesian basis functions of B2U symmetry.
 There are    11 symmetry adapted cartesian basis functions of B3U symmetry.
 There are    16 symmetry adapted basis functions of AG  symmetry.
 There are    11 symmetry adapted basis functions of B1G symmetry.
 There are     2 symmetry adapted basis functions of B2G symmetry.
 There are     4 symmetry adapted basis functions of B3G symmetry.
 There are     2 symmetry adapted basis functions of AU  symmetry.
 There are     4 symmetry adapted basis functions of B1U symmetry.
 There are    16 symmetry adapted basis functions of B2U symmetry.
 There are    11 symmetry adapted basis functions of B3U symmetry.
    66 basis functions,   156 primitive gaussians,    66 cartesian basis functions
    21 alpha electrons       20 beta electrons
       nuclear repulsion energy       203.5439980921 Hartrees.
 IExCor=33909 DFT=T Ex+Corr=LC-wHPBE ExCW=0 ScaHFX=  1.000000
 ScaDFX=  1.000000  1.000000  1.000000  1.000000 ScalE2=  1.000000  1.000000
 IRadAn=      5 IRanWt=     -1 IRanGd=            0 ICorTp=0 IEmpDi=  4
 HFx  wShort=  0.000000 wLong=  0.221900 cFull=  0.000000 cShort=  0.000000 cLong=  1.000000
 DFx  wShort=  0.000000 wLong=  0.221900 cFull=  0.000000 cShort=  1.000000 cLong=  0.000000
 NAtoms=   12 NActive=   12 NUniq=    2 SFac= 4.00D+00 NAtFMM=   60 NAOKFM=F Big=F
 Integral buffers will be    131072 words long.
 Raffenetti 2 integral format.
 Two-electron integral symmetry is turned on.
 Leave Link  301 at Wed Apr 22 16:20:19 2020, MaxMem=  6710886400 cpu:               1.1 elap:               0.1
 (Enter /opt/ohpc/pub/libs/gaussian/g16-A.03/sandybridge/g16/l302.exe)
 NPDir=0 NMtPBC=     1 NCelOv=     1 NCel=       1 NClECP=     1 NCelD=      1
         NCelK=      1 NCelE2=     1 NClLst=     1 CellRange=     0.0.
 One-electron integrals computed using PRISM.
 One-electron integral symmetry used in STVInt
 NBasis=    66 RedAO= T EigKep=  6.87D-04  NBF=    16    11     2     4     2     4    16    11
 NBsUse=    66 1.00D-06 EigRej= -1.00D+00 NBFU=    16    11     2     4     2     4    16    11
 Precomputing XC quadrature grid using
 IXCGrd= 4 IRadAn=           5 IRanWt=          -1 IRanGd=           0 AccXCQ= 0.00D+00.
 Generated NRdTot=       0 NPtTot=           0 NUsed=           0 NTot=          32
 NSgBfM=    66    66    66    66    66 MxSgAt=    12 MxSgA2=    12.
 Leave Link  302 at Wed Apr 22 16:20:20 2020, MaxMem=  6710886400 cpu:               2.3 elap:               0.2
 (Enter /opt/ohpc/pub/libs/gaussian/g16-A.03/sandybridge/g16/l303.exe)
 DipDrv:  MaxL=1.
 Leave Link  303 at Wed Apr 22 16:20:20 2020, MaxMem=  6710886400 cpu:               1.0 elap:               0.1
 (Enter /opt/ohpc/pub/libs/gaussian/g16-A.03/sandybridge/g16/l401.exe)
 ExpMin= 1.61D-01 ExpMax= 3.05D+03 ExpMxC= 4.57D+02 IAcc=3 IRadAn=         5 AccDes= 0.00D+00
 Harris functional with IExCor=33909 and IRadAn=       5 diagonalized for initial guess.
 HarFok:  IExCor=33909 AccDes= 0.00D+00 IRadAn=         5 IDoV= 1 UseB2=F ITyADJ=14
 ICtDFT=  3500011 ScaDFX=  1.000000  1.000000  1.000000  1.000000
 FoFCou: FMM=F IPFlag=           0 FMFlag=      100000 FMFlg1=           0
         NFxFlg=           0 DoJE=T BraDBF=F KetDBF=T FulRan=T
         wScrn=  0.000000 ICntrl=       500 IOpCl=  0 I1Cent=   200000004 NGrid=           0
         NMat0=    1 NMatS0=      1 NMatT0=    0 NMatD0=    1 NMtDS0=    0 NMtDT0=    0
 Petite list used in FoFCou.
 Harris En= -226.843359656016    
 JPrj=0 DoOrth=F DoCkMO=F.
 Initial guess orbital symmetries:
 Alpha Orbitals:
       Occupied  (A1G) (E1U) (E1U) (E2G) (E2G) (B1U) (A1G) (E1U)
                 (E1U) (E2G) (E2G) (A1G) (B2U) (B1U) (E1U) (E1U)
                 (A2U) (E2G) (E2G) (E1G) (E1G)
       Virtual   (E2U) (E2U) (A1G) (B2G) (E1U) (E1U) (E2G) (E2G)
                 (B1U) (E2G) (E2G) (E1U) (E1U) (B2U) (A2U) (B1U)
                 (A2G) (A1G) (E2G) (E2G) (E1G) (E1G) (E1U) (E1U)
                 (A1G) (E2U) (E2U) (B2G) (B1U) (E2G) (E2G) (E1U)
                 (E1U) (A2G) (A1G) (E1U) (E1U) (E2G) (E2G) (E1U)
                 (E1U) (B1U) (E2G) (E2G) (B1U)
 Beta  Orbitals:
       Occupied  (A1G) (E1U) (E1U) (E2G) (E2G) (B1U) (A1G) (E1U)
                 (E1U) (E2G) (E2G) (A1G) (B2U) (B1U) (E1U) (E1U)
                 (A2U) (E2G) (E2G) (E1G)
       Virtual   (E1G) (E2U) (E2U) (A1G) (B2G) (E1U) (E1U) (E2G)
                 (E2G) (B1U) (E2G) (E2G) (E1U) (E1U) (B2U) (A2U)
                 (B1U) (A2G) (A1G) (E2G) (E2G) (E1G) (E1G) (E1U)
                 (E1U) (A1G) (E2U) (E2U) (B2G) (B1U) (E2G) (E2G)
                 (E1U) (E1U) (A2G) (A1G) (E1U) (E1U) (E2G) (E2G)
                 (E1U) (E1U) (B1U) (E2G) (E2G) (B1U)
 Initial guess <Sx>= 0.0000 <Sy>= 0.0000 <Sz>= 0.5000 <S**2>= 0.7500 S= 0.5000
 Leave Link  401 at Wed Apr 22 16:20:20 2020, MaxMem=  6710886400 cpu:               3.1 elap:               0.2
 (Enter /opt/ohpc/pub/libs/gaussian/g16-A.03/sandybridge/g16/l502.exe)
 Keep R1 and R2 ints in memory in symmetry-blocked form, NReq=19109854.
 FoFCou: FMM=F IPFlag=           0 FMFlag=           0 FMFlg1=           0
         NFxFlg=           0 DoJE=F BraDBF=F KetDBF=F FulRan=T
         wScrn=  0.000000 ICntrl=       600 IOpCl=  0 I1Cent=           0 NGrid=           0
         NMat0=    1 NMatS0=   2211 NMatT0=    0 NMatD0=    1 NMtDS0=    0 NMtDT0=    0
 Petite list used in FoFCou.
 UHF open shell SCF:
 Using DIIS extrapolation, IDIIS=    10.
 NGot=  6710886400 LenX=  6710146038 LenY=  6710141241
 Requested convergence on RMS density matrix=1.00D-06 within  32 cycles.
 Requested convergence on MAX density matrix=1.00D-04.
 Requested convergence on             energy=1.00D-04.
 Virtual orbitals will be shifted by   0.500 hartree.
 No special actions if energy rises.
 Dynamic level shift is on during FON iterations.

 Cycle   1  Pass 1  IDiag  1:
 Density matrix breaks symmetry, PCut= 1.00D-04
 Density has only Abelian symmetry.
 E= -231.615416416623    
 DIIS: error= 2.14D-02 at cycle   1 NSaved=   1.
 NSaved= 1 IEnMin= 1 EnMin= -231.615416416623     IErMin= 1 ErrMin= 2.14D-02
 ErrMax= 2.14D-02  0.00D+00 EMaxC= 1.00D+00 BMatC= 9.60D-02 BMatP= 9.60D-02
 IDIUse=1 WtCom= 1.00D+00 WtEn= 0.00D+00
 Coeff-Com:  0.100D+01
 Coeff:      0.100D+01
 Gap=     0.348 Goal=   None    Shift=    0.500
 T= 1292. Gap= 0.850 NK=0 IS=   22 IE=   66 IFin=   21
          NO(<0.9)=   0  NV(>0.1)=   0     21.00e < EF      0.00e >EF  Err=0.0D+00
 Gap=     0.163 Goal=   None    Shift=    0.500
 T= 1292. Gap= 0.663 NK=0 IS=   21 IE=   66 IFin=   20
          NO(<0.9)=   0  NV(>0.1)=   0     20.00e < EF      0.00e >EF  Err=0.0D+00
 GapD=    0.163 DampG=1.000 DampE=0.500 DampFc=0.5000 IDamp=-1.
 Damping current iteration by 5.00D-01
 RMSDP=3.24D-03 MaxDP=3.50D-02              OVMax= 4.05D-02

 Cycle   2  Pass 1  IDiag  1:
 Density matrix breaks symmetry, PCut= 1.00D-04
 Density has only Abelian symmetry.
 E= -231.631613857787     Delta-E=       -0.016197441163 Rises=F Damp=T
 DIIS: error= 9.93D-03 at cycle   2 NSaved=   2.
 NSaved= 2 IEnMin= 2 EnMin= -231.631613857787     IErMin= 2 ErrMin= 9.93D-03
 ErrMax= 9.93D-03  0.00D+00 EMaxC= 1.00D+00 BMatC= 2.10D-02 BMatP= 9.60D-02
 IDIUse=1 WtCom= 1.00D+00 WtEn= 0.00D+00
 Coeff-Com: -0.761D+00 0.176D+01
 Coeff:     -0.761D+00 0.176D+01
 Gap=     0.371 Goal=   None    Shift=    0.500
 T= 1174. Gap= 0.871 NK=0 IS=   22 IE=   66 IFin=   21
          NO(<0.9)=   0  NV(>0.1)=   0     21.00e < EF      0.00e >EF  Err=0.0D+00
 Gap=     0.188 Goal=   None    Shift=    0.500
 T= 1174. Gap= 0.688 NK=0 IS=   21 IE=   66 IFin=   20
          NO(<0.9)=   0  NV(>0.1)=   0     20.00e < EF      0.00e >EF  Err=0.0D+00
 GapD=    0.188 DampG=1.000 DampE=1.000 DampFc=1.0000 IDamp=-1.
 RMSDP=2.01D-03 MaxDP=2.06D-02 DE=-1.62D-02 OVMax= 1.24D-02

 Cycle   3  Pass 1  IDiag  1:
 Density matrix breaks symmetry, PCut= 1.00D-04
 Density has only Abelian symmetry.
 E= -231.643391710499     Delta-E=       -0.011777852712 Rises=F Damp=F
 DIIS: error= 3.65D-03 at cycle   3 NSaved=   3.
 NSaved= 3 IEnMin= 3 EnMin= -231.643391710499     IErMin= 3 ErrMin= 3.65D-03
 ErrMax= 3.65D-03  0.00D+00 EMaxC= 1.00D+00 BMatC= 5.73D-04 BMatP= 2.10D-02
 IDIUse=1 WtCom= 1.00D+00 WtEn= 0.00D+00
 Coeff-Com:  0.107D+00-0.196D+00 0.109D+01
 Coeff:      0.107D+00-0.196D+00 0.109D+01
 Gap=     0.366 Goal=   None    Shift=    0.500
 T=  928. Gap= 0.866 NK=0 IS=   22 IE=   66 IFin=   21
          NO(<0.9)=   0  NV(>0.1)=   0     21.00e < EF      0.00e >EF  Err=0.0D+00
 Gap=     0.186 Goal=   None    Shift=    0.500
 T=  928. Gap= 0.686 NK=0 IS=   21 IE=   66 IFin=   20
          NO(<0.9)=   0  NV(>0.1)=   0     20.00e < EF      0.00e >EF  Err=0.0D+00
 GapD=    0.186 DampG=1.000 DampE=1.000 DampFc=1.0000 IDamp=-1.
 RMSDP=2.90D-04 MaxDP=3.02D-03 DE=-1.18D-02 OVMax= 7.97D-03

 Cycle   4  Pass 1  IDiag  1:
 Density matrix breaks symmetry, PCut= 1.00D-04
 Density has only Abelian symmetry.
 E= -231.643756303696     Delta-E=       -0.000364593198 Rises=F Damp=F
 DIIS: error= 2.97D-03 at cycle   4 NSaved=   4.
 NSaved= 4 IEnMin= 4 EnMin= -231.643756303696     IErMin= 4 ErrMin= 2.97D-03
 ErrMax= 2.97D-03  0.00D+00 EMaxC= 1.00D+00 BMatC= 2.34D-04 BMatP= 5.73D-04
 IDIUse=1 WtCom= 1.00D+00 WtEn= 0.00D+00
 Coeff-Com:  0.103D+00-0.229D+00-0.268D+00 0.139D+01
 Coeff:      0.103D+00-0.229D+00-0.268D+00 0.139D+01
 Gap=     0.366 Goal=   None    Shift=    0.500
 T=  480. Gap= 0.866 NK=0 IS=   22 IE=   66 IFin=   21
          NO(<0.9)=   0  NV(>0.1)=   0     21.00e < EF      0.00e >EF  Err=0.0D+00
 Gap=     0.190 Goal=   None    Shift=    0.500
 T=  480. Gap= 0.690 NK=0 IS=   21 IE=   66 IFin=   20
          NO(<0.9)=   0  NV(>0.1)=   0     20.00e < EF      0.00e >EF  Err=0.0D+00
 GapD=    0.190 DampG=1.000 DampE=1.000 DampFc=1.0000 IDamp=-1.
 RMSDP=1.90D-04 MaxDP=2.32D-03 DE=-3.65D-04 OVMax= 7.05D-03

 Cycle   5  Pass 1  IDiag  1:
 Density matrix breaks symmetry, PCut= 1.00D-04
 Density has only Abelian symmetry.
 E= -231.643961224568     Delta-E=       -0.000204920872 Rises=F Damp=F
 DIIS: error= 1.93D-03 at cycle   5 NSaved=   5.
 NSaved= 5 IEnMin= 5 EnMin= -231.643961224568     IErMin= 5 ErrMin= 1.93D-03
 ErrMax= 1.93D-03  0.00D+00 EMaxC= 1.00D+00 BMatC= 1.01D-04 BMatP= 2.34D-04
 IDIUse=1 WtCom= 1.00D+00 WtEn= 0.00D+00
 Coeff-Com: -0.114D+00 0.227D+00-0.416D+00-0.134D+01 0.265D+01
 Coeff:     -0.114D+00 0.227D+00-0.416D+00-0.134D+01 0.265D+01
 Gap=     0.364 Goal=   None    Shift=    0.500
 T=   84. Gap= 0.864 NK=0 IS=   22 IE=   66 IFin=   21
          NO(<0.9)=   0  NV(>0.1)=   0     21.00e < EF      0.00e >EF  Err=0.0D+00
 Gap=     0.191 Goal=   None    Shift=    0.500
 T=   84. Gap= 0.691 NK=0 IS=   21 IE=   66 IFin=   20
          NO(<0.9)=   0  NV(>0.1)=   0     20.00e < EF      0.00e >EF  Err=0.0D+00
 GapD=    0.191 DampG=1.000 DampE=1.000 DampFc=1.0000 IDamp=-1.
 RMSDP=1.92D-04 MaxDP=2.77D-03 DE=-2.05D-04 OVMax= 7.32D-03

 Cycle   6  Pass 1  IDiag  1:
 Density matrix breaks symmetry, PCut= 1.00D-04
 Density has only Abelian symmetry.
 E= -231.644099248117     Delta-E=       -0.000138023549 Rises=F Damp=F
 DIIS: error= 1.09D-03 at cycle   6 NSaved=   6.
 NSaved= 6 IEnMin= 6 EnMin= -231.644099248117     IErMin= 6 ErrMin= 1.09D-03
 ErrMax= 1.09D-03  0.00D+00 EMaxC= 1.00D+00 BMatC= 2.98D-05 BMatP= 1.01D-04
 IDIUse=1 WtCom= 1.00D+00 WtEn= 0.00D+00
 Coeff-Com:  0.425D-02-0.102D-01 0.105D+00 0.127D+00-0.155D+01 0.233D+01
 Coeff:      0.425D-02-0.102D-01 0.105D+00 0.127D+00-0.155D+01 0.233D+01
 Gap=     0.363 Goal=   None    Shift=    0.500
 Gap=     0.192 Goal=   None    Shift=    0.500
 GapD=    0.192 DampG=1.000 DampE=1.000 DampFc=1.0000 IDamp=-1.
 RMSDP=1.02D-04 MaxDP=1.60D-03 DE=-1.38D-04 OVMax= 4.34D-03

 Cycle   7  Pass 1  IDiag  1:
 Density matrix breaks symmetry, PCut= 1.00D-04
 Density has only Abelian symmetry.
 E= -231.644142239847     Delta-E=       -0.000042991730 Rises=F Damp=F
 DIIS: error= 5.96D-04 at cycle   7 NSaved=   7.
 NSaved= 7 IEnMin= 7 EnMin= -231.644142239847     IErMin= 7 ErrMin= 5.96D-04
 ErrMax= 5.96D-04  0.00D+00 EMaxC= 1.00D+00 BMatC= 8.79D-06 BMatP= 2.98D-05
 IDIUse=1 WtCom= 1.00D+00 WtEn= 0.00D+00
 Coeff-Com: -0.152D-01 0.330D-01-0.133D+00-0.253D+00 0.185D+01-0.432D+01
 Coeff-Com:  0.384D+01
 Coeff:     -0.152D-01 0.330D-01-0.133D+00-0.253D+00 0.185D+01-0.432D+01
 Coeff:      0.384D+01
 Gap=     0.363 Goal=   None    Shift=    0.500
 Gap=     0.192 Goal=   None    Shift=    0.500
 RMSDP=5.42D-05 MaxDP=8.85D-04 DE=-4.30D-05 OVMax= 2.50D-03

 Cycle   8  Pass 1  IDiag  1:
 Density matrix breaks symmetry, PCut= 1.00D-04
 Density has only Abelian symmetry.
 E= -231.644154839059     Delta-E=       -0.000012599212 Rises=F Damp=F
 DIIS: error= 3.13D-04 at cycle   8 NSaved=   8.
 NSaved= 8 IEnMin= 8 EnMin= -231.644154839059     IErMin= 8 ErrMin= 3.13D-04
 ErrMax= 3.13D-04  0.00D+00 EMaxC= 1.00D+00 BMatC= 2.34D-06 BMatP= 8.79D-06
 IDIUse=1 WtCom= 1.00D+00 WtEn= 0.00D+00
 Coeff-Com:  0.213D-02-0.445D-02 0.216D-01 0.193D-01-0.430D+00 0.154D+01
 Coeff-Com: -0.313D+01 0.299D+01
 Coeff:      0.213D-02-0.445D-02 0.216D-01 0.193D-01-0.430D+00 0.154D+01
 Coeff:     -0.313D+01 0.299D+01
 Gap=     0.363 Goal=   None    Shift=    0.500
 Gap=     0.192 Goal=   None    Shift=    0.500
 RMSDP=2.71D-05 MaxDP=4.25D-04 DE=-1.26D-05 OVMax= 1.31D-03

 Cycle   9  Pass 1  IDiag  1:
 Density matrix breaks symmetry, PCut= 1.00D-04
 Density has only Abelian symmetry.
 E= -231.644158082333     Delta-E=       -0.000003243274 Rises=F Damp=F
 DIIS: error= 1.60D-04 at cycle   9 NSaved=   9.
 NSaved= 9 IEnMin= 9 EnMin= -231.644158082333     IErMin= 9 ErrMin= 1.60D-04
 ErrMax= 1.60D-04  0.00D+00 EMaxC= 1.00D+00 BMatC= 5.75D-07 BMatP= 2.34D-06
 IDIUse=1 WtCom= 1.00D+00 WtEn= 0.00D+00
 Coeff-Com: -0.224D-02 0.446D-02-0.119D-01-0.234D-01 0.234D+00-0.773D+00
 Coeff-Com:  0.157D+01-0.288D+01 0.289D+01
 Coeff:     -0.224D-02 0.446D-02-0.119D-01-0.234D-01 0.234D+00-0.773D+00
 Coeff:      0.157D+01-0.288D+01 0.289D+01
 Gap=     0.363 Goal=   None    Shift=    0.500
 Gap=     0.192 Goal=   None    Shift=    0.500
 RMSDP=1.30D-05 MaxDP=1.98D-04 DE=-3.24D-06 OVMax= 6.63D-04

 Cycle  10  Pass 1  IDiag  1:
 Density matrix breaks symmetry, PCut= 1.00D-04
 Density has only Abelian symmetry.
 E= -231.644158872287     Delta-E=       -0.000000789955 Rises=F Damp=F
 DIIS: error= 8.22D-05 at cycle  10 NSaved=  10.
 NSaved=10 IEnMin=10 EnMin= -231.644158872287     IErMin=10 ErrMin= 8.22D-05
 ErrMax= 8.22D-05  0.00D+00 EMaxC= 1.00D+00 BMatC= 1.38D-07 BMatP= 5.75D-07
 IDIUse=1 WtCom= 1.00D+00 WtEn= 0.00D+00
 Coeff-Com:  0.178D-04 0.136D-03-0.157D-02-0.662D-02 0.245D-01-0.357D-01
 Coeff-Com: -0.320D-01 0.418D+00-0.182D+01 0.245D+01
 Coeff:      0.178D-04 0.136D-03-0.157D-02-0.662D-02 0.245D-01-0.357D-01
 Coeff:     -0.320D-01 0.418D+00-0.182D+01 0.245D+01
 Gap=     0.363 Goal=   None    Shift=    0.500
 Gap=     0.192 Goal=   None    Shift=    0.500
 RMSDP=6.27D-06 MaxDP=9.71D-05 DE=-7.90D-07 OVMax= 3.36D-04

 Cycle  11  Pass 1  IDiag  1:
 Density matrix breaks symmetry, PCut= 1.00D-04
 Density has only Abelian symmetry.
 E= -231.644159062063     Delta-E=       -0.000000189776 Rises=F Damp=F
 DIIS: error= 4.18D-05 at cycle  11 NSaved=  11.
 NSaved=11 IEnMin=11 EnMin= -231.644159062063     IErMin=11 ErrMin= 4.18D-05
 ErrMax= 4.18D-05  0.00D+00 EMaxC= 1.00D+00 BMatC= 3.30D-08 BMatP= 1.38D-07
 IDIUse=1 WtCom= 1.00D+00 WtEn= 0.00D+00
 Coeff-Com:  0.205D-03-0.443D-03 0.159D-02 0.375D-02-0.341D-01 0.108D+00
 Coeff-Com: -0.212D+00 0.226D+00 0.232D+00-0.181D+01 0.249D+01
 Coeff:      0.205D-03-0.443D-03 0.159D-02 0.375D-02-0.341D-01 0.108D+00
 Coeff:     -0.212D+00 0.226D+00 0.232D+00-0.181D+01 0.249D+01
 Gap=     0.363 Goal=   None    Shift=    0.500
 Gap=     0.192 Goal=   None    Shift=    0.500
 RMSDP=3.03D-06 MaxDP=4.69D-05 DE=-1.90D-07 OVMax= 1.68D-04

 Cycle  12  Pass 1  IDiag  1:
 Density matrix breaks symmetry, PCut= 1.00D-04
 Density has only Abelian symmetry.
 E= -231.644159107256     Delta-E=       -0.000000045193 Rises=F Damp=F
 DIIS: error= 2.14D-05 at cycle  12 NSaved=  12.
 NSaved=12 IEnMin=12 EnMin= -231.644159107256     IErMin=12 ErrMin= 2.14D-05
 ErrMax= 2.14D-05  0.00D+00 EMaxC= 1.00D+00 BMatC= 7.88D-09 BMatP= 3.30D-08
 IDIUse=1 WtCom= 1.00D+00 WtEn= 0.00D+00
 Coeff-Com: -0.202D-03 0.412D-03-0.879D-03-0.341D-02 0.238D-01-0.745D-01
 Coeff-Com:  0.156D+00-0.250D+00 0.158D+00 0.750D+00-0.290D+01 0.314D+01
 Coeff:     -0.202D-03 0.412D-03-0.879D-03-0.341D-02 0.238D-01-0.745D-01
 Coeff:      0.156D+00-0.250D+00 0.158D+00 0.750D+00-0.290D+01 0.314D+01
 Gap=     0.363 Goal=   None    Shift=    0.500
 Gap=     0.192 Goal=   None    Shift=    0.500
 RMSDP=1.46D-06 MaxDP=2.25D-05 DE=-4.52D-08 OVMax= 8.52D-05

 Cycle  13  Pass 1  IDiag  1:
 Density matrix breaks symmetry, PCut= 1.00D-04
 Density has only Abelian symmetry.
 E= -231.644159118056     Delta-E=       -0.000000010800 Rises=F Damp=F
 DIIS: error= 1.09D-05 at cycle  13 NSaved=  13.
 NSaved=13 IEnMin=13 EnMin= -231.644159118056     IErMin=13 ErrMin= 1.09D-05
 ErrMax= 1.09D-05  0.00D+00 EMaxC= 1.00D+00 BMatC= 1.89D-09 BMatP= 7.88D-09
 IDIUse=1 WtCom= 1.00D+00 WtEn= 0.00D+00
 Coeff-Com:  0.959D-04-0.185D-03 0.397D-03 0.109D-02-0.863D-02 0.270D-01
 Coeff-Com: -0.577D-01 0.965D-01-0.719D-01-0.288D+00 0.143D+01-0.335D+01
 Coeff-Com:  0.322D+01
 Coeff:      0.959D-04-0.185D-03 0.397D-03 0.109D-02-0.863D-02 0.270D-01
 Coeff:     -0.577D-01 0.965D-01-0.719D-01-0.288D+00 0.143D+01-0.335D+01
 Coeff:      0.322D+01
 Gap=     0.363 Goal=   None    Shift=    0.500
 Gap=     0.192 Goal=   None    Shift=    0.500
 RMSDP=7.01D-07 MaxDP=1.09D-05 DE=-1.08D-08 OVMax= 4.29D-05

 Density matrix breaks symmetry, PCut= 1.00D-04
 Density has only Abelian symmetry.
 SCF Done:  E(ULC-wHPBE) =  -231.644159118     A.U. after   13 cycles
            NFock= 13  Conv=0.70D-06     -V/T= 2.0043
 <Sx>= 0.0000 <Sy>= 0.0000 <Sz>= 0.5000 <S**2>= 0.7658 S= 0.5079
 <L.S>= 0.000000000000E+00
 KE= 2.306525463895D+02 PE=-9.349874184415D+02 EE= 2.691467148419D+02
 Annihilation of the first spin contaminant:
 S**2 before annihilation     0.7658,   after     0.7501
 Leave Link  502 at Wed Apr 22 16:20:21 2020, MaxMem=  6710886400 cpu:              17.3 elap:               1.1
 (Enter /opt/ohpc/pub/libs/gaussian/g16-A.03/sandybridge/g16/l508.exe)
 QCSCF skips out because SCF is already converged.
 Leave Link  508 at Wed Apr 22 16:20:21 2020, MaxMem=  6710886400 cpu:               0.2 elap:               0.0
 (Enter /opt/ohpc/pub/libs/gaussian/g16-A.03/sandybridge/g16/l601.exe)
 Copying SCF densities to generalized density rwf, IOpCl= 1 IROHF=0.
 SCF density gives NOpUse=  8 NOpAll= 24.
 Marking SCF density as not fully symmetric.

 **********************************************************************

            Population analysis using the SCF density.

 **********************************************************************

 Orbital symmetries:
 Alpha Orbitals:
       Occupied  (?A) (?A) (?A) (?A) (?A) (?A) (?B) (?B) (?B) (?B)
                 (?B) (?B) (?B) (?B) (?B) (?B) (?C) (?B) (?B) (?C)
                 (?C)
       Virtual   (?C) (?C) (?B) (?C) (?B) (?B) (?B) (?B) (?B) (?B)
                 (?B) (?B) (?B) (?B) (?C) (?B) (?B) (?B) (?C) (?C)
                 (?B) (?B) (?B) (?C) (?B) (?B) (?C) (?C) (?B) (?B)
                 (?B) (?B) (?B) (?B) (?B) (?B) (?B) (?B) (?B) (?B)
                 (?B) (?B) (?B) (?B) (?B)
 Beta  Orbitals:
       Occupied  (?A) (?A) (?A) (?A) (?A) (?A) (?B) (B2G) (B2G)
                 (?B) (?B) (?B) (B2G) (B2G) (B2G) (B2G) (?C) (?B)
                 (?B) (E1G)
       Virtual   (E1G) (?C) (?C) (?D) (B2G) (B2G) (B2G) (?D) (?D)
                 (B2G) (?D) (?D) (B2G) (B2G) (B2G) (A2U) (B2G)
                 (?D) (?D) (?C) (?C) (?D) (?D) (?D) (B2G) (B2G)
                 (E2U) (E2U) (?C) (?D) (?A) (?A) (?D) (?D) (?A)
                 (?D) (?D) (?D) (?D) (?D) (?D) (?D) (?D) (E2G)
                 (E2G) (B1U)
 Unable to determine electronic state:  an orbital has unidentified symmetry.
 Alpha  occ. eigenvalues --  -10.27856 -10.27854 -10.27832 -10.27827 -10.24376
 Alpha  occ. eigenvalues --  -10.24373  -1.16156  -1.05939  -1.03531  -0.89954
 Alpha  occ. eigenvalues --   -0.89905  -0.81907  -0.75494  -0.74230  -0.72427
 Alpha  occ. eigenvalues --   -0.70537  -0.69397  -0.63399  -0.63119  -0.58800
 Alpha  occ. eigenvalues --   -0.55414
 Alpha virt. eigenvalues --   -0.19083  -0.16153  -0.02760  -0.01189   0.02319
 Alpha virt. eigenvalues --    0.03358   0.05714   0.06707   0.08173   0.15654
 Alpha virt. eigenvalues --    0.16128   0.16877   0.17406   0.35494   0.35960
 Alpha virt. eigenvalues --    0.38089   0.40871   0.41168   0.44070   0.46154
 Alpha virt. eigenvalues --    0.46219   0.46701   0.49899   0.50314   0.50831
 Alpha virt. eigenvalues --    0.51246   0.52110   0.59491   0.69132   0.70686
 Alpha virt. eigenvalues --    0.71936   0.75141   0.76666   0.82283   0.82548
 Alpha virt. eigenvalues --    0.84979   0.84997   0.97202   0.98679   1.03051
 Alpha virt. eigenvalues --    1.03938   1.08146   1.30302   1.30525   1.75827
  Beta  occ. eigenvalues --  -10.27406 -10.27406 -10.27384 -10.27379 -10.24538
  Beta  occ. eigenvalues --  -10.24535  -1.15125  -1.04011  -1.03273  -0.89425
  Beta  occ. eigenvalues --   -0.89029  -0.81610  -0.75018  -0.73793  -0.71921
  Beta  occ. eigenvalues --   -0.70529  -0.65719  -0.63176  -0.62829  -0.54965
  Beta virt. eigenvalues --   -0.35762  -0.14766  -0.14741  -0.02576   0.00937
  Beta virt. eigenvalues --    0.02575   0.03413   0.06515   0.06885   0.08509
  Beta virt. eigenvalues --    0.16244   0.16342   0.17368   0.17776   0.35841
  Beta virt. eigenvalues --    0.37464   0.39161   0.41242   0.41641   0.46591
  Beta virt. eigenvalues --    0.46601   0.46844   0.47242   0.50233   0.51545
  Beta virt. eigenvalues --    0.51858   0.52396   0.52573   0.60509   0.69406
  Beta virt. eigenvalues --    0.71002   0.72024   0.75772   0.76720   0.82526
  Beta virt. eigenvalues --    0.82763   0.85296   0.85921   0.98536   0.99018
  Beta virt. eigenvalues --    1.03945   1.04068   1.08678   1.30870   1.31390
  Beta virt. eigenvalues --    1.76678
          Condensed to atoms (all electrons):
               1          2          3          4          5          6
     1  C    4.906864   0.517805  -0.062139  -0.026364  -0.062139   0.517805
     2  C    0.517805   4.965134   0.414125  -0.062139  -0.026438  -0.048112
     3  C   -0.062139   0.414125   4.965134   0.517805  -0.048112  -0.026438
     4  C   -0.026364  -0.062139   0.517805   4.906864   0.517805  -0.062139
     5  C   -0.062139  -0.026438  -0.048112   0.517805   4.965134   0.414125
     6  C    0.517805  -0.048112  -0.026438  -0.062139   0.414125   4.965134
     7  H    0.370033  -0.026127   0.003735   0.000072   0.003735  -0.026127
     8  H   -0.022753   0.364598  -0.030212   0.003460   0.000079   0.003643
     9  H    0.003460  -0.030212   0.364598  -0.022753   0.003643   0.000079
    10  H    0.000072   0.003735  -0.026127   0.370033  -0.026127   0.003735
    11  H    0.003460   0.000079   0.003643  -0.022753   0.364598  -0.030212
    12  H   -0.022753   0.003643   0.000079   0.003460  -0.030212   0.364598
               7          8          9         10         11         12
     1  C    0.370033  -0.022753   0.003460   0.000072   0.003460  -0.022753
     2  C   -0.026127   0.364598  -0.030212   0.003735   0.000079   0.003643
     3  C    0.003735  -0.030212   0.364598  -0.026127   0.003643   0.000079
     4  C    0.000072   0.003460  -0.022753   0.370033  -0.022753   0.003460
     5  C    0.003735   0.000079   0.003643  -0.026127   0.364598  -0.030212
     6  C   -0.026127   0.003643   0.000079   0.003735  -0.030212   0.364598
     7  H    0.432787  -0.003208  -0.000080   0.000003  -0.000080  -0.003208
     8  H   -0.003208   0.423919  -0.002907  -0.000080   0.000005  -0.000076
     9  H   -0.000080  -0.002907   0.423919  -0.003208  -0.000076   0.000005
    10  H    0.000003  -0.000080  -0.003208   0.432787  -0.003208  -0.000080
    11  H   -0.000080   0.000005  -0.000076  -0.003208   0.423919  -0.002907
    12  H   -0.003208  -0.000076   0.000005  -0.000080  -0.002907   0.423919
          Atomic-Atomic Spin Densities.
               1          2          3          4          5          6
     1  C   -0.147456  -0.007670  -0.006284   0.005662  -0.006284  -0.007670
     2  C   -0.007670   0.338521   0.037936  -0.006284  -0.007480  -0.005893
     3  C   -0.006284   0.037936   0.338521  -0.007670  -0.005893  -0.007480
     4  C    0.005662  -0.006284  -0.007670  -0.147456  -0.007670  -0.006284
     5  C   -0.006284  -0.007480  -0.005893  -0.007670   0.338521   0.037936
     6  C   -0.007670  -0.005893  -0.007480  -0.006284   0.037936   0.338521
     7  H    0.001616  -0.001045   0.000183  -0.000070   0.000183  -0.001045
     8  H   -0.000004   0.000996  -0.001826   0.000009  -0.000064   0.000085
     9  H    0.000009  -0.001826   0.000996  -0.000004   0.000085  -0.000064
    10  H   -0.000070   0.000183  -0.001045   0.001616  -0.001045   0.000183
    11  H    0.000009  -0.000064   0.000085  -0.000004   0.000996  -0.001826
    12  H   -0.000004   0.000085  -0.000064   0.000009  -0.001826   0.000996
               7          8          9         10         11         12
     1  C    0.001616  -0.000004   0.000009  -0.000070   0.000009  -0.000004
     2  C   -0.001045   0.000996  -0.001826   0.000183  -0.000064   0.000085
     3  C    0.000183  -0.001826   0.000996  -0.001045   0.000085  -0.000064
     4  C   -0.000070   0.000009  -0.000004   0.001616  -0.000004   0.000009
     5  C    0.000183  -0.000064   0.000085  -0.001045   0.000996  -0.001826
     6  C   -0.001045   0.000085  -0.000064   0.000183  -0.001826   0.000996
     7  H    0.003829   0.000006   0.000004  -0.000001   0.000004   0.000006
     8  H    0.000006  -0.014402  -0.000033   0.000004  -0.000000   0.000005
     9  H    0.000004  -0.000033  -0.014402   0.000006   0.000005  -0.000000
    10  H   -0.000001   0.000004   0.000006   0.003829   0.000006   0.000004
    11  H    0.000004  -0.000000   0.000005   0.000006  -0.014402  -0.000033
    12  H    0.000006   0.000005  -0.000000   0.000004  -0.000033  -0.014402
 Mulliken charges and spin densities:
               1          2
     1  C   -0.123348  -0.168144
     2  C   -0.076091   0.347460
     3  C   -0.076091   0.347460
     4  C   -0.123348  -0.168144
     5  C   -0.076091   0.347460
     6  C   -0.076091   0.347460
     7  H    0.248464   0.003671
     8  H    0.263533  -0.015223
     9  H    0.263533  -0.015223
    10  H    0.248464   0.003671
    11  H    0.263533  -0.015223
    12  H    0.263533  -0.015223
 Sum of Mulliken charges =   1.00000   1.00000
 Mulliken charges and spin densities with hydrogens summed into heavy atoms:
               1          2
     1  C    0.125116  -0.164473
     2  C    0.187442   0.332236
     3  C    0.187442   0.332236
     4  C    0.125116  -0.164473
     5  C    0.187442   0.332236
     6  C    0.187442   0.332236
 Electronic spatial extent (au):  <R**2>=            437.2307
 Charge=              1.0000 electrons
 Dipole moment (field-independent basis, Debye):
    X=             -0.0000    Y=              0.0000    Z=             -0.0000  Tot=              0.0000
 Quadrupole moment (field-independent basis, Debye-Ang):
   XX=            -18.2953   YY=            -21.6274   ZZ=            -34.9240
   XY=              0.0000   XZ=              0.0000   YZ=              0.0000
 Traceless Quadrupole moment (field-independent basis, Debye-Ang):
   XX=              6.6536   YY=              3.3215   ZZ=             -9.9751
   XY=              0.0000   XZ=              0.0000   YZ=              0.0000
 Octapole moment (field-independent basis, Debye-Ang**2):
  XXX=              0.0000  YYY=              0.0000  ZZZ=              0.0000  XYY=             -0.0000
  XXY=             -0.0000  XXZ=              0.0000  XZZ=              0.0000  YZZ=              0.0000
  YYZ=              0.0000  XYZ=              0.0000
 Hexadecapole moment (field-independent basis, Debye-Ang**3):
 XXXX=           -197.6281 YYYY=           -210.5337 ZZZZ=            -33.9274 XXXY=              0.0000
 XXXZ=              0.0000 YYYX=              0.0000 YYYZ=              0.0000 ZZZX=             -0.0000
 ZZZY=             -0.0000 XXYY=            -66.6949 XXZZ=            -52.0369 YYZZ=            -55.0340
 XXYZ=              0.0000 YYXZ=              0.0000 ZZXY=              0.0000
 N-N= 2.035439980921D+02 E-N=-9.349874189326D+02  KE= 2.306525463895D+02
 Symmetry AG   KE= 7.453450243849D+01
 Symmetry B1G  KE= 3.776401952707D+01
 Symmetry B2G  KE= 1.201925031639D+00
 Symmetry B3G  KE= 2.355892610541D+00
 Symmetry AU   KE=-1.210268676403D-17
 Symmetry B1U  KE= 1.963182362701D+00
 Symmetry B2U  KE= 7.222060393107D+01
 Symmetry B3U  KE= 4.061242048803D+01
 Symmetry AG   SP=-1.048857181662D-15
 Symmetry B1G  SP=-4.623761853132D-15
 Symmetry B2G  SP= 1.000000000000D+00
 Symmetry B3G  SP=-1.516405816020D-15
 Symmetry AU   SP= 1.118009310439D-17
 Symmetry B1U  SP= 1.368374950026D-15
 Symmetry B2U  SP= 1.737761613752D-14
 Symmetry B3U  SP= 6.972449961146D-15
                          Isotropic Fermi Contact Couplings
        Atom                 a.u.       MegaHertz       Gauss      10(-4) cm-1
     1  C(13)             -0.02687     -30.20218     -10.77689     -10.07436
     2  C(13)              0.04115      46.25923      16.50644      15.43042
     3  C(13)              0.04115      46.25923      16.50644      15.43042
     4  C(13)             -0.02687     -30.20218     -10.77689     -10.07436
     5  C(13)              0.04115      46.25923      16.50644      15.43042
     6  C(13)              0.04115      46.25923      16.50644      15.43042
     7  H(1)               0.00139       6.22316       2.22058       2.07582
     8  H(1)              -0.00591     -26.43285      -9.43190      -8.81705
     9  H(1)              -0.00591     -26.43285      -9.43190      -8.81705
    10  H(1)               0.00139       6.22316       2.22058       2.07582
    11  H(1)              -0.00591     -26.43285      -9.43190      -8.81705
    12  H(1)              -0.00591     -26.43285      -9.43190      -8.81705
 --------------------------------------------------------
       Center         ----  Spin Dipole Couplings  ----
                      3XX-RR        3YY-RR        3ZZ-RR
 --------------------------------------------------------
     1   Atom        0.056039      0.048311     -0.104349
     2   Atom       -0.180597     -0.172947      0.353545
     3   Atom       -0.180597     -0.172947      0.353545
     4   Atom        0.056039      0.048311     -0.104349
     5   Atom       -0.180597     -0.172947      0.353545
     6   Atom       -0.180597     -0.172947      0.353545
     7   Atom        0.004581      0.001090     -0.005671
     8   Atom        0.011197     -0.003656     -0.007541
     9   Atom        0.011197     -0.003656     -0.007541
    10   Atom        0.004581      0.001090     -0.005671
    11   Atom        0.011197     -0.003656     -0.007541
    12   Atom        0.011197     -0.003656     -0.007541
 --------------------------------------------------------
                        XY            XZ            YZ
 --------------------------------------------------------
     1   Atom        0.000000      0.000000      0.000000
     2   Atom       -0.004310     -0.000000     -0.000000
     3   Atom        0.004310     -0.000000      0.000000
     4   Atom       -0.000000      0.000000     -0.000000
     5   Atom       -0.004310      0.000000      0.000000
     6   Atom        0.004310      0.000000     -0.000000
     7   Atom        0.000000     -0.000000     -0.000000
     8   Atom       -0.027324     -0.000000      0.000000
     9   Atom        0.027324     -0.000000     -0.000000
    10   Atom       -0.000000     -0.000000      0.000000
    11   Atom       -0.027324      0.000000     -0.000000
    12   Atom        0.027324      0.000000      0.000000
 --------------------------------------------------------


 ---------------------------------------------------------------------------------
              Anisotropic Spin Dipole Couplings in Principal Axis System
 ---------------------------------------------------------------------------------

       Atom             a.u.   MegaHertz   Gauss  10(-4) cm-1        Axes

              Baa    -0.1043   -14.003    -4.997    -4.671  0.0000  0.0000  1.0000
     1 C(13)  Bbb     0.0483     6.483     2.313     2.162 -0.0000  1.0000 -0.0000
              Bcc     0.0560     7.520     2.683     2.508  1.0000  0.0000 -0.0000
 
              Baa    -0.1825   -24.494    -8.740    -8.170  0.9121  0.4100 -0.0000
     2 C(13)  Bbb    -0.1710   -22.948    -8.188    -7.655 -0.4100  0.9121  0.0000
              Bcc     0.3535    47.442    16.929    15.825  0.0000  0.0000  1.0000
 
              Baa    -0.1825   -24.494    -8.740    -8.170  0.9121 -0.4100  0.0000
     3 C(13)  Bbb    -0.1710   -22.948    -8.188    -7.655  0.4100  0.9121  0.0000
              Bcc     0.3535    47.442    16.929    15.825  0.0000  0.0000  1.0000
 
              Baa    -0.1043   -14.003    -4.997    -4.671  0.0000  0.0000  1.0000
     4 C(13)  Bbb     0.0483     6.483     2.313     2.162  0.0000  1.0000  0.0000
              Bcc     0.0560     7.520     2.683     2.508  1.0000 -0.0000  0.0000
 
              Baa    -0.1825   -24.494    -8.740    -8.170  0.9121  0.4100 -0.0000
     5 C(13)  Bbb    -0.1710   -22.948    -8.188    -7.655 -0.4100  0.9121  0.0000
              Bcc     0.3535    47.442    16.929    15.825  0.0000  0.0000  1.0000
 
              Baa    -0.1825   -24.494    -8.740    -8.170  0.9121 -0.4100  0.0000
     6 C(13)  Bbb    -0.1710   -22.948    -8.188    -7.655  0.4100  0.9121  0.0000
              Bcc     0.3535    47.442    16.929    15.825  0.0000  0.0000  1.0000
 
              Baa    -0.0057    -3.026    -1.080    -1.009  0.0000  0.0000  1.0000
     7 H(1)   Bbb     0.0011     0.582     0.208     0.194 -0.0000  1.0000 -0.0000
              Bcc     0.0046     2.444     0.872     0.815  1.0000  0.0000 -0.0000
 
              Baa    -0.0245   -13.096    -4.673    -4.368  0.6073  0.7944  0.0000
     8 H(1)   Bbb    -0.0075    -4.024    -1.436    -1.342  0.0000  0.0000  1.0000
              Bcc     0.0321    17.120     6.109     5.710  0.7944 -0.6073  0.0000
 
              Baa    -0.0245   -13.096    -4.673    -4.368 -0.6073  0.7944  0.0000
     9 H(1)   Bbb    -0.0075    -4.024    -1.436    -1.342  0.0000  0.0000  1.0000
              Bcc     0.0321    17.120     6.109     5.710  0.7944  0.6073 -0.0000
 
              Baa    -0.0057    -3.026    -1.080    -1.009  0.0000  0.0000  1.0000
    10 H(1)   Bbb     0.0011     0.582     0.208     0.194  0.0000  1.0000  0.0000
              Bcc     0.0046     2.444     0.872     0.815  1.0000 -0.0000  0.0000
 
              Baa    -0.0245   -13.096    -4.673    -4.368  0.6073  0.7944  0.0000
    11 H(1)   Bbb    -0.0075    -4.024    -1.436    -1.342  0.0000  0.0000  1.0000
              Bcc     0.0321    17.120     6.109     5.710  0.7944 -0.6073  0.0000
 
              Baa    -0.0245   -13.096    -4.673    -4.368 -0.6073  0.7944  0.0000
    12 H(1)   Bbb    -0.0075    -4.024    -1.436    -1.342  0.0000  0.0000  1.0000
              Bcc     0.0321    17.120     6.109     5.710  0.7944  0.6073 -0.0000
 

 ---------------------------------------------------------------------------------

 No NMR shielding tensors so no spin-rotation constants.
 Leave Link  601 at Wed Apr 22 16:20:21 2020, MaxMem=  6710886400 cpu:               3.3 elap:               0.2
 (Enter /opt/ohpc/pub/libs/gaussian/g16-A.03/sandybridge/g16/l9999.exe)

 Test job not archived.
 1\1\GINC-CNODE136\SP\ULC-wHPBE\6-31G\C6H6(1+,2)\QAI222\22-Apr-2020\0\\
 #P uLC-wHPBE/6-31G iop(3/107=0221900000, 3/108=0221900000) scf=(conver
 =6,fermi,ndamp=35,noincfock,novaracc,vshift=500,xqc)\\H6 C6\\1,2\C,0,0
 .,1.39316,0.\C,0,-1.206512,0.69658,0.\C,0,-1.206512,-0.69658,0.\C,0,0.
 ,-1.39316,0.\C,0,1.206512,-0.69658,0.\C,0,1.206512,0.69658,0.\H,0,0.,2
 .482681,0.\H,0,-2.150065,1.24134,0.\H,0,-2.150065,-1.24134,0.\H,0,0.,-
 2.482681,0.\H,0,2.150065,-1.24134,0.\H,0,2.150065,1.24134,0.\\Version=
 EM64L-G16RevA.03\HF=-231.6441591\S2=0.765775\S2-1=0.\S2A=0.750134\RMSD
 =7.011e-07\Dipole=0.,0.,0.\Quadrupole=4.9467915,2.4694571,-7.4162486,0
 .,0.,0.\PG=D06H [3C2'(H1C1.C1H1)]\\@


 ERROR IS THE FORCE THAT WELDS MEN TOGETHER....
 TRUTH IS COMMUNICATED TO MEN ONLY BY DEEDS OF TRUTH.
           TOLSTOI,MY RELIGION
 Job cpu time:       0 days  0 hours  0 minutes 42.0 seconds.
 Elapsed time:       0 days  0 hours  0 minutes  2.9 seconds.
 File lengths (MBytes):  RWF=    272 Int=      0 D2E=      0 Chk=     32 Scr=     32
 Normal termination of Gaussian 16 at Wed Apr 22 16:20:21 2020.
