 Entering Gaussian System, Link 0=g16
 Input=1b_tune_c4.gjf
 Output=1b_tune_c4.log
 Initial command:
 /opt/ohpc/pub/libs/gaussian/g16-A.03/sandybridge/g16/l1.exe "/pscratch/cmri235_uksr/ocelot/fw/dev/ocelot_api/tests/wtuning_test/1b/tuning_1b_ocycle0/Gau-60451.inp" -scrdir="/pscratch/cmri235_uksr/ocelot/fw/dev/ocelot_api/tests/wtuning_test/1b/tuning_1b_ocycle0/"
 Entering Link 1 = /opt/ohpc/pub/libs/gaussian/g16-A.03/sandybridge/g16/l1.exe PID=     60452.
  
 Copyright (c) 1988,1990,1992,1993,1995,1998,2003,2009,2016,
            Gaussian, Inc.  All Rights Reserved.
  
 This is part of the Gaussian(R) 16 program.  It is based on
 the Gaussian(R) 09 system (copyright 2009, Gaussian, Inc.),
 the Gaussian(R) 03 system (copyright 2003, Gaussian, Inc.),
 the Gaussian(R) 98 system (copyright 1998, Gaussian, Inc.),
 the Gaussian(R) 94 system (copyright 1995, Gaussian, Inc.),
 the Gaussian 92(TM) system (copyright 1992, Gaussian, Inc.),
 the Gaussian 90(TM) system (copyright 1990, Gaussian, Inc.),
 the Gaussian 88(TM) system (copyright 1988, Gaussian, Inc.),
 the Gaussian 86(TM) system (copyright 1986, Carnegie Mellon
 University), and the Gaussian 82(TM) system (copyright 1983,
 Carnegie Mellon University). Gaussian is a federally registered
 trademark of Gaussian, Inc.
  
 This software contains proprietary and confidential information,
 including trade secrets, belonging to Gaussian, Inc.
  
 This software is provided under written license and may be
 used, copied, transmitted, or stored only in accord with that
 written license.
  
 The following legend is applicable only to US Government
 contracts under FAR:
  
                    RESTRICTED RIGHTS LEGEND
  
 Use, reproduction and disclosure by the US Government is
 subject to restrictions as set forth in subparagraphs (a)
 and (c) of the Commercial Computer Software - Restricted
 Rights clause in FAR 52.227-19.
  
 Gaussian, Inc.
 340 Quinnipiac St., Bldg. 40, Wallingford CT 06492
  
  
 ---------------------------------------------------------------
 Warning -- This program may not be used in any manner that
 competes with the business of Gaussian, Inc. or will provide
 assistance to any competitor of Gaussian, Inc.  The licensee
 of this program is prohibited from giving any competitor of
 Gaussian, Inc. access to this program.  By using this program,
 the user acknowledges that Gaussian, Inc. is engaged in the
 business of creating and licensing software in the field of
 computational chemistry and represents and warrants to the
 licensee that it is not a competitor of Gaussian, Inc. and that
 it will not use this program in any manner prohibited above.
 ---------------------------------------------------------------
  

 Cite this work as:
 Gaussian 16, Revision A.03,
 M. J. Frisch, G. W. Trucks, H. B. Schlegel, G. E. Scuseria, 
 M. A. Robb, J. R. Cheeseman, G. Scalmani, V. Barone, 
 G. A. Petersson, H. Nakatsuji, X. Li, M. Caricato, A. V. Marenich, 
 J. Bloino, B. G. Janesko, R. Gomperts, B. Mennucci, H. P. Hratchian, 
 J. V. Ortiz, A. F. Izmaylov, J. L. Sonnenberg, D. Williams-Young, 
 F. Ding, F. Lipparini, F. Egidi, J. Goings, B. Peng, A. Petrone, 
 T. Henderson, D. Ranasinghe, V. G. Zakrzewski, J. Gao, N. Rega, 
 G. Zheng, W. Liang, M. Hada, M. Ehara, K. Toyota, R. Fukuda, 
 J. Hasegawa, M. Ishida, T. Nakajima, Y. Honda, O. Kitao, H. Nakai, 
 T. Vreven, K. Throssell, J. A. Montgomery, Jr., J. E. Peralta, 
 F. Ogliaro, M. J. Bearpark, J. J. Heyd, E. N. Brothers, K. N. Kudin, 
 V. N. Staroverov, T. A. Keith, R. Kobayashi, J. Normand, 
 K. Raghavachari, A. P. Rendell, J. C. Burant, S. S. Iyengar, 
 J. Tomasi, M. Cossi, J. M. Millam, M. Klene, C. Adamo, R. Cammi, 
 J. W. Ochterski, R. L. Martin, K. Morokuma, O. Farkas, 
 J. B. Foresman, and D. J. Fox, Gaussian, Inc., Wallingford CT, 2016.
 
 ******************************************
 Gaussian 16:  EM64L-G16RevA.03 25-Dec-2016
                16-Mar-2020 
 ******************************************
 %mem=50GB
 %nproc=16
 Will use up to   16 processors via shared memory.
 ----------------------------------------------------------------------
 #P uLC-wHPBE/6-31G iop(3/107=0283700000, 3/108=0283700000) scf=(conver
 =6,fermi,ndamp=35,noincfock,novaracc,vshift=500,xqc)
 ----------------------------------------------------------------------
 1/38=1,172=1/1;
 2/12=2,17=6,18=5,40=1/2;
 3/5=1,6=6,11=2,25=1,30=1,74=-71,107=283700000,108=283700000,116=2/1,2,3;
 4//1;
 5/5=100002,6=6,8=3,10=500,13=1,18=-1,22=13,38=1,93=35/2,8;
 6/7=2,8=2,9=2,10=2,28=1/1;
 99/5=1,9=1/99;
 Leave Link    1 at Mon Mar 16 03:49:34 2020, MaxMem=  6710886400 cpu:              16.8 elap:               1.1
 (Enter /opt/ohpc/pub/libs/gaussian/g16-A.03/sandybridge/g16/l101.exe)
 -----
 H6 C6
 -----
 Symbolic Z-matrix:
 Charge =  1 Multiplicity = 2
 C                     0.        1.39316   0. 
 C                    -1.20651   0.69658   0. 
 C                    -1.20651  -0.69658   0. 
 C                     0.       -1.39316   0. 
 C                     1.20651  -0.69658   0. 
 C                     1.20651   0.69658   0. 
 H                     0.        2.48268   0. 
 H                    -2.15007   1.24134   0. 
 H                    -2.15007  -1.24134   0. 
 H                     0.       -2.48268   0. 
 H                     2.15007  -1.24134   0. 
 H                     2.15007   1.24134   0. 
 
 ITRead=  0  0  0  0  0  0  0  0  0  0  0  0
 MicOpt= -1 -1 -1 -1 -1 -1 -1 -1 -1 -1 -1 -1
 NAtoms=     12 NQM=       12 NQMF=       0 NMMI=      0 NMMIF=      0
                NMic=       0 NMicF=      0.
                    Isotopes and Nuclear Properties:
 (Nuclear quadrupole moments (NQMom) in fm**2, nuclear magnetic moments (NMagM)
  in nuclear magnetons)

  Atom         1           2           3           4           5           6           7           8           9          10
 IAtWgt=          12          12          12          12          12          12           1           1           1           1
 AtmWgt=  12.0000000  12.0000000  12.0000000  12.0000000  12.0000000  12.0000000   1.0078250   1.0078250   1.0078250   1.0078250
 NucSpn=           0           0           0           0           0           0           1           1           1           1
 AtZEff=  -0.0000000  -0.0000000  -0.0000000  -0.0000000  -0.0000000  -0.0000000  -0.0000000  -0.0000000  -0.0000000  -0.0000000
 NQMom=    0.0000000   0.0000000   0.0000000   0.0000000   0.0000000   0.0000000   0.0000000   0.0000000   0.0000000   0.0000000
 NMagM=    0.0000000   0.0000000   0.0000000   0.0000000   0.0000000   0.0000000   2.7928460   2.7928460   2.7928460   2.7928460
 AtZNuc=   6.0000000   6.0000000   6.0000000   6.0000000   6.0000000   6.0000000   1.0000000   1.0000000   1.0000000   1.0000000

  Atom        11          12
 IAtWgt=           1           1
 AtmWgt=   1.0078250   1.0078250
 NucSpn=           1           1
 AtZEff=  -0.0000000  -0.0000000
 NQMom=    0.0000000   0.0000000
 NMagM=    2.7928460   2.7928460
 AtZNuc=   1.0000000   1.0000000
 Leave Link  101 at Mon Mar 16 03:49:34 2020, MaxMem=  6710886400 cpu:               2.4 elap:               0.2
 (Enter /opt/ohpc/pub/libs/gaussian/g16-A.03/sandybridge/g16/l202.exe)
                          Input orientation:                          
 ---------------------------------------------------------------------
 Center     Atomic      Atomic             Coordinates (Angstroms)
 Number     Number       Type             X           Y           Z
 ---------------------------------------------------------------------
      1          6           0        0.000000    1.393160    0.000000
      2          6           0       -1.206512    0.696580    0.000000
      3          6           0       -1.206512   -0.696580    0.000000
      4          6           0        0.000000   -1.393160    0.000000
      5          6           0        1.206512   -0.696580    0.000000
      6          6           0        1.206512    0.696580    0.000000
      7          1           0        0.000000    2.482681    0.000000
      8          1           0       -2.150065    1.241340    0.000000
      9          1           0       -2.150065   -1.241340    0.000000
     10          1           0        0.000000   -2.482681    0.000000
     11          1           0        2.150065   -1.241340    0.000000
     12          1           0        2.150065    1.241340    0.000000
 ---------------------------------------------------------------------
                    Distance matrix (angstroms):
                    1          2          3          4          5
     1  C    0.000000
     2  C    1.393160   0.000000
     3  C    2.413024   1.393160   0.000000
     4  C    2.786320   2.413024   1.393160   0.000000
     5  C    2.413024   2.786320   2.413024   1.393160   0.000000
     6  C    1.393160   2.413024   2.786320   2.413024   1.393160
     7  H    1.089521   2.155418   3.400496   3.875841   3.400496
     8  H    2.155418   1.089521   2.155418   3.400496   3.875841
     9  H    3.400496   2.155418   1.089521   2.155418   3.400496
    10  H    3.875841   3.400496   2.155418   1.089521   2.155418
    11  H    3.400496   3.875841   3.400496   2.155418   1.089521
    12  H    2.155418   3.400496   3.875841   3.400496   2.155418
                    6          7          8          9         10
     6  C    0.000000
     7  H    2.155418   0.000000
     8  H    3.400496   2.482681   0.000000
     9  H    3.875841   4.300129   2.482680   0.000000
    10  H    3.400496   4.965362   4.300129   2.482681   0.000000
    11  H    2.155418   4.300129   4.965362   4.300130   2.482681
    12  H    1.089521   2.482681   4.300130   4.965362   4.300129
                   11         12
    11  H    0.000000
    12  H    2.482680   0.000000
 Stoichiometry    C6H6(1+,2)
 Framework group  D6H[3C2'(HC.CH)]
 Deg. of freedom     2
 Full point group                 D6H     NOp  24
 Largest Abelian subgroup         D2H     NOp   8
 Largest concise Abelian subgroup D2      NOp   4
                         Standard orientation:                         
 ---------------------------------------------------------------------
 Center     Atomic      Atomic             Coordinates (Angstroms)
 Number     Number       Type             X           Y           Z
 ---------------------------------------------------------------------
      1          6           0       -0.000000    1.393160   -0.000000
      2          6           0       -1.206512    0.696580   -0.000000
      3          6           0       -1.206512   -0.696580   -0.000000
      4          6           0       -0.000000   -1.393160   -0.000000
      5          6           0        1.206512   -0.696580   -0.000000
      6          6           0        1.206512    0.696580   -0.000000
      7          1           0        0.000000    2.482681   -0.000000
      8          1           0       -2.150065    1.241341   -0.000000
      9          1           0       -2.150065   -1.241340   -0.000000
     10          1           0       -0.000000   -2.482681   -0.000000
     11          1           0        2.150065   -1.241341   -0.000000
     12          1           0        2.150065    1.241340   -0.000000
 ---------------------------------------------------------------------
 Rotational constants (GHZ):           5.7099798           5.7099798           2.8549899
 Leave Link  202 at Mon Mar 16 03:49:34 2020, MaxMem=  6710886400 cpu:               0.3 elap:               0.0
 (Enter /opt/ohpc/pub/libs/gaussian/g16-A.03/sandybridge/g16/l301.exe)
 Standard basis: 6-31G (6D, 7F)
 Ernie: Thresh=  0.10000D-02 Tol=  0.10000D-05 Strict=F.
 There are    16 symmetry adapted cartesian basis functions of AG  symmetry.
 There are    11 symmetry adapted cartesian basis functions of B1G symmetry.
 There are     2 symmetry adapted cartesian basis functions of B2G symmetry.
 There are     4 symmetry adapted cartesian basis functions of B3G symmetry.
 There are     2 symmetry adapted cartesian basis functions of AU  symmetry.
 There are     4 symmetry adapted cartesian basis functions of B1U symmetry.
 There are    16 symmetry adapted cartesian basis functions of B2U symmetry.
 There are    11 symmetry adapted cartesian basis functions of B3U symmetry.
 There are    16 symmetry adapted basis functions of AG  symmetry.
 There are    11 symmetry adapted basis functions of B1G symmetry.
 There are     2 symmetry adapted basis functions of B2G symmetry.
 There are     4 symmetry adapted basis functions of B3G symmetry.
 There are     2 symmetry adapted basis functions of AU  symmetry.
 There are     4 symmetry adapted basis functions of B1U symmetry.
 There are    16 symmetry adapted basis functions of B2U symmetry.
 There are    11 symmetry adapted basis functions of B3U symmetry.
    66 basis functions,   156 primitive gaussians,    66 cartesian basis functions
    21 alpha electrons       20 beta electrons
       nuclear repulsion energy       203.5439980921 Hartrees.
 IExCor=33909 DFT=T Ex+Corr=LC-wHPBE ExCW=0 ScaHFX=  1.000000
 ScaDFX=  1.000000  1.000000  1.000000  1.000000 ScalE2=  1.000000  1.000000
 IRadAn=      5 IRanWt=     -1 IRanGd=            0 ICorTp=0 IEmpDi=  4
 HFx  wShort=  0.000000 wLong=  0.283700 cFull=  0.000000 cShort=  0.000000 cLong=  1.000000
 DFx  wShort=  0.000000 wLong=  0.283700 cFull=  0.000000 cShort=  1.000000 cLong=  0.000000
 NAtoms=   12 NActive=   12 NUniq=    2 SFac= 4.00D+00 NAtFMM=   60 NAOKFM=F Big=F
 Integral buffers will be    131072 words long.
 Raffenetti 2 integral format.
 Two-electron integral symmetry is turned on.
 Leave Link  301 at Mon Mar 16 03:49:34 2020, MaxMem=  6710886400 cpu:               1.0 elap:               0.1
 (Enter /opt/ohpc/pub/libs/gaussian/g16-A.03/sandybridge/g16/l302.exe)
 NPDir=0 NMtPBC=     1 NCelOv=     1 NCel=       1 NClECP=     1 NCelD=      1
         NCelK=      1 NCelE2=     1 NClLst=     1 CellRange=     0.0.
 One-electron integrals computed using PRISM.
 One-electron integral symmetry used in STVInt
 NBasis=    66 RedAO= T EigKep=  6.87D-04  NBF=    16    11     2     4     2     4    16    11
 NBsUse=    66 1.00D-06 EigRej= -1.00D+00 NBFU=    16    11     2     4     2     4    16    11
 Precomputing XC quadrature grid using
 IXCGrd= 4 IRadAn=           5 IRanWt=          -1 IRanGd=           0 AccXCQ= 0.00D+00.
 Generated NRdTot=       0 NPtTot=           0 NUsed=           0 NTot=          32
 NSgBfM=    66    66    66    66    66 MxSgAt=    12 MxSgA2=    12.
 Leave Link  302 at Mon Mar 16 03:49:35 2020, MaxMem=  6710886400 cpu:               2.4 elap:               0.2
 (Enter /opt/ohpc/pub/libs/gaussian/g16-A.03/sandybridge/g16/l303.exe)
 DipDrv:  MaxL=1.
 Leave Link  303 at Mon Mar 16 03:49:35 2020, MaxMem=  6710886400 cpu:               0.5 elap:               0.1
 (Enter /opt/ohpc/pub/libs/gaussian/g16-A.03/sandybridge/g16/l401.exe)
 ExpMin= 1.61D-01 ExpMax= 3.05D+03 ExpMxC= 4.57D+02 IAcc=3 IRadAn=         5 AccDes= 0.00D+00
 Harris functional with IExCor=33909 and IRadAn=       5 diagonalized for initial guess.
 HarFok:  IExCor=33909 AccDes= 0.00D+00 IRadAn=         5 IDoV= 1 UseB2=F ITyADJ=14
 ICtDFT=  3500011 ScaDFX=  1.000000  1.000000  1.000000  1.000000
 FoFCou: FMM=F IPFlag=           0 FMFlag=      100000 FMFlg1=           0
         NFxFlg=           0 DoJE=T BraDBF=F KetDBF=T FulRan=T
         wScrn=  0.000000 ICntrl=       500 IOpCl=  0 I1Cent=   200000004 NGrid=           0
         NMat0=    1 NMatS0=      1 NMatT0=    0 NMatD0=    1 NMtDS0=    0 NMtDT0=    0
 Petite list used in FoFCou.
 Harris En= -225.659065970434    
 JPrj=0 DoOrth=F DoCkMO=F.
 Initial guess orbital symmetries:
 Alpha Orbitals:
       Occupied  (A1G) (E1U) (E1U) (E2G) (E2G) (B1U) (A1G) (E1U)
                 (E1U) (E2G) (E2G) (A1G) (B2U) (B1U) (E1U) (E1U)
                 (A2U) (E2G) (E2G) (E1G) (E1G)
       Virtual   (E2U) (E2U) (A1G) (B2G) (E1U) (E1U) (E2G) (E2G)
                 (B1U) (E2G) (E2G) (E1U) (E1U) (B2U) (A2U) (B1U)
                 (A2G) (A1G) (E2G) (E2G) (E1G) (E1G) (A1G) (E1U)
                 (E1U) (E2U) (E2U) (B2G) (B1U) (E2G) (E2G) (E1U)
                 (E1U) (A2G) (A1G) (E1U) (E1U) (E2G) (E2G) (E1U)
                 (E1U) (B1U) (E2G) (E2G) (B1U)
 Beta  Orbitals:
       Occupied  (A1G) (E1U) (E1U) (E2G) (E2G) (B1U) (A1G) (E1U)
                 (E1U) (E2G) (E2G) (A1G) (B2U) (B1U) (E1U) (E1U)
                 (A2U) (E2G) (E2G) (E1G)
       Virtual   (E1G) (E2U) (E2U) (A1G) (B2G) (E1U) (E1U) (E2G)
                 (E2G) (B1U) (E2G) (E2G) (E1U) (E1U) (B2U) (A2U)
                 (B1U) (A2G) (A1G) (E2G) (E2G) (E1G) (E1G) (A1G)
                 (E1U) (E1U) (E2U) (E2U) (B2G) (B1U) (E2G) (E2G)
                 (E1U) (E1U) (A2G) (A1G) (E1U) (E1U) (E2G) (E2G)
                 (E1U) (E1U) (B1U) (E2G) (E2G) (B1U)
 Initial guess <Sx>= 0.0000 <Sy>= 0.0000 <Sz>= 0.5000 <S**2>= 0.7500 S= 0.5000
 Leave Link  401 at Mon Mar 16 03:49:35 2020, MaxMem=  6710886400 cpu:               2.8 elap:               0.2
 (Enter /opt/ohpc/pub/libs/gaussian/g16-A.03/sandybridge/g16/l502.exe)
 Keep R1 and R2 ints in memory in symmetry-blocked form, NReq=19109854.
 FoFCou: FMM=F IPFlag=           0 FMFlag=           0 FMFlg1=           0
         NFxFlg=           0 DoJE=F BraDBF=F KetDBF=F FulRan=T
         wScrn=  0.000000 ICntrl=       600 IOpCl=  0 I1Cent=           0 NGrid=           0
         NMat0=    1 NMatS0=   2211 NMatT0=    0 NMatD0=    1 NMtDS0=    0 NMtDT0=    0
 Petite list used in FoFCou.
 UHF open shell SCF:
 Using DIIS extrapolation, IDIIS=    10.
 NGot=  6710886400 LenX=  6710146038 LenY=  6710141241
 Requested convergence on RMS density matrix=1.00D-06 within  32 cycles.
 Requested convergence on MAX density matrix=1.00D-04.
 Requested convergence on             energy=1.00D-04.
 Virtual orbitals will be shifted by   0.500 hartree.
 No special actions if energy rises.
 Dynamic level shift is on during FON iterations.

 Cycle   1  Pass 1  IDiag  1:
 Density matrix breaks symmetry, PCut= 1.00D-04
 Density has only Abelian symmetry.
 E= -231.636561109919    
 DIIS: error= 1.83D-02 at cycle   1 NSaved=   1.
 NSaved= 1 IEnMin= 1 EnMin= -231.636561109919     IErMin= 1 ErrMin= 1.83D-02
 ErrMax= 1.83D-02  0.00D+00 EMaxC= 1.00D+00 BMatC= 7.99D-02 BMatP= 7.99D-02
 IDIUse=1 WtCom= 1.00D+00 WtEn= 0.00D+00
 Coeff-Com:  0.100D+01
 Coeff:      0.100D+01
 Gap=     0.375 Goal=   None    Shift=    0.500
 T= 1201. Gap= 0.876 NK=0 IS=   22 IE=   66 IFin=   21
          NO(<0.9)=   0  NV(>0.1)=   0     21.00e < EF      0.00e >EF  Err=0.0D+00
 Gap=     0.189 Goal=   None    Shift=    0.500
 T= 1201. Gap= 0.688 NK=0 IS=   21 IE=   66 IFin=   20
          NO(<0.9)=   0  NV(>0.1)=   0     20.00e < EF      0.00e >EF  Err=0.0D+00
 GapD=    0.189 DampG=1.000 DampE=0.500 DampFc=0.5000 IDamp=-1.
 Damping current iteration by 5.00D-01
 RMSDP=3.24D-03 MaxDP=3.12D-02              OVMax= 3.67D-02

 Cycle   2  Pass 1  IDiag  1:
 Density matrix breaks symmetry, PCut= 1.00D-04
 Density has only Abelian symmetry.
 E= -231.649553025823     Delta-E=       -0.012991915904 Rises=F Damp=T
 DIIS: error= 9.78D-03 at cycle   2 NSaved=   2.
 NSaved= 2 IEnMin= 2 EnMin= -231.649553025823     IErMin= 2 ErrMin= 9.78D-03
 ErrMax= 9.78D-03  0.00D+00 EMaxC= 1.00D+00 BMatC= 1.87D-02 BMatP= 7.99D-02
 IDIUse=1 WtCom= 1.00D+00 WtEn= 0.00D+00
 Coeff-Com: -0.806D+00 0.181D+01
 Coeff:     -0.806D+00 0.181D+01
 Gap=     0.396 Goal=   None    Shift=    0.500
 T= 1099. Gap= 0.896 NK=0 IS=   22 IE=   66 IFin=   21
          NO(<0.9)=   0  NV(>0.1)=   0     21.00e < EF      0.00e >EF  Err=0.0D+00
 Gap=     0.213 Goal=   None    Shift=    0.500
 T= 1099. Gap= 0.713 NK=0 IS=   21 IE=   66 IFin=   20
          NO(<0.9)=   0  NV(>0.1)=   0     20.00e < EF      0.00e >EF  Err=0.0D+00
 GapD=    0.213 DampG=1.000 DampE=1.000 DampFc=1.0000 IDamp=-1.
 RMSDP=2.21D-03 MaxDP=1.78D-02 DE=-1.30D-02 OVMax= 1.54D-02

 Cycle   3  Pass 1  IDiag  1:
 Density matrix breaks symmetry, PCut= 1.00D-04
 Density has only Abelian symmetry.
 E= -231.659775316007     Delta-E=       -0.010222290184 Rises=F Damp=F
 DIIS: error= 4.79D-03 at cycle   3 NSaved=   3.
 NSaved= 3 IEnMin= 3 EnMin= -231.659775316007     IErMin= 3 ErrMin= 4.79D-03
 ErrMax= 4.79D-03  0.00D+00 EMaxC= 1.00D+00 BMatC= 6.81D-04 BMatP= 1.87D-02
 IDIUse=1 WtCom= 1.00D+00 WtEn= 0.00D+00
 Coeff-Com:  0.129D+00-0.272D+00 0.114D+01
 Coeff:      0.129D+00-0.272D+00 0.114D+01
 Gap=     0.390 Goal=   None    Shift=    0.500
 T=  892. Gap= 0.890 NK=0 IS=   22 IE=   66 IFin=   21
          NO(<0.9)=   0  NV(>0.1)=   0     21.00e < EF      0.00e >EF  Err=0.0D+00
 Gap=     0.212 Goal=   None    Shift=    0.500
 T=  892. Gap= 0.712 NK=0 IS=   21 IE=   66 IFin=   20
          NO(<0.9)=   0  NV(>0.1)=   0     20.00e < EF      0.00e >EF  Err=0.0D+00
 GapD=    0.212 DampG=1.000 DampE=1.000 DampFc=1.0000 IDamp=-1.
 RMSDP=3.49D-04 MaxDP=3.31D-03 DE=-1.02D-02 OVMax= 9.71D-03

 Cycle   4  Pass 1  IDiag  1:
 Density matrix breaks symmetry, PCut= 1.00D-04
 Density has only Abelian symmetry.
 E= -231.660271333917     Delta-E=       -0.000496017910 Rises=F Damp=F
 DIIS: error= 3.86D-03 at cycle   4 NSaved=   4.
 NSaved= 4 IEnMin= 4 EnMin= -231.660271333917     IErMin= 4 ErrMin= 3.86D-03
 ErrMax= 3.86D-03  0.00D+00 EMaxC= 1.00D+00 BMatC= 3.22D-04 BMatP= 6.81D-04
 IDIUse=1 WtCom= 1.00D+00 WtEn= 0.00D+00
 Coeff-Com:  0.117D+00-0.264D+00-0.519D+00 0.167D+01
 Coeff:      0.117D+00-0.264D+00-0.519D+00 0.167D+01
 Gap=     0.389 Goal=   None    Shift=    0.500
 T=  545. Gap= 0.889 NK=0 IS=   22 IE=   66 IFin=   21
          NO(<0.9)=   0  NV(>0.1)=   0     21.00e < EF      0.00e >EF  Err=0.0D+00
 Gap=     0.216 Goal=   None    Shift=    0.500
 T=  545. Gap= 0.716 NK=0 IS=   21 IE=   66 IFin=   20
          NO(<0.9)=   0  NV(>0.1)=   0     20.00e < EF      0.00e >EF  Err=0.0D+00
 GapD=    0.216 DampG=1.000 DampE=1.000 DampFc=1.0000 IDamp=-1.
 RMSDP=2.48D-04 MaxDP=3.12D-03 DE=-4.96D-04 OVMax= 1.01D-02

 Cycle   5  Pass 1  IDiag  1:
 Density matrix breaks symmetry, PCut= 1.00D-04
 Density has only Abelian symmetry.
 E= -231.660589684215     Delta-E=       -0.000318350298 Rises=F Damp=F
 DIIS: error= 2.43D-03 at cycle   5 NSaved=   5.
 NSaved= 5 IEnMin= 5 EnMin= -231.660589684215     IErMin= 5 ErrMin= 2.43D-03
 ErrMax= 2.43D-03  0.00D+00 EMaxC= 1.00D+00 BMatC= 1.38D-04 BMatP= 3.22D-04
 IDIUse=1 WtCom= 1.00D+00 WtEn= 0.00D+00
 Coeff-Com: -0.124D+00 0.260D+00-0.494D+00-0.112D+01 0.247D+01
 Coeff:     -0.124D+00 0.260D+00-0.494D+00-0.112D+01 0.247D+01
 Gap=     0.387 Goal=   None    Shift=    0.500
 T=  240. Gap= 0.887 NK=0 IS=   22 IE=   66 IFin=   21
          NO(<0.9)=   0  NV(>0.1)=   0     21.00e < EF      0.00e >EF  Err=0.0D+00
 Gap=     0.219 Goal=   None    Shift=    0.500
 T=  240. Gap= 0.719 NK=0 IS=   21 IE=   66 IFin=   20
          NO(<0.9)=   0  NV(>0.1)=   0     20.00e < EF      0.00e >EF  Err=0.0D+00
 GapD=    0.219 DampG=1.000 DampE=1.000 DampFc=1.0000 IDamp=-1.
 RMSDP=2.21D-04 MaxDP=3.28D-03 DE=-3.18D-04 OVMax= 9.46D-03

 Cycle   6  Pass 1  IDiag  1:
 Density matrix breaks symmetry, PCut= 1.00D-04
 Density has only Abelian symmetry.
 E= -231.660783273400     Delta-E=       -0.000193589185 Rises=F Damp=F
 DIIS: error= 1.33D-03 at cycle   6 NSaved=   6.
 NSaved= 6 IEnMin= 6 EnMin= -231.660783273400     IErMin= 6 ErrMin= 1.33D-03
 ErrMax= 1.33D-03  0.00D+00 EMaxC= 1.00D+00 BMatC= 3.90D-05 BMatP= 1.38D-04
 IDIUse=1 WtCom= 1.00D+00 WtEn= 0.00D+00
 Coeff-Com:  0.142D-01-0.287D-01 0.156D+00 0.141D-01-0.143D+01 0.227D+01
 Coeff:      0.142D-01-0.287D-01 0.156D+00 0.141D-01-0.143D+01 0.227D+01
 Gap=     0.386 Goal=   None    Shift=    0.500
 T=   15. Gap= 0.886 NK=0 IS=   22 IE=   66 IFin=   21
          NO(<0.9)=   0  NV(>0.1)=   0     21.00e < EF      0.00e >EF  Err=0.0D+00
 Gap=     0.219 Goal=   None    Shift=    0.500
 T=   15. Gap= 0.719 NK=0 IS=   21 IE=   66 IFin=   20
          NO(<0.9)=   0  NV(>0.1)=   0     20.00e < EF      0.00e >EF  Err=0.0D+00
 GapD=    0.219 DampG=1.000 DampE=1.000 DampFc=1.0000 IDamp=-1.
 RMSDP=1.18D-04 MaxDP=1.96D-03 DE=-1.94D-04 OVMax= 5.39D-03

 Cycle   7  Pass 1  IDiag  1:
 Density matrix breaks symmetry, PCut= 1.00D-04
 Density has only Abelian symmetry.
 E= -231.660840849905     Delta-E=       -0.000057576505 Rises=F Damp=F
 DIIS: error= 7.02D-04 at cycle   7 NSaved=   7.
 NSaved= 7 IEnMin= 7 EnMin= -231.660840849905     IErMin= 7 ErrMin= 7.02D-04
 ErrMax= 7.02D-04  0.00D+00 EMaxC= 1.00D+00 BMatC= 1.10D-05 BMatP= 3.90D-05
 IDIUse=1 WtCom= 1.00D+00 WtEn= 0.00D+00
 Coeff-Com: -0.213D-01 0.442D-01-0.173D+00-0.110D+00 0.162D+01-0.406D+01
 Coeff-Com:  0.369D+01
 Coeff:     -0.213D-01 0.442D-01-0.173D+00-0.110D+00 0.162D+01-0.406D+01
 Coeff:      0.369D+01
 Gap=     0.386 Goal=   None    Shift=    0.500
 Gap=     0.219 Goal=   None    Shift=    0.500
 RMSDP=6.17D-05 MaxDP=1.04D-03 DE=-5.76D-05 OVMax= 2.95D-03

 Cycle   8  Pass 1  IDiag  1:
 Density matrix breaks symmetry, PCut= 1.00D-04
 Density has only Abelian symmetry.
 E= -231.660856677924     Delta-E=       -0.000015828018 Rises=F Damp=F
 DIIS: error= 3.60D-04 at cycle   8 NSaved=   8.
 NSaved= 8 IEnMin= 8 EnMin= -231.660856677924     IErMin= 8 ErrMin= 3.60D-04
 ErrMax= 3.60D-04  0.00D+00 EMaxC= 1.00D+00 BMatC= 2.82D-06 BMatP= 1.10D-05
 IDIUse=1 WtCom= 1.00D+00 WtEn= 0.00D+00
 Coeff-Com:  0.460D-02-0.854D-02 0.361D-01-0.112D-01-0.432D+00 0.160D+01
 Coeff-Com: -0.314D+01 0.295D+01
 Coeff:      0.460D-02-0.854D-02 0.361D-01-0.112D-01-0.432D+00 0.160D+01
 Coeff:     -0.314D+01 0.295D+01
 Gap=     0.386 Goal=   None    Shift=    0.500
 Gap=     0.219 Goal=   None    Shift=    0.500
 RMSDP=2.99D-05 MaxDP=4.78D-04 DE=-1.58D-05 OVMax= 1.51D-03

 Cycle   9  Pass 1  IDiag  1:
 Density matrix breaks symmetry, PCut= 1.00D-04
 Density has only Abelian symmetry.
 E= -231.660860536225     Delta-E=       -0.000003858302 Rises=F Damp=F
 DIIS: error= 1.78D-04 at cycle   9 NSaved=   9.
 NSaved= 9 IEnMin= 9 EnMin= -231.660860536225     IErMin= 9 ErrMin= 1.78D-04
 ErrMax= 1.78D-04  0.00D+00 EMaxC= 1.00D+00 BMatC= 6.52D-07 BMatP= 2.82D-06
 IDIUse=1 WtCom= 1.00D+00 WtEn= 0.00D+00
 Coeff-Com: -0.408D-02 0.787D-02-0.241D-01-0.102D-01 0.287D+00-0.987D+00
 Coeff-Com:  0.195D+01-0.320D+01 0.299D+01
 Coeff:     -0.408D-02 0.787D-02-0.241D-01-0.102D-01 0.287D+00-0.987D+00
 Coeff:      0.195D+01-0.320D+01 0.299D+01
 Gap=     0.386 Goal=   None    Shift=    0.500
 Gap=     0.219 Goal=   None    Shift=    0.500
 RMSDP=1.40D-05 MaxDP=2.22D-04 DE=-3.86D-06 OVMax= 7.41D-04

 Cycle  10  Pass 1  IDiag  1:
 Density matrix breaks symmetry, PCut= 1.00D-04
 Density has only Abelian symmetry.
 E= -231.660861421639     Delta-E=       -0.000000885413 Rises=F Damp=F
 DIIS: error= 8.90D-05 at cycle  10 NSaved=  10.
 NSaved=10 IEnMin=10 EnMin= -231.660861421639     IErMin=10 ErrMin= 8.90D-05
 ErrMax= 8.90D-05  0.00D+00 EMaxC= 1.00D+00 BMatC= 1.47D-07 BMatP= 6.52D-07
 IDIUse=1 WtCom= 1.00D+00 WtEn= 0.00D+00
 Coeff-Com:  0.107D-02-0.189D-02 0.512D-02-0.426D-02-0.569D-01 0.245D+00
 Coeff-Com: -0.580D+00 0.117D+01-0.240D+01 0.262D+01
 Coeff:      0.107D-02-0.189D-02 0.512D-02-0.426D-02-0.569D-01 0.245D+00
 Coeff:     -0.580D+00 0.117D+01-0.240D+01 0.262D+01
 Gap=     0.386 Goal=   None    Shift=    0.500
 Gap=     0.219 Goal=   None    Shift=    0.500
 RMSDP=6.57D-06 MaxDP=1.06D-04 DE=-8.85D-07 OVMax= 3.63D-04

 Cycle  11  Pass 1  IDiag  1:
 Density matrix breaks symmetry, PCut= 1.00D-04
 Density has only Abelian symmetry.
 E= -231.660861620487     Delta-E=       -0.000000198849 Rises=F Damp=F
 DIIS: error= 4.39D-05 at cycle  11 NSaved=  11.
 NSaved=11 IEnMin=11 EnMin= -231.660861620487     IErMin=11 ErrMin= 4.39D-05
 ErrMax= 4.39D-05  0.00D+00 EMaxC= 1.00D+00 BMatC= 3.27D-08 BMatP= 1.47D-07
 IDIUse=1 WtCom= 1.00D+00 WtEn= 0.00D+00
 Coeff-Com: -0.709D-04 0.108D-03 0.274D-03 0.602D-03-0.818D-02 0.236D-01
 Coeff-Com: -0.302D-01-0.693D-01 0.542D+00-0.192D+01 0.246D+01
 Coeff:     -0.709D-04 0.108D-03 0.274D-03 0.602D-03-0.818D-02 0.236D-01
 Coeff:     -0.302D-01-0.693D-01 0.542D+00-0.192D+01 0.246D+01
 Gap=     0.386 Goal=   None    Shift=    0.500
 Gap=     0.219 Goal=   None    Shift=    0.500
 RMSDP=3.08D-06 MaxDP=4.93D-05 DE=-1.99D-07 OVMax= 1.76D-04

 Cycle  12  Pass 1  IDiag  1:
 Density matrix breaks symmetry, PCut= 1.00D-04
 Density has only Abelian symmetry.
 E= -231.660861664706     Delta-E=       -0.000000044219 Rises=F Damp=F
 DIIS: error= 2.19D-05 at cycle  12 NSaved=  12.
 NSaved=12 IEnMin=12 EnMin= -231.660861664706     IErMin=12 ErrMin= 2.19D-05
 ErrMax= 2.19D-05  0.00D+00 EMaxC= 1.00D+00 BMatC= 7.37D-09 BMatP= 3.27D-08
 IDIUse=1 WtCom= 1.00D+00 WtEn= 0.00D+00
 Coeff-Com: -0.248D-03 0.499D-03-0.143D-02-0.161D-02 0.214D-01-0.708D-01
 Coeff-Com:  0.144D+00-0.221D+00 0.162D+00 0.586D+00-0.256D+01 0.295D+01
 Coeff:     -0.248D-03 0.499D-03-0.143D-02-0.161D-02 0.214D-01-0.708D-01
 Coeff:      0.144D+00-0.221D+00 0.162D+00 0.586D+00-0.256D+01 0.295D+01
 Gap=     0.386 Goal=   None    Shift=    0.500
 Gap=     0.219 Goal=   None    Shift=    0.500
 RMSDP=1.43D-06 MaxDP=2.29D-05 DE=-4.42D-08 OVMax= 8.64D-05

 Cycle  13  Pass 1  IDiag  1:
 Density matrix breaks symmetry, PCut= 1.00D-04
 Density has only Abelian symmetry.
 E= -231.660861674632     Delta-E=       -0.000000009926 Rises=F Damp=F
 DIIS: error= 1.08D-05 at cycle  13 NSaved=  13.
 NSaved=13 IEnMin=13 EnMin= -231.660861674632     IErMin=13 ErrMin= 1.08D-05
 ErrMax= 1.08D-05  0.00D+00 EMaxC= 1.00D+00 BMatC= 1.67D-09 BMatP= 7.37D-09
 IDIUse=1 WtCom= 1.00D+00 WtEn= 0.00D+00
 Coeff-Com:  0.132D-03-0.256D-03 0.743D-03 0.321D-03-0.931D-02 0.318D-01
 Coeff-Com: -0.646D-01 0.100D+00-0.768D-01-0.272D+00 0.141D+01-0.328D+01
 Coeff-Com:  0.316D+01
 Coeff:      0.132D-03-0.256D-03 0.743D-03 0.321D-03-0.931D-02 0.318D-01
 Coeff:     -0.646D-01 0.100D+00-0.768D-01-0.272D+00 0.141D+01-0.328D+01
 Coeff:      0.316D+01
 Gap=     0.386 Goal=   None    Shift=    0.500
 Gap=     0.219 Goal=   None    Shift=    0.500
 RMSDP=6.63D-07 MaxDP=1.07D-05 DE=-9.93D-09 OVMax= 4.22D-05

 Density matrix breaks symmetry, PCut= 1.00D-04
 Density has only Abelian symmetry.
 SCF Done:  E(ULC-wHPBE) =  -231.660861675     A.U. after   13 cycles
            NFock= 13  Conv=0.66D-06     -V/T= 2.0045
 <Sx>= 0.0000 <Sy>= 0.0000 <Sz>= 0.5000 <S**2>= 0.7723 S= 0.5111
 <L.S>= 0.000000000000E+00
 KE= 2.306150165271D+02 PE=-9.349312079889D+02 EE= 2.691113316951D+02
 Annihilation of the first spin contaminant:
 S**2 before annihilation     0.7723,   after     0.7502
 Leave Link  502 at Mon Mar 16 03:49:36 2020, MaxMem=  6710886400 cpu:              18.1 elap:               1.2
 (Enter /opt/ohpc/pub/libs/gaussian/g16-A.03/sandybridge/g16/l508.exe)
 QCSCF skips out because SCF is already converged.
 Leave Link  508 at Mon Mar 16 03:49:36 2020, MaxMem=  6710886400 cpu:               0.1 elap:               0.0
 (Enter /opt/ohpc/pub/libs/gaussian/g16-A.03/sandybridge/g16/l601.exe)
 Copying SCF densities to generalized density rwf, IOpCl= 1 IROHF=0.
 SCF density gives NOpUse=  8 NOpAll= 24.
 Marking SCF density as not fully symmetric.

 **********************************************************************

            Population analysis using the SCF density.

 **********************************************************************

 Orbital symmetries:
 Alpha Orbitals:
       Occupied  (?A) (?A) (?A) (?A) (?A) (?A) (?B) (?B) (?B) (?B)
                 (?B) (?B) (?B) (?B) (?B) (?B) (?C) (?B) (?B) (?C)
                 (?C)
       Virtual   (?C) (?C) (?B) (?C) (?B) (?B) (?B) (?B) (?B) (?B)
                 (?B) (?B) (?B) (?B) (?C) (?B) (?B) (?B) (?C) (?C)
                 (?B) (?B) (?B) (?C) (?B) (?B) (?C) (?C) (?B) (?B)
                 (?B) (?B) (?B) (?B) (?B) (?B) (?B) (?B) (?B) (?B)
                 (?B) (?B) (?B) (?B) (?B)
 Beta  Orbitals:
       Occupied  (?A) (?A) (?A) (?A) (?A) (?A) (?B) (B2G) (B2G)
                 (?B) (?B) (?B) (B2G) (B2G) (B2G) (B2G) (?C) (?B)
                 (?B) (?D)
       Virtual   (?D) (?C) (?C) (?D) (?D) (B2G) (B2G) (?D) (?D)
                 (B2G) (?D) (?D) (B2G) (B2G) (B2G) (?C) (B2G) (?D)
                 (?D) (?D) (?D) (?D) (?D) (?D) (B2G) (B2G) (?C)
                 (?C) (?D) (B2G) (?A) (?A) (B2G) (B2G) (?A) (?D)
                 (B2G) (B2G) (?D) (?D) (B2G) (B2G) (B2G) (E2G)
                 (E2G) (B1U)
 Unable to determine electronic state:  an orbital has unidentified symmetry.
 Alpha  occ. eigenvalues --  -10.31442 -10.31439 -10.31416 -10.31412 -10.27743
 Alpha  occ. eigenvalues --  -10.27739  -1.19879  -1.09458  -1.06893  -0.92922
 Alpha  occ. eigenvalues --   -0.92901  -0.84695  -0.77980  -0.76769  -0.74917
 Alpha  occ. eigenvalues --   -0.72891  -0.71903  -0.65535  -0.65235  -0.60552
 Alpha  occ. eigenvalues --   -0.56757
 Alpha virt. eigenvalues --   -0.18165  -0.14868  -0.01358   0.00908   0.03785
 Alpha virt. eigenvalues --    0.04885   0.07280   0.08336   0.09785   0.17300
 Alpha virt. eigenvalues --    0.17787   0.18555   0.19111   0.37223   0.37925
 Alpha virt. eigenvalues --    0.40263   0.42916   0.43068   0.46034   0.48237
 Alpha virt. eigenvalues --    0.48439   0.48948   0.51915   0.52399   0.52965
 Alpha virt. eigenvalues --    0.53411   0.54339   0.61632   0.71501   0.72917
 Alpha virt. eigenvalues --    0.74265   0.77319   0.78958   0.84612   0.84982
 Alpha virt. eigenvalues --    0.87255   0.87262   0.99356   1.00914   1.05288
 Alpha virt. eigenvalues --    1.06223   1.10501   1.32666   1.32912   1.78135
  Beta  occ. eigenvalues --  -10.30978 -10.30978 -10.30957 -10.30952 -10.27931
  Beta  occ. eigenvalues --  -10.27927  -1.18775  -1.07286  -1.06672  -0.92388
  Beta  occ. eigenvalues --   -0.91974  -0.84392  -0.77505  -0.76325  -0.74387
  Beta  occ. eigenvalues --   -0.72899  -0.67334  -0.65315  -0.64946  -0.56503
  Beta virt. eigenvalues --   -0.34565  -0.13182  -0.13152  -0.01169   0.03137
  Beta virt. eigenvalues --    0.04051   0.04938   0.08079   0.08493   0.10105
  Beta virt. eigenvalues --    0.17903   0.17992   0.19044   0.19479   0.37568
  Beta virt. eigenvalues --    0.39453   0.41336   0.43380   0.43437   0.48632
  Beta virt. eigenvalues --    0.48636   0.49099   0.49508   0.52245   0.53699
  Beta virt. eigenvalues --    0.54112   0.54505   0.54723   0.62608   0.71798
  Beta virt. eigenvalues --    0.73262   0.74350   0.77963   0.78988   0.84848
  Beta virt. eigenvalues --    0.85206   0.87548   0.88229   1.00685   1.01224
  Beta virt. eigenvalues --    1.06172   1.06339   1.11010   1.33209   1.33744
  Beta virt. eigenvalues --    1.78936
          Condensed to atoms (all electrons):
               1          2          3          4          5          6
     1  C    4.909297   0.520500  -0.063132  -0.023960  -0.063132   0.520500
     2  C    0.520500   4.964398   0.413213  -0.063132  -0.024539  -0.049029
     3  C   -0.063132   0.413213   4.964398   0.520500  -0.049029  -0.024539
     4  C   -0.023960  -0.063132   0.520500   4.909297   0.520500  -0.063132
     5  C   -0.063132  -0.024539  -0.049029   0.520500   4.964398   0.413213
     6  C    0.520500  -0.049029  -0.024539  -0.063132   0.413213   4.964398
     7  H    0.371254  -0.024748   0.003407   0.000064   0.003407  -0.024748
     8  H   -0.021140   0.365647  -0.028904   0.003140   0.000065   0.003316
     9  H    0.003140  -0.028904   0.365647  -0.021140   0.003316   0.000065
    10  H    0.000064   0.003407  -0.024748   0.371254  -0.024748   0.003407
    11  H    0.003140   0.000065   0.003316  -0.021140   0.365647  -0.028904
    12  H   -0.021140   0.003316   0.000065   0.003140  -0.028904   0.365647
               7          8          9         10         11         12
     1  C    0.371254  -0.021140   0.003140   0.000064   0.003140  -0.021140
     2  C   -0.024748   0.365647  -0.028904   0.003407   0.000065   0.003316
     3  C    0.003407  -0.028904   0.365647  -0.024748   0.003316   0.000065
     4  C    0.000064   0.003140  -0.021140   0.371254  -0.021140   0.003140
     5  C    0.003407   0.000065   0.003316  -0.024748   0.365647  -0.028904
     6  C   -0.024748   0.003316   0.000065   0.003407  -0.028904   0.365647
     7  H    0.422323  -0.002801  -0.000073   0.000002  -0.000073  -0.002801
     8  H   -0.002801   0.412818  -0.002500  -0.000073   0.000005  -0.000070
     9  H   -0.000073  -0.002500   0.412818  -0.002801  -0.000070   0.000005
    10  H    0.000002  -0.000073  -0.002801   0.422323  -0.002801  -0.000073
    11  H   -0.000073   0.000005  -0.000070  -0.002801   0.412818  -0.002500
    12  H   -0.002801  -0.000070   0.000005  -0.000073  -0.002500   0.412818
          Atomic-Atomic Spin Densities.
               1          2          3          4          5          6
     1  C   -0.170704  -0.007284  -0.007091   0.005813  -0.007091  -0.007284
     2  C   -0.007284   0.349673   0.039710  -0.007091  -0.007332  -0.005975
     3  C   -0.007091   0.039710   0.349673  -0.007284  -0.005975  -0.007332
     4  C    0.005813  -0.007091  -0.007284  -0.170704  -0.007284  -0.007091
     5  C   -0.007091  -0.007332  -0.005975  -0.007284   0.349673   0.039710
     6  C   -0.007284  -0.005975  -0.007332  -0.007091   0.039710   0.349673
     7  H    0.001551  -0.000969   0.000162  -0.000058   0.000162  -0.000969
     8  H    0.000040   0.000591  -0.001805  -0.000003  -0.000058   0.000083
     9  H   -0.000003  -0.001805   0.000591   0.000040   0.000083  -0.000058
    10  H   -0.000058   0.000162  -0.000969   0.001551  -0.000969   0.000162
    11  H   -0.000003  -0.000058   0.000083   0.000040   0.000591  -0.001805
    12  H    0.000040   0.000083  -0.000058  -0.000003  -0.001805   0.000591
               7          8          9         10         11         12
     1  C    0.001551   0.000040  -0.000003  -0.000058  -0.000003   0.000040
     2  C   -0.000969   0.000591  -0.001805   0.000162  -0.000058   0.000083
     3  C    0.000162  -0.001805   0.000591  -0.000969   0.000083  -0.000058
     4  C   -0.000058  -0.000003   0.000040   0.001551   0.000040  -0.000003
     5  C    0.000162  -0.000058   0.000083  -0.000969   0.000591  -0.001805
     6  C   -0.000969   0.000083  -0.000058   0.000162  -0.001805   0.000591
     7  H    0.004653  -0.000000   0.000004  -0.000001   0.000004  -0.000000
     8  H   -0.000000  -0.014751  -0.000042   0.000004  -0.000000   0.000005
     9  H    0.000004  -0.000042  -0.014751  -0.000000   0.000005  -0.000000
    10  H   -0.000001   0.000004  -0.000000   0.004653  -0.000000   0.000004
    11  H    0.000004  -0.000000   0.000005  -0.000000  -0.014751  -0.000042
    12  H   -0.000000   0.000005  -0.000000   0.000004  -0.000042  -0.014751
 Mulliken charges and spin densities:
               1          2
     1  C   -0.135392  -0.192073
     2  C   -0.080194   0.359705
     3  C   -0.080194   0.359705
     4  C   -0.135392  -0.192073
     5  C   -0.080194   0.359705
     6  C   -0.080194   0.359705
     7  H    0.254786   0.004538
     8  H    0.270497  -0.015937
     9  H    0.270497  -0.015937
    10  H    0.254786   0.004538
    11  H    0.270497  -0.015937
    12  H    0.270497  -0.015937
 Sum of Mulliken charges =   1.00000   1.00000
 Mulliken charges and spin densities with hydrogens summed into heavy atoms:
               1          2
     1  C    0.119394  -0.187536
     2  C    0.190303   0.343768
     3  C    0.190303   0.343768
     4  C    0.119394  -0.187536
     5  C    0.190303   0.343768
     6  C    0.190303   0.343768
 Electronic spatial extent (au):  <R**2>=            437.1694
 Charge=              1.0000 electrons
 Dipole moment (field-independent basis, Debye):
    X=             -0.0000    Y=             -0.0000    Z=             -0.0000  Tot=              0.0000
 Quadrupole moment (field-independent basis, Debye-Ang):
   XX=            -18.1125   YY=            -21.6702   ZZ=            -34.9815
   XY=             -0.0000   XZ=              0.0000   YZ=              0.0000
 Traceless Quadrupole moment (field-independent basis, Debye-Ang):
   XX=              6.8089   YY=              3.2512   ZZ=            -10.0601
   XY=             -0.0000   XZ=              0.0000   YZ=              0.0000
 Octapole moment (field-independent basis, Debye-Ang**2):
  XXX=              0.0000  YYY=              0.0000  ZZZ=              0.0000  XYY=             -0.0000
  XXY=             -0.0000  XXZ=              0.0000  XZZ=              0.0000  YZZ=              0.0000
  YYZ=              0.0000  XYZ=              0.0000
 Hexadecapole moment (field-independent basis, Debye-Ang**3):
 XXXX=           -196.3161 YYYY=           -210.2027 ZZZZ=            -34.0526 XXXY=              0.0000
 XXXZ=              0.0000 YYYX=              0.0000 YYYZ=              0.0000 ZZZX=             -0.0000
 ZZZY=             -0.0000 XXYY=            -66.2966 XXZZ=            -51.9938 YYZZ=            -55.1962
 XXYZ=              0.0000 YYXZ=              0.0000 ZZXY=              0.0000
 N-N= 2.035439980921D+02 E-N=-9.349312093666D+02  KE= 2.306150165271D+02
 Symmetry AG   KE= 7.452374843662D+01
 Symmetry B1G  KE= 3.776498498758D+01
 Symmetry B2G  KE= 1.199368739112D+00
 Symmetry B3G  KE= 2.347972792021D+00
 Symmetry AU   KE=-1.327613594367D-16
 Symmetry B1U  KE= 1.960466853238D+00
 Symmetry B2U  KE= 7.220736808352D+01
 Symmetry B3U  KE= 4.061110663499D+01
 Symmetry AG   SP= 2.633030376847D-14
 Symmetry B1G  SP= 1.373116344003D-14
 Symmetry B2G  SP= 1.000000000000D+00
 Symmetry B3G  SP= 5.352787440724D-15
 Symmetry AU   SP=-4.200385908234D-17
 Symmetry B1U  SP=-7.673711926309D-16
 Symmetry B2U  SP=-7.009678753243D-15
 Symmetry B3U  SP=-1.266239717246D-15
                          Isotropic Fermi Contact Couplings
        Atom                 a.u.       MegaHertz       Gauss      10(-4) cm-1
     1  C(13)             -0.02985     -33.56049     -11.97522     -11.19457
     2  C(13)              0.04236      47.62443      16.99358      15.88580
     3  C(13)              0.04236      47.62443      16.99358      15.88580
     4  C(13)             -0.02985     -33.56049     -11.97522     -11.19457
     5  C(13)              0.04236      47.62443      16.99358      15.88580
     6  C(13)              0.04236      47.62443      16.99358      15.88580
     7  H(1)               0.00175       7.83556       2.79592       2.61366
     8  H(1)              -0.00620     -27.72360      -9.89247      -9.24760
     9  H(1)              -0.00620     -27.72360      -9.89247      -9.24760
    10  H(1)               0.00175       7.83556       2.79592       2.61366
    11  H(1)              -0.00620     -27.72360      -9.89247      -9.24760
    12  H(1)              -0.00620     -27.72360      -9.89247      -9.24760
 --------------------------------------------------------
       Center         ----  Spin Dipole Couplings  ----
                      3XX-RR        3YY-RR        3ZZ-RR
 --------------------------------------------------------
     1   Atom        0.065277      0.057503     -0.122780
     2   Atom       -0.185320     -0.177756      0.363076
     3   Atom       -0.185320     -0.177756      0.363076
     4   Atom        0.065277      0.057503     -0.122780
     5   Atom       -0.185320     -0.177756      0.363076
     6   Atom       -0.185320     -0.177756      0.363076
     7   Atom        0.005781     -0.000136     -0.005645
     8   Atom        0.011220     -0.003663     -0.007557
     9   Atom        0.011220     -0.003663     -0.007557
    10   Atom        0.005781     -0.000136     -0.005645
    11   Atom        0.011220     -0.003663     -0.007557
    12   Atom        0.011220     -0.003663     -0.007557
 --------------------------------------------------------
                        XY            XZ            YZ
 --------------------------------------------------------
     1   Atom        0.000000      0.000000      0.000000
     2   Atom       -0.004662     -0.000000     -0.000000
     3   Atom        0.004662     -0.000000      0.000000
     4   Atom       -0.000000      0.000000     -0.000000
     5   Atom       -0.004662      0.000000      0.000000
     6   Atom        0.004662      0.000000     -0.000000
     7   Atom        0.000000     -0.000000     -0.000000
     8   Atom       -0.028031     -0.000000      0.000000
     9   Atom        0.028031     -0.000000     -0.000000
    10   Atom       -0.000000     -0.000000      0.000000
    11   Atom       -0.028031      0.000000     -0.000000
    12   Atom        0.028031      0.000000      0.000000
 --------------------------------------------------------


 ---------------------------------------------------------------------------------
              Anisotropic Spin Dipole Couplings in Principal Axis System
 ---------------------------------------------------------------------------------

       Atom             a.u.   MegaHertz   Gauss  10(-4) cm-1        Axes

              Baa    -0.1228   -16.476    -5.879    -5.496  0.0000  0.0000  1.0000
     1 C(13)  Bbb     0.0575     7.716     2.753     2.574 -0.0000  1.0000 -0.0000
              Bcc     0.0653     8.760     3.126     2.922  1.0000  0.0000 -0.0000
 
              Baa    -0.1875   -25.166    -8.980    -8.395  0.9028  0.4301 -0.0000
     2 C(13)  Bbb    -0.1755   -23.555    -8.405    -7.857 -0.4301  0.9028 -0.0000
              Bcc     0.3631    48.721    17.385    16.252  0.0000  0.0000  1.0000
 
              Baa    -0.1875   -25.166    -8.980    -8.395  0.9028 -0.4301  0.0000
     3 C(13)  Bbb    -0.1755   -23.555    -8.405    -7.857  0.4301  0.9028 -0.0000
              Bcc     0.3631    48.721    17.385    16.252  0.0000  0.0000  1.0000
 
              Baa    -0.1228   -16.476    -5.879    -5.496  0.0000  0.0000  1.0000
     4 C(13)  Bbb     0.0575     7.716     2.753     2.574  0.0000  1.0000  0.0000
              Bcc     0.0653     8.760     3.126     2.922  1.0000 -0.0000  0.0000
 
              Baa    -0.1875   -25.166    -8.980    -8.395  0.9028  0.4301 -0.0000
     5 C(13)  Bbb    -0.1755   -23.555    -8.405    -7.857 -0.4301  0.9028 -0.0000
              Bcc     0.3631    48.721    17.385    16.252  0.0000  0.0000  1.0000
 
              Baa    -0.1875   -25.166    -8.980    -8.395  0.9028 -0.4301  0.0000
     6 C(13)  Bbb    -0.1755   -23.555    -8.405    -7.857  0.4301  0.9028 -0.0000
              Bcc     0.3631    48.721    17.385    16.252  0.0000  0.0000  1.0000
 
              Baa    -0.0056    -3.012    -1.075    -1.005  0.0000  0.0000  1.0000
     7 H(1)   Bbb    -0.0001    -0.072    -0.026    -0.024 -0.0000  1.0000 -0.0000
              Bcc     0.0058     3.085     1.101     1.029  1.0000  0.0000 -0.0000
 
              Baa    -0.0252   -13.458    -4.802    -4.489  0.6097  0.7926  0.0000
     8 H(1)   Bbb    -0.0076    -4.032    -1.439    -1.345  0.0000  0.0000  1.0000
              Bcc     0.0328    17.490     6.241     5.834  0.7926 -0.6097  0.0000
 
              Baa    -0.0252   -13.458    -4.802    -4.489 -0.6097  0.7926  0.0000
     9 H(1)   Bbb    -0.0076    -4.032    -1.439    -1.345  0.0000  0.0000  1.0000
              Bcc     0.0328    17.490     6.241     5.834  0.7926  0.6097 -0.0000
 
              Baa    -0.0056    -3.012    -1.075    -1.005  0.0000  0.0000  1.0000
    10 H(1)   Bbb    -0.0001    -0.072    -0.026    -0.024  0.0000  1.0000  0.0000
              Bcc     0.0058     3.085     1.101     1.029  1.0000 -0.0000  0.0000
 
              Baa    -0.0252   -13.458    -4.802    -4.489  0.6097  0.7926  0.0000
    11 H(1)   Bbb    -0.0076    -4.032    -1.439    -1.345  0.0000  0.0000  1.0000
              Bcc     0.0328    17.490     6.241     5.834  0.7926 -0.6097  0.0000
 
              Baa    -0.0252   -13.458    -4.802    -4.489 -0.6097  0.7926  0.0000
    12 H(1)   Bbb    -0.0076    -4.032    -1.439    -1.345  0.0000  0.0000  1.0000
              Bcc     0.0328    17.490     6.241     5.834  0.7926  0.6097 -0.0000
 

 ---------------------------------------------------------------------------------

 No NMR shielding tensors so no spin-rotation constants.
 Leave Link  601 at Mon Mar 16 03:49:36 2020, MaxMem=  6710886400 cpu:               3.2 elap:               0.2
 (Enter /opt/ohpc/pub/libs/gaussian/g16-A.03/sandybridge/g16/l9999.exe)

 Test job not archived.
 1\1\GINC-CNODE145\SP\ULC-wHPBE\6-31G\C6H6(1+,2)\QAI222\16-Mar-2020\0\\
 #P uLC-wHPBE/6-31G iop(3/107=0283700000, 3/108=0283700000) scf=(conver
 =6,fermi,ndamp=35,noincfock,novaracc,vshift=500,xqc)\\H6 C6\\1,2\C,0,0
 .,1.39316,0.\C,0,-1.206512,0.69658,0.\C,0,-1.206512,-0.69658,0.\C,0,0.
 ,-1.39316,0.\C,0,1.206512,-0.69658,0.\C,0,1.206512,0.69658,0.\H,0,0.,2
 .482681,0.\H,0,-2.150065,1.24134,0.\H,0,-2.150065,-1.24134,0.\H,0,0.,-
 2.482681,0.\H,0,2.150065,-1.24134,0.\H,0,2.150065,1.24134,0.\\Version=
 EM64L-G16RevA.03\HF=-231.6608617\S2=0.772319\S2-1=0.\S2A=0.750246\RMSD
 =6.630e-07\Dipole=0.,0.,0.\Quadrupole=5.062232,2.4171993,-7.4794313,0.
 ,0.,0.\PG=D06H [3C2'(H1C1.C1H1)]\\@


 We make a living by what we get,
 we make a life by what we give.
                   -- Sir Winston Churchill
 Job cpu time:       0 days  0 hours  0 minutes 48.5 seconds.
 Elapsed time:       0 days  0 hours  0 minutes  3.4 seconds.
 File lengths (MBytes):  RWF=    272 Int=      0 D2E=      0 Chk=     32 Scr=     32
 Normal termination of Gaussian 16 at Mon Mar 16 03:49:36 2020.
