 *******************************************************************************
 ** Site#: 29200        For non-commercial use only    Version 19.090L 64BITS **
 *******************************************************************************
 ** Cite this program as: MOPAC2016, Version: 19.090L, James J. P. Stewart,   **
 ** Stewart Computational Chemistry, web: HTTP://OpenMOPAC.net. Days left: 175**
 *******************************************************************************
 **                                                                           **
 **                                MOPAC2016                                  **
 **                                                                           **
 *******************************************************************************

                              PM7 CALCULATION RESULTS

 *******************************************************************************
 *  CALCULATION DONE:                                Mon Oct  7 21:33:14 2019  *
 *  CHARGES    - IDENTIFY AND PRINT CHARGED ATOMS
 *  T=         - A TIME OF 172800.0 SECONDS REQUESTED
 *  DUMP=N     - RESTART FILE WRITTEN EVERY  7200.000 SECONDS
 *******************************************************************************
CHARGES


   ATOM   CHEMICAL          X               Y               Z
  NUMBER   SYMBOL      (ANGSTROMS)     (ANGSTROMS)     (ANGSTROMS)
 
     1       C         10.08458500  *   0.54477000  *   8.55334400  *
     2       S         10.52525900  *   2.28747900  *   8.86783300  *
     3       F         10.89982300  *   0.04500800  *   7.63097600  *
     4       F         10.21335200  *  -0.19161700  *   9.65721400  *
     5       F          8.83436800  *   0.42645800  *   8.12069600  *
     6       N          9.36738900  *   2.74836100  *   9.83326200  *
     7       O         10.31933500  *   2.90399400  *   7.59644500  *
     8       O         11.85297700  *   2.23701200  *   9.40510800  *
     9       S          9.54172500  *   3.06698000  *  11.36324400  *
    10       C         10.06318100  *   4.81381000  *  11.36017200  *
    11       O         10.60276100  *   2.36713300  *  12.02767100  *
    12       O          8.24697500  *   3.08580700  *  11.96964100  *
    13       F         11.24435300  *   4.95574000  *  10.76263700  *
    14       F         10.18556200  *   5.26054400  *  12.60119800  *
    15       F          9.18097000  *   5.56089200  *  10.72143900  *
 


          CARTESIAN COORDINATES 

    NO.       ATOM           X           Y           Z

     1         C         10.0846      0.5448      8.5533
     2         S         10.5253      2.2875      8.8678
     3         F         10.8998      0.0450      7.6310
     4         F         10.2134     -0.1916      9.6572
     5         F          8.8344      0.4265      8.1207
     6         N          9.3674      2.7484      9.8333
     7         O         10.3193      2.9040      7.5964
     8         O         11.8530      2.2370      9.4051
     9         S          9.5417      3.0670     11.3632
    10         C         10.0632      4.8138     11.3602
    11         O         10.6028      2.3671     12.0277
    12         O          8.2470      3.0858     11.9696
    13         F         11.2444      4.9557     10.7626
    14         F         10.1856      5.2605     12.6012
    15         F          9.1810      5.5609     10.7214

 General Reference for PM7:
 "Optimization of Parameters for Semiempirical Methods VI: More Modifications to the 
 NDDO Approximations and Re-optimization of Parameters", J. J. P. Stewart, J. Mol. Mod., 1:32, 19 (2013)
 http://www.springerlink.com/openurl.asp?genre=article&id=doi:10.1007/s00894-012-1667-x

           Empirical Formula: C2 N O4 S2 F6  =    15 atoms



      MOLECULAR POINT GROUP   :   C1  

   TOPOGRAPHY OF SYSTEM

   ATOM No.    LABEL   Atoms connected to this atom
      1          C      2      3      4      5
      2          S      7      8      6      1
      3          F      1
      4          F      1
      5          F      1
      6          N      2      9
      7          O      2
      8          O      2
      9          S     11     12      6     10
     10          C      9     13     14     15
     11          O      9
     12          O      9
     13          F     10
     14          F     10
     15          F     10

     Ion Atom No.  Type    Charge
 
    1       6      N       +1

          COMPUTED CHARGE ON SYSTEM: +1

          COMPUTED CHARGE ON SYSTEM: +1

          JOB STOPPED HERE BECAUSE KEYWORD "CHARGES" WAS USED

 ******************************************************************************
 *                                                                            *
 *     Error and normal termination messages reported in this calculation     *
 *                                                                            *
 * JOB STOPPED HERE BECAUSE KEYWORD "CHARGES" WAS USED                        *
 * JOB ENDED NORMALLY                                                         *
 *                                                                            *
 ******************************************************************************



 TOTAL JOB TIME:             0.00 SECONDS

 == MOPAC DONE ==
