 *******************************************************************************
 ** Site#: 29200        For non-commercial use only    Version 19.090L 64BITS **
 *******************************************************************************
 ** Cite this program as: MOPAC2016, Version: 19.090L, James J. P. Stewart,   **
 ** Stewart Computational Chemistry, web: HTTP://OpenMOPAC.net. Days left: 175**
 *******************************************************************************
 **                                                                           **
 **                                MOPAC2016                                  **
 **                                                                           **
 *******************************************************************************

                              PM7 CALCULATION RESULTS

 *******************************************************************************
 *  CALCULATION DONE:                                Mon Oct  7 22:32:19 2019  *
 *  CHARGES    - IDENTIFY AND PRINT CHARGED ATOMS
 *  T=         - A TIME OF 172800.0 SECONDS REQUESTED
 *  DUMP=N     - RESTART FILE WRITTEN EVERY  7200.000 SECONDS
 *******************************************************************************
CHARGES


   ATOM   CHEMICAL          X               Y               Z
  NUMBER   SYMBOL      (ANGSTROMS)     (ANGSTROMS)     (ANGSTROMS)
 
     1       H          2.68096600  *   2.67905600  *   7.55206300  *
     2       C          3.47637200  *   2.66815000  *   8.07157200  *
     3       C          3.76618400  *   3.74432200  *   8.93318700  *
     4       C          4.33700700  *   1.60311800  *   7.97888500  *
     5       C          4.92923300  *   3.64962800  *   9.72455300  *
     6       N          2.92419100  *   4.84600600  *   8.99954400  *
     7       H          4.13985100  *   0.89903800  *   7.37216000  *
     8       C          5.49418600  *   1.52959100  *   8.75405800  *
     9       C          5.77726700  *   2.53892000  *   9.62333700  *
    10       S          5.44827200  *   4.89101400  *  10.79471500  *
    11       C          2.96164800  *   5.79194600  *  10.02214700  *
    12       C          1.85866800  *   4.98203200  *   7.99124900  *
    13       H          6.07807500  *   0.78386800  *   8.67644200  *
    14       H          6.55596400  *   2.48964600  *  10.16524500  *
    15       C          4.05254500  *   5.88664000  *  10.91570700  *
    16       C          1.90130300  *   6.69432600  *  10.19850700  *
    17       H          1.68982000  *   5.93172600  *   7.82033800  *
    18       H          1.03930400  *   4.55869300  *   8.32302200  *
    19       H          2.13831400  *   4.54477800  *   7.15978400  *
    20       C          4.07325800  *   6.85920600  *  11.92711200  *
    21       H          1.14822100  *   6.65319600  *   9.62090300  *
    22       C          1.94169300  *   7.63681300  *  11.19907300  *
    23       H          4.82003900  *   6.91886300  *  12.51130700  *
    24       C          3.02327000  *   7.71925200  *  12.07392800  *
    25       H          1.21738600  *   8.24331300  *  11.29587200  *
    26       H          3.02998400  *   8.36894400  *  12.76682400  *
 


          CARTESIAN COORDINATES 

    NO.       ATOM           X           Y           Z

     1         H          2.6810      2.6791      7.5521
     2         C          3.4764      2.6682      8.0716
     3         C          3.7662      3.7443      8.9332
     4         C          4.3370      1.6031      7.9789
     5         C          4.9292      3.6496      9.7246
     6         N          2.9242      4.8460      8.9995
     7         H          4.1399      0.8990      7.3722
     8         C          5.4942      1.5296      8.7541
     9         C          5.7773      2.5389      9.6233
    10         S          5.4483      4.8910     10.7947
    11         C          2.9616      5.7919     10.0221
    12         C          1.8587      4.9820      7.9912
    13         H          6.0781      0.7839      8.6764
    14         H          6.5560      2.4896     10.1652
    15         C          4.0525      5.8866     10.9157
    16         C          1.9013      6.6943     10.1985
    17         H          1.6898      5.9317      7.8203
    18         H          1.0393      4.5587      8.3230
    19         H          2.1383      4.5448      7.1598
    20         C          4.0733      6.8592     11.9271
    21         H          1.1482      6.6532      9.6209
    22         C          1.9417      7.6368     11.1991
    23         H          4.8200      6.9189     12.5113
    24         C          3.0233      7.7193     12.0739
    25         H          1.2174      8.2433     11.2959
    26         H          3.0300      8.3689     12.7668

 General Reference for PM7:
 "Optimization of Parameters for Semiempirical Methods VI: More Modifications to the 
 NDDO Approximations and Re-optimization of Parameters", J. J. P. Stewart, J. Mol. Mod., 1:32, 19 (2013)
 http://www.springerlink.com/openurl.asp?genre=article&id=doi:10.1007/s00894-012-1667-x

           Empirical Formula: C13 H11 N S  =    26 atoms



      MOLECULAR POINT GROUP   :   Cs  

          COMPUTED CHARGE ON SYSTEM: +0

   COMPUTED CHARGE ON SYSTEM = +0. THIS AGREES WITH THE CHARGE IN THE DATA-SET.

          JOB STOPPED HERE BECAUSE KEYWORD "CHARGES" WAS USED

 ******************************************************************************
 *                                                                            *
 *     Error and normal termination messages reported in this calculation     *
 *                                                                            *
 * JOB STOPPED HERE BECAUSE KEYWORD "CHARGES" WAS USED                        *
 * JOB ENDED NORMALLY                                                         *
 *                                                                            *
 ******************************************************************************



 TOTAL JOB TIME:             0.00 SECONDS

 == MOPAC DONE ==
