 *******************************************************************************
 ** Site#: 29200        For non-commercial use only    Version 19.090L 64BITS **
 *******************************************************************************
 ** Cite this program as: MOPAC2016, Version: 19.090L, James J. P. Stewart,   **
 ** Stewart Computational Chemistry, web: HTTP://OpenMOPAC.net. Days left: 175**
 *******************************************************************************
 **                                                                           **
 **                                MOPAC2016                                  **
 **                                                                           **
 *******************************************************************************

                              PM7 CALCULATION RESULTS

 *******************************************************************************
 *  CALCULATION DONE:                                Mon Oct  7 21:30:44 2019  *
 *  CHARGES    - IDENTIFY AND PRINT CHARGED ATOMS
 *  T=         - A TIME OF 172800.0 SECONDS REQUESTED
 *  DUMP=N     - RESTART FILE WRITTEN EVERY  7200.000 SECONDS
 *******************************************************************************
CHARGES


   ATOM   CHEMICAL          X               Y               Z
  NUMBER   SYMBOL      (ANGSTROMS)     (ANGSTROMS)     (ANGSTROMS)
 
     1       H          1.88602100  *   6.31778600  *  15.90692900  *
     2       C          1.83435200  *   6.43631100  *  14.96569500  *
     3       C          1.76407100  *   5.30711600  *  14.12283300  *
     4       C          1.82895800  *   7.70495500  *  14.43979200  *
     5       C          1.66591000  *   5.52126500  *  12.72957700  *
     6       N          1.80755000  *   4.03469300  *  14.67217400  *
     7       H          1.88615300  *   8.45454000  *  15.02071800  *
     8       C          1.73975900  *   7.90625500  *  13.05369100  *
     9       C          1.65653400  *   6.82870800  *  12.21547800  *
    10       S          1.56152600  *   4.25312500  *  11.57921400  *
    11       C          1.73262300  *   2.85233900  *  13.95149200  *
    12       C          2.05540000  *   3.93555500  *  16.10440500  *
    13       H          1.73729400  *   8.78751600  *  12.69902000  *
    14       H          1.59173000  *   6.96549900  *  11.27771100  *
    15       C          1.61230800  *   2.83445100  *  12.54358000  *
    16       C          1.78896400  *   1.61480900  *  14.62434700  *
    17       C          0.98575500  *   3.81789900  *  16.97348000  *
    18       C          3.36534300  *   3.96263800  *  16.54389800  *
    19       C          1.54518000  *   1.61468300  *  11.85425300  *
    20       H          1.86811400  *   1.59911400  *  15.57083600  *
    21       C          1.73096300  *   0.43220300  *  13.92979000  *
    22       H          0.09297500  *   3.81823900  *  16.64861800  *
    23       C          1.24837500  *   3.69898300  *  18.33528600  *
    24       H          4.08326000  *   4.05366400  *  15.92850300  *
    25       C          3.60713500  *   3.85354800  *  17.90941700  *
    26       H          1.45224700  *   1.61281900  *  10.90884200  *
    27       C          1.61239100  *   0.42401500  *  12.53308700  *
    28       H          1.77177900  *  -0.39118700  *  14.40187000  *
    29       H          0.53014200  *   3.61070300  *  18.95072300  *
    30       C          2.55358800  *   3.70918700  *  18.79397600  *
    31       H          4.49903600  *   3.87825100  *  18.23572300  *
    32       H          1.57881000  *  -0.39924900  *  12.06024500  *
    33       H          2.72748100  *   3.61637200  *  19.72330700  *
 


          CARTESIAN COORDINATES 

    NO.       ATOM           X           Y           Z

     1         H          1.8860      6.3178     15.9069
     2         C          1.8344      6.4363     14.9657
     3         C          1.7641      5.3071     14.1228
     4         C          1.8290      7.7050     14.4398
     5         C          1.6659      5.5213     12.7296
     6         N          1.8075      4.0347     14.6722
     7         H          1.8862      8.4545     15.0207
     8         C          1.7398      7.9063     13.0537
     9         C          1.6565      6.8287     12.2155
    10         S          1.5615      4.2531     11.5792
    11         C          1.7326      2.8523     13.9515
    12         C          2.0554      3.9356     16.1044
    13         H          1.7373      8.7875     12.6990
    14         H          1.5917      6.9655     11.2777
    15         C          1.6123      2.8345     12.5436
    16         C          1.7890      1.6148     14.6243
    17         C          0.9858      3.8179     16.9735
    18         C          3.3653      3.9626     16.5439
    19         C          1.5452      1.6147     11.8543
    20         H          1.8681      1.5991     15.5708
    21         C          1.7310      0.4322     13.9298
    22         H          0.0930      3.8182     16.6486
    23         C          1.2484      3.6990     18.3353
    24         H          4.0833      4.0537     15.9285
    25         C          3.6071      3.8535     17.9094
    26         H          1.4522      1.6128     10.9088
    27         C          1.6124      0.4240     12.5331
    28         H          1.7718     -0.3912     14.4019
    29         H          0.5301      3.6107     18.9507
    30         C          2.5536      3.7092     18.7940
    31         H          4.4990      3.8783     18.2357
    32         H          1.5788     -0.3992     12.0602
    33         H          2.7275      3.6164     19.7233

 General Reference for PM7:
 "Optimization of Parameters for Semiempirical Methods VI: More Modifications to the 
 NDDO Approximations and Re-optimization of Parameters", J. J. P. Stewart, J. Mol. Mod., 1:32, 19 (2013)
 http://www.springerlink.com/openurl.asp?genre=article&id=doi:10.1007/s00894-012-1667-x

           Empirical Formula: C18 H13 N S  =    33 atoms



      MOLECULAR POINT GROUP   :   C1  

          COMPUTED CHARGE ON SYSTEM: +0

   COMPUTED CHARGE ON SYSTEM = +0. THIS AGREES WITH THE CHARGE IN THE DATA-SET.

          JOB STOPPED HERE BECAUSE KEYWORD "CHARGES" WAS USED

 ******************************************************************************
 *                                                                            *
 *     Error and normal termination messages reported in this calculation     *
 *                                                                            *
 * JOB STOPPED HERE BECAUSE KEYWORD "CHARGES" WAS USED                        *
 * JOB ENDED NORMALLY                                                         *
 *                                                                            *
 ******************************************************************************



 TOTAL JOB TIME:             0.00 SECONDS

 == MOPAC DONE ==
