 *******************************************************************************
 ** Site#: 29200        For non-commercial use only    Version 19.090L 64BITS **
 *******************************************************************************
 ** Cite this program as: MOPAC2016, Version: 19.090L, James J. P. Stewart,   **
 ** Stewart Computational Chemistry, web: HTTP://OpenMOPAC.net. Days left: 175**
 *******************************************************************************
 **                                                                           **
 **                                MOPAC2016                                  **
 **                                                                           **
 *******************************************************************************

                              PM7 CALCULATION RESULTS

 *******************************************************************************
 *  CALCULATION DONE:                                Mon Oct  7 21:30:44 2019  *
 *  CHARGES    - IDENTIFY AND PRINT CHARGED ATOMS
 *  T=         - A TIME OF 172800.0 SECONDS REQUESTED
 *  DUMP=N     - RESTART FILE WRITTEN EVERY  7200.000 SECONDS
 *******************************************************************************
CHARGES


   ATOM   CHEMICAL          X               Y               Z
  NUMBER   SYMBOL      (ANGSTROMS)     (ANGSTROMS)     (ANGSTROMS)
 
     1       C          2.54056100  *  11.43215500  *   8.64747300  *
     2       S          2.30324900  *   9.78900300  *   9.43685300  *
     3       F          3.41056500  *  11.38390900  *   7.65973500  *
     4       F          1.40677600  *  11.89887400  *   8.15707100  *
     5       F          2.98995900  *  12.28333500  *   9.55723600  *
     6       N          1.61380100  *   8.93240700  *   8.30523000  *
     7       O          1.32670400  *  10.03754200  *  10.45842400  *
     8       O          3.61418800  *   9.38073400  *   9.83013300  *
     9       S          2.42240300  *   8.15643200  *   7.19536800  *
    10       C          2.59582300  *   6.46830800  *   7.88737600  *
    11       O          3.76644900  *   8.58158000  *   6.96764400  *
    12       O          1.57181500  *   7.97868800  *   6.05721700  *
    13       F          3.28394300  *   6.47775500  *   9.01929800  *
    14       F          3.24170800  *   5.70304000  *   7.01440300  *
    15       F          1.41034400  *   5.92701400  *   8.12746500  *
 


          CARTESIAN COORDINATES 

    NO.       ATOM           X           Y           Z

     1         C          2.5406     11.4322      8.6475
     2         S          2.3032      9.7890      9.4369
     3         F          3.4106     11.3839      7.6597
     4         F          1.4068     11.8989      8.1571
     5         F          2.9900     12.2833      9.5572
     6         N          1.6138      8.9324      8.3052
     7         O          1.3267     10.0375     10.4584
     8         O          3.6142      9.3807      9.8301
     9         S          2.4224      8.1564      7.1954
    10         C          2.5958      6.4683      7.8874
    11         O          3.7664      8.5816      6.9676
    12         O          1.5718      7.9787      6.0572
    13         F          3.2839      6.4778      9.0193
    14         F          3.2417      5.7030      7.0144
    15         F          1.4103      5.9270      8.1275

 General Reference for PM7:
 "Optimization of Parameters for Semiempirical Methods VI: More Modifications to the 
 NDDO Approximations and Re-optimization of Parameters", J. J. P. Stewart, J. Mol. Mod., 1:32, 19 (2013)
 http://www.springerlink.com/openurl.asp?genre=article&id=doi:10.1007/s00894-012-1667-x

           Empirical Formula: C2 N O4 S2 F6  =    15 atoms



      MOLECULAR POINT GROUP   :   C2  

   TOPOGRAPHY OF SYSTEM

   ATOM No.    LABEL   Atoms connected to this atom
      1          C      2      3      4      5
      2          S      7      8      6      1
      3          F      1
      4          F      1
      5          F      1
      6          N      2      9
      7          O      2
      8          O      2
      9          S     11     12      6     10
     10          C      9     13     14     15
     11          O      9
     12          O      9
     13          F     10
     14          F     10
     15          F     10

     Ion Atom No.  Type    Charge
 
    1       6      N       +1

          COMPUTED CHARGE ON SYSTEM: +1

          COMPUTED CHARGE ON SYSTEM: +1

          JOB STOPPED HERE BECAUSE KEYWORD "CHARGES" WAS USED

 ******************************************************************************
 *                                                                            *
 *     Error and normal termination messages reported in this calculation     *
 *                                                                            *
 * JOB STOPPED HERE BECAUSE KEYWORD "CHARGES" WAS USED                        *
 * JOB ENDED NORMALLY                                                         *
 *                                                                            *
 ******************************************************************************



 TOTAL JOB TIME:             0.00 SECONDS

 == MOPAC DONE ==
