36
MMFF94s energy: 96.8131 kcal/mol
C	3.00696 -2.18277 0.188187
C	3.6021 -0.920533 0.129195
C	2.8171 0.237547 0.053865
C	3.39861 1.51086 -0.00596401
C	2.60202 2.65573 -0.080768
C	1.20465 2.55499 -0.0975403
C	0.39164 3.69363 -0.172276
C	-1.00008 3.57628 -0.188095
C	-1.61244 2.31745 -0.129555
C	-3.00696 2.18278 -0.144465
C	-3.60209 0.920538 -0.0854659
C	-2.81709 -0.237546 -0.0101358
C	-3.3986 -1.51086 0.0496642
C	-2.60201 -2.65574 0.124471
C	-1.20465 -2.555 0.141278
C	-0.391646 -3.69364 0.216001
C	1.00007 -3.57628 0.231808
C	1.61244 -2.31745 0.173261
C	0.806633 -1.15932 0.0976004
C	1.40927 0.118836 0.0378787
C	0.602632 1.27815 -0.0378679
C	-0.806637 1.15932 -0.053898
C	-1.40927 -0.118834 0.0058417
C	-0.602635 -1.27815 0.0815922
H	3.64503 -3.06183 0.246042
H	4.68754 -0.850745 0.142702
H	4.48044 1.62382 0.00516598
H	3.08501 3.62934 -0.125868
H	0.835408 4.68566 -0.219024
H	-1.60252 4.48008 -0.246715
H	-3.64502 3.06185 -0.202326
H	-4.68753 0.850741 -0.0989899
H	-4.48042 -1.62385 0.0385609
H	-3.08503 -3.62934 0.16959
H	-0.835405 -4.68567 0.262738
H	1.60251 -4.48008 0.290435
