38
MMFF94s energy: -4.0362 kcal/mol
C	5.8986 0.213217 -0.475661
C	4.63065 -0.424087 -1.02279
C	3.48829 -0.489879 -0.00535309
C	2.94552 0.887683 0.384239
C	1.80812 0.824927 1.40931
C	0.528601 0.184385 0.864145
C	-0.607116 0.265648 1.88799
C	-1.87866 -0.46487 1.44655
C	-2.54974 0.16591 0.224449
C	-3.87285 -0.530674 -0.101883
C	-4.54355 0.0946355 -1.32482
C	-5.85873 -0.594339 -1.65207
H	6.70483 0.136209 -1.21234
H	5.75297 1.27477 -0.256248
H	6.22767 -0.288601 0.439706
H	4.3042 0.120069 -1.91663
H	4.86754 -1.44584 -1.34309
H	2.68497 -1.08903 -0.448278
H	3.82514 -1.02337 0.891641
H	2.60385 1.41921 -0.512086
H	3.75126 1.48835 0.82103
H	2.14561 0.280997 2.29994
H	1.5837 1.84953 1.73147
H	0.237941 0.695702 -0.0600507
H	0.710688 -0.866614 0.615097
H	-0.841726 1.31608 2.09906
H	-0.269118 -0.178261 2.83271
H	-2.58485 -0.457653 2.28619
H	-1.64558 -1.5165 1.23977
H	-2.73255 1.23053 0.413615
H	-1.88655 0.0985957 -0.645114
H	-3.69081 -1.59635 -0.287096
H	-4.54681 -0.463034 0.760822
H	-3.8762 0.0257048 -2.19176
H	-4.73082 1.15937 -1.14323
H	-6.5615 -0.515469 -0.816468
H	-5.70198 -1.65547 -1.87063
H	-6.32102 -0.131479 -2.52954
