38
MMFF94s energy: -4.4232 kcal/mol
C	5.43765 -1.09112 0.747973
C	4.4072 -0.391834 -0.125532
C	3.94346 0.922258 0.503265
C	2.99196 1.72386 -0.390202
C	1.68981 1.0187 -0.78192
C	0.826361 0.622912 0.417552
C	-0.511201 0.0296692 -0.0340347
C	-1.37412 -0.367009 1.16594
C	-2.67613 -1.07126 0.77356
C	-3.65025 -0.169692 0.0120169
C	-4.97565 -0.885737 -0.25185
C	-5.94742 0.00302864 -1.01176
H	5.02287 -1.32297 1.73417
H	5.75391 -2.03009 0.282928
H	6.32502 -0.46521 0.886256
H	4.84358 -0.199546 -1.1124
H	3.55635 -1.06623 -0.269649
H	4.82027 1.54881 0.710754
H	3.47265 0.725296 1.47325
H	2.74585 2.66258 0.121785
H	3.52209 2.00535 -1.30869
H	1.11803 1.69906 -1.42573
H	1.90932 0.13408 -1.39062
H	0.643891 1.50283 1.0461
H	1.35467 -0.113917 1.03288
H	-0.328235 -0.850047 -0.662748
H	-1.03967 0.76615 -0.649436
H	-1.60309 0.521067 1.7675
H	-0.800785 -1.04512 1.81031
H	-2.44696 -1.96002 0.173073
H	-3.16102 -1.42711 1.69117
H	-3.8354 0.743523 0.590328
H	-3.21165 0.134369 -0.944902
H	-5.43237 -1.18692 0.698091
H	-4.79626 -1.79959 -0.830153
H	-6.17239 0.912375 -0.445356
H	-6.88778 -0.528247 -1.1889
H	-5.53458 0.295748 -1.98243
