38
MMFF94s energy: 5.5476 kcal/mol
C	4.66124 -0.466493 -0.495429
C	3.69554 0.672943 -0.20947
C	2.31373 0.47443 -0.837121
C	1.54577 -0.764487 -0.366309
C	1.30822 -0.869314 1.14124
C	0.615366 0.316203 1.82211
C	-0.884989 0.456759 1.53595
C	-1.20682 1.27371 0.281729
C	-2.70003 1.58648 0.131426
C	-3.49749 0.617731 -0.75046
C	-3.70358 -0.782178 -0.169996
C	-2.74194 -1.81132 -0.744922
H	5.65494 -0.223098 -0.105799
H	4.75359 -0.642558 -1.57177
H	4.33754 -1.39627 -0.0186713
H	4.12447 1.59986 -0.609257
H	3.608 0.815421 0.873008
H	1.71322 1.37162 -0.649246
H	2.42693 0.413444 -1.92703
H	0.587164 -0.805473 -0.892118
H	2.0843 -1.66361 -0.690553
H	0.731628 -1.78184 1.339
H	2.2764 -1.02222 1.63424
H	1.14072 1.25488 1.61693
H	0.716787 0.152177 2.90365
H	-1.35124 -0.531281 1.49871
H	-1.33247 0.97326 2.39542
H	-0.836446 0.788861 -0.623884
H	-0.674003 2.23025 0.360822
H	-3.17965 1.6839 1.11264
H	-2.77932 2.57484 -0.340982
H	-3.05068 0.565437 -1.75057
H	-4.49083 1.06562 -0.887406
H	-4.72029 -1.11306 -0.416786
H	-3.64147 -0.768707 0.923236
H	-2.8725 -1.90299 -1.82817
H	-1.70015 -1.54956 -0.551359
H	-2.93167 -2.79337 -0.3002
