38
MMFF94s energy: -2.1514 kcal/mol
C	5.15449 -0.627305 0.550238
C	4.24593 -0.356966 -0.638851
C	3.67304 1.0619 -0.658827
C	2.81454 1.44768 0.550318
C	1.62126 0.53165 0.843857
C	0.604016 0.475395 -0.298735
C	-0.58848 -0.443652 -0.00855075
C	-1.51445 0.0884664 1.08803
C	-2.70265 -0.834081 1.38258
C	-3.654 -1.09993 0.211869
C	-4.29026 0.168475 -0.356843
C	-5.31391 -0.159375 -1.4332
H	4.60051 -0.599954 1.4931
H	5.60582 -1.62058 0.459763
H	5.96321 0.108465 0.601917
H	4.82376 -0.507427 -1.55888
H	3.43788 -1.09626 -0.658485
H	3.08842 1.19083 -1.57727
H	4.50278 1.77665 -0.731081
H	2.44575 2.46994 0.397389
H	3.44864 1.48918 1.44412
H	1.9715 -0.479192 1.08086
H	1.1352 0.909757 1.75018
H	0.243883 1.48569 -0.52715
H	1.09448 0.101013 -1.20442
H	-0.226681 -1.44304 0.261361
H	-1.15402 -0.551516 -0.94104
H	-0.951865 0.202886 2.02134
H	-1.87244 1.08896 0.820267
H	-2.32166 -1.7974 1.74423
H	-3.27702 -0.40108 2.21126
H	-4.44729 -1.76989 0.567279
H	-3.13064 -1.643 -0.583318
H	-4.78016 0.732084 0.445435
H	-3.52257 0.817559 -0.791437
H	-5.75457 0.760685 -1.82976
H	-4.84938 -0.699562 -2.26433
H	-6.12307 -0.777049 -1.03063
