38
MMFF94s energy: -0.4772 kcal/mol
C	5.01149 -0.420876 -1.49969
C	3.68308 0.0654938 -0.94061
C	3.28386 -0.719334 0.309648
C	1.89999 -0.34136 0.848327
C	1.82098 1.09927 1.35363
C	0.536192 1.4235 2.12587
C	-0.749346 1.33355 1.29427
C	-1.47285 -0.00732747 1.4568
C	-2.8045 -0.0745549 0.700241
C	-2.63338 -0.10096 -0.821192
C	-3.96249 -0.172528 -1.57793
C	-4.71153 -1.48014 -1.37239
H	5.28103 0.154717 -2.39076
H	4.95565 -1.47704 -1.78208
H	5.81322 -0.303342 -0.763636
H	3.77051 1.13231 -0.708737
H	2.90946 -0.0396955 -1.70991
H	3.27743 -1.79081 0.0735905
H	4.03638 -0.574472 1.09438
H	1.15695 -0.50226 0.05926
H	1.65512 -1.02577 1.66956
H	1.91355 1.79576 0.512161
H	2.67221 1.2943 2.0178
H	0.466866 0.795785 3.02209
H	0.632151 2.45715 2.48305
H	-1.42991 2.12515 1.63318
H	-0.529081 1.54042 0.242019
H	-1.68144 -0.166403 2.52236
H	-0.834774 -0.836938 1.13785
H	-3.43779 0.772486 0.989993
H	-3.32321 -0.983791 1.02454
H	-2.00075 -0.949506 -1.10853
H	-2.11418 0.806308 -1.14899
H	-4.60455 0.666523 -1.28573
H	-3.75722 -0.0560864 -2.64891
H	-4.08021 -2.33859 -1.62239
H	-5.59569 -1.51107 -2.01732
H	-5.05323 -1.5899 -0.339217
