38
MMFF94s energy: -1.9134 kcal/mol
C	4.70554 -0.00283778 -0.678718
C	3.24891 0.0996808 -1.10327
C	2.33184 -0.89091 -0.382258
C	2.27018 -0.747229 1.14171
C	1.84547 0.630046 1.66124
C	0.486461 1.13582 1.16565
C	-0.678099 0.224264 1.56019
C	-2.05188 0.834904 1.26329
C	-2.32858 1.16152 -0.207743
C	-2.20439 -0.0137189 -1.18259
C	-3.09057 -1.2233 -0.876421
C	-4.57757 -0.905343 -0.892755
H	4.84116 0.294609 0.365189
H	5.07909 -1.02456 -0.799539
H	5.32351 0.658529 -1.29451
H	2.89612 1.12604 -0.955572
H	3.18658 -0.0959873 -2.18068
H	1.32207 -0.798754 -0.798278
H	2.66035 -1.91134 -0.617212
H	3.2511 -0.98999 1.56796
H	1.58587 -1.50929 1.53377
H	1.82965 0.593057 2.75794
H	2.61039 1.37023 1.39834
H	0.320734 2.13297 1.59233
H	0.516044 1.26536 0.0788042
H	-0.624175 0.0206664 2.63698
H	-0.589468 -0.744345 1.05735
H	-2.82501 0.153005 1.63662
H	-2.16096 1.75838 1.84611
H	-3.33559 1.58936 -0.283293
H	-1.64899 1.95706 -0.536383
H	-1.16075 -0.346127 -1.22181
H	-2.44049 0.350706 -2.19048
H	-2.892 -1.99443 -1.63068
H	-2.82068 -1.66131 0.0905285
H	-5.1593 -1.82375 -0.763916
H	-4.87144 -0.449148 -1.84332
H	-4.85114 -0.223839 -0.0820036
