28
MMFF94s energy: 28.2181 kcal/mol
C	-4.63011 1.29207 0.351331
O	-4.20065 -0.0630701 0.343425
C	-2.85014 -0.28672 0.280959
C	-2.49215 -1.63578 0.276422
C	-1.15045 -2.03329 0.215997
C	-0.14345 -1.05053 0.158705
C	-0.523344 0.289699 0.164371
C	-1.86371 0.704397 0.224572
N	0.631677 1.03382 0.102228
C	1.74319 0.223694 0.0566501
C	3.10264 0.549553 -0.011367
C	3.6345 1.94672 -0.049812
N	3.99785 -0.474245 -0.0446152
C	3.55961 -1.75136 -0.0117651
C	2.22897 -2.12828 0.0553507
C	1.2855 -1.09226 0.0907921
H	-4.33932 1.80389 -0.571994
H	-4.25304 1.8207 1.23304
H	-5.72314 1.29606 0.403543
H	-3.26934 -2.39558 0.320653
H	-0.895708 -3.08868 0.213658
H	-2.10122 1.76064 0.226079
H	0.659767 2.04262 0.091483
H	4.72772 1.94821 -0.102077
H	3.33284 2.48928 0.851283
H	3.2478 2.47269 -0.927968
H	4.34393 -2.50297 -0.0422493
H	1.93977 -3.17127 0.0788945
