 Entering Gaussian System, Link 0=g16
 Input=1b_tune_c8.gjf
 Output=1b_tune_c8.log
 Initial command:
 /opt/ohpc/pub/libs/gaussian/g16-A.03/haswell/g16/l1.exe "/scratch/smgo234/Ocelot/test/1b/tuning_1b_ocycle2/Gau-45654.inp" -scrdir="/scratch/smgo234/Ocelot/test/1b/tuning_1b_ocycle2/"
 Entering Link 1 = /opt/ohpc/pub/libs/gaussian/g16-A.03/haswell/g16/l1.exe PID=     45655.
  
 Copyright (c) 1988,1990,1992,1993,1995,1998,2003,2009,2016,
            Gaussian, Inc.  All Rights Reserved.
  
 This is part of the Gaussian(R) 16 program.  It is based on
 the Gaussian(R) 09 system (copyright 2009, Gaussian, Inc.),
 the Gaussian(R) 03 system (copyright 2003, Gaussian, Inc.),
 the Gaussian(R) 98 system (copyright 1998, Gaussian, Inc.),
 the Gaussian(R) 94 system (copyright 1995, Gaussian, Inc.),
 the Gaussian 92(TM) system (copyright 1992, Gaussian, Inc.),
 the Gaussian 90(TM) system (copyright 1990, Gaussian, Inc.),
 the Gaussian 88(TM) system (copyright 1988, Gaussian, Inc.),
 the Gaussian 86(TM) system (copyright 1986, Carnegie Mellon
 University), and the Gaussian 82(TM) system (copyright 1983,
 Carnegie Mellon University). Gaussian is a federally registered
 trademark of Gaussian, Inc.
  
 This software contains proprietary and confidential information,
 including trade secrets, belonging to Gaussian, Inc.
  
 This software is provided under written license and may be
 used, copied, transmitted, or stored only in accord with that
 written license.
  
 The following legend is applicable only to US Government
 contracts under FAR:
  
                    RESTRICTED RIGHTS LEGEND
  
 Use, reproduction and disclosure by the US Government is
 subject to restrictions as set forth in subparagraphs (a)
 and (c) of the Commercial Computer Software - Restricted
 Rights clause in FAR 52.227-19.
  
 Gaussian, Inc.
 340 Quinnipiac St., Bldg. 40, Wallingford CT 06492
  
  
 ---------------------------------------------------------------
 Warning -- This program may not be used in any manner that
 competes with the business of Gaussian, Inc. or will provide
 assistance to any competitor of Gaussian, Inc.  The licensee
 of this program is prohibited from giving any competitor of
 Gaussian, Inc. access to this program.  By using this program,
 the user acknowledges that Gaussian, Inc. is engaged in the
 business of creating and licensing software in the field of
 computational chemistry and represents and warrants to the
 licensee that it is not a competitor of Gaussian, Inc. and that
 it will not use this program in any manner prohibited above.
 ---------------------------------------------------------------
  

 Cite this work as:
 Gaussian 16, Revision A.03,
 M. J. Frisch, G. W. Trucks, H. B. Schlegel, G. E. Scuseria, 
 M. A. Robb, J. R. Cheeseman, G. Scalmani, V. Barone, 
 G. A. Petersson, H. Nakatsuji, X. Li, M. Caricato, A. V. Marenich, 
 J. Bloino, B. G. Janesko, R. Gomperts, B. Mennucci, H. P. Hratchian, 
 J. V. Ortiz, A. F. Izmaylov, J. L. Sonnenberg, D. Williams-Young, 
 F. Ding, F. Lipparini, F. Egidi, J. Goings, B. Peng, A. Petrone, 
 T. Henderson, D. Ranasinghe, V. G. Zakrzewski, J. Gao, N. Rega, 
 G. Zheng, W. Liang, M. Hada, M. Ehara, K. Toyota, R. Fukuda, 
 J. Hasegawa, M. Ishida, T. Nakajima, Y. Honda, O. Kitao, H. Nakai, 
 T. Vreven, K. Throssell, J. A. Montgomery, Jr., J. E. Peralta, 
 F. Ogliaro, M. J. Bearpark, J. J. Heyd, E. N. Brothers, K. N. Kudin, 
 V. N. Staroverov, T. A. Keith, R. Kobayashi, J. Normand, 
 K. Raghavachari, A. P. Rendell, J. C. Burant, S. S. Iyengar, 
 J. Tomasi, M. Cossi, J. M. Millam, M. Klene, C. Adamo, R. Cammi, 
 J. W. Ochterski, R. L. Martin, K. Morokuma, O. Farkas, 
 J. B. Foresman, and D. J. Fox, Gaussian, Inc., Wallingford CT, 2016.
 
 ******************************************
 Gaussian 16:  ES64L-G16RevA.03 25-Dec-2016
                25-Feb-2020 
 ******************************************
 %mem=50GB
 %nproc=16
 Will use up to   16 processors via shared memory.
 ----------------------------------------------------------------------
 #P uLC-wHPBE/6-31G iop(3/107=0314700000, 3/108=0314700000) scf=(conver
 =6,fermi,ndamp=35,noincfock,novaracc,vshift=500,xqc)
 ----------------------------------------------------------------------
 1/38=1,172=1/1;
 2/12=2,17=6,18=5,40=1/2;
 3/5=1,6=6,11=2,25=1,30=1,74=-71,107=314700000,108=314700000,116=2/1,2,3;
 4//1;
 5/5=100002,6=6,8=3,10=500,13=1,18=-1,22=13,38=1,93=35/2,8;
 6/7=2,8=2,9=2,10=2,28=1/1;
 99/5=1,9=1/99;
 Leave Link    1 at Tue Feb 25 12:23:50 2020, MaxMem=  6710886400 cpu:               9.1 elap:               0.6
 (Enter /opt/ohpc/pub/libs/gaussian/g16-A.03/haswell/g16/l101.exe)
 -----
 H6 C5
 -----
 Symbolic Z-matrix:
 Charge =  1 Multiplicity = 2
 C                     0.        0.89521  -0.93345 
 C                     0.        1.13161   0.42437 
 C                     0.        0.        1.24092 
 C                     0.       -1.13161   0.42437 
 C                     0.       -0.89521  -0.93345 
 H                     0.        0.       -1.7208 
 H                     0.        1.62009  -1.74222 
 H                     0.        2.16001   0.77306 
 H                     0.        0.        2.32259 
 H                     0.       -2.16001   0.77306 
 H                     0.       -1.62009  -1.74222 
 
 ITRead=  0  0  0  0  0  0  0  0  0  0  0
 MicOpt= -1 -1 -1 -1 -1 -1 -1 -1 -1 -1 -1
 NAtoms=     11 NQM=       11 NQMF=       0 NMMI=      0 NMMIF=      0
                NMic=       0 NMicF=      0.
                    Isotopes and Nuclear Properties:
 (Nuclear quadrupole moments (NQMom) in fm**2, nuclear magnetic moments (NMagM)
  in nuclear magnetons)

  Atom         1           2           3           4           5           6           7           8           9          10
 IAtWgt=          12          12          12          12          12           1           1           1           1           1
 AtmWgt=  12.0000000  12.0000000  12.0000000  12.0000000  12.0000000   1.0078250   1.0078250   1.0078250   1.0078250   1.0078250
 NucSpn=           0           0           0           0           0           1           1           1           1           1
 AtZEff=  -0.0000000  -0.0000000  -0.0000000  -0.0000000  -0.0000000  -0.0000000  -0.0000000  -0.0000000  -0.0000000  -0.0000000
 NQMom=    0.0000000   0.0000000   0.0000000   0.0000000   0.0000000   0.0000000   0.0000000   0.0000000   0.0000000   0.0000000
 NMagM=    0.0000000   0.0000000   0.0000000   0.0000000   0.0000000   2.7928460   2.7928460   2.7928460   2.7928460   2.7928460
 AtZNuc=   6.0000000   6.0000000   6.0000000   6.0000000   6.0000000   1.0000000   1.0000000   1.0000000   1.0000000   1.0000000

  Atom        11
 IAtWgt=           1
 AtmWgt=   1.0078250
 NucSpn=           1
 AtZEff=  -0.0000000
 NQMom=    0.0000000
 NMagM=    2.7928460
 AtZNuc=   1.0000000
 Leave Link  101 at Tue Feb 25 12:23:50 2020, MaxMem=  6710886400 cpu:               2.2 elap:               0.2
 (Enter /opt/ohpc/pub/libs/gaussian/g16-A.03/haswell/g16/l202.exe)
                          Input orientation:                          
 ---------------------------------------------------------------------
 Center     Atomic      Atomic             Coordinates (Angstroms)
 Number     Number       Type             X           Y           Z
 ---------------------------------------------------------------------
      1          6           0        0.000000    0.895213   -0.933453
      2          6           0        0.000000    1.131613    0.424372
      3          6           0        0.000000    0.000000    1.240919
      4          6           0        0.000000   -1.131613    0.424372
      5          6           0        0.000000   -0.895213   -0.933453
      6          1           0        0.000000    0.000000   -1.720797
      7          1           0        0.000000    1.620085   -1.742217
      8          1           0        0.000000    2.160007    0.773055
      9          1           0        0.000000    0.000000    2.322589
     10          1           0        0.000000   -2.160007    0.773055
     11          1           0        0.000000   -1.620085   -1.742217
 ---------------------------------------------------------------------
                    Distance matrix (angstroms):
                    1          2          3          4          5
     1  C    0.000000
     2  C    1.378250   0.000000
     3  C    2.351446   1.395456   0.000000
     4  C    2.439613   2.263226   1.395456   0.000000
     5  C    1.790426   2.439613   2.351446   1.378250   0.000000
     6  H    1.192190   2.425345   2.961716   2.425345   1.192190
     7  H    1.086066   2.220971   3.394669   3.502278   2.642125
     8  H    2.124117   1.085898   2.210097   3.310037   3.499506
     9  H    3.376865   2.209927   1.081670   2.209927   3.376865
    10  H    3.499506   3.310037   2.210097   1.085898   2.124117
    11  H    2.642125   3.502278   3.394669   2.220971   1.086066
                    6          7          8          9         10
     6  H    0.000000
     7  H    1.620227   0.000000
     8  H    3.299231   2.572569   0.000000
     9  H    4.043386   4.375765   2.658324   0.000000
    10  H    3.299231   4.540450   4.320014   2.658324   0.000000
    11  H    1.620227   3.240170   4.540450   4.375765   2.572569
                   11
    11  H    0.000000
 Stoichiometry    C5H6(1+,2)
 Framework group  C2V[C2(HCH),SGV(C4H4)]
 Deg. of freedom    10
 Full point group                 C2V     NOp   4
 Largest Abelian subgroup         C2V     NOp   4
 Largest concise Abelian subgroup C2      NOp   2
                         Standard orientation:                         
 ---------------------------------------------------------------------
 Center     Atomic      Atomic             Coordinates (Angstroms)
 Number     Number       Type             X           Y           Z
 ---------------------------------------------------------------------
      1          6           0        0.000000    0.895213   -0.933453
      2          6           0        0.000000    1.131613    0.424372
      3          6           0        0.000000   -0.000000    1.240919
      4          6           0       -0.000000   -1.131613    0.424372
      5          6           0       -0.000000   -0.895213   -0.933453
      6          1           0       -0.000000    0.000000   -1.720797
      7          1           0        0.000000    1.620085   -1.742217
      8          1           0        0.000000    2.160007    0.773055
      9          1           0        0.000000   -0.000000    2.322589
     10          1           0       -0.000000   -2.160007    0.773055
     11          1           0       -0.000000   -1.620085   -1.742217
 ---------------------------------------------------------------------
 Rotational constants (GHZ):           8.5037938           7.8157507           4.0726340
 Leave Link  202 at Tue Feb 25 12:23:50 2020, MaxMem=  6710886400 cpu:               0.2 elap:               0.0
 (Enter /opt/ohpc/pub/libs/gaussian/g16-A.03/haswell/g16/l301.exe)
 Standard basis: 6-31G (6D, 7F)
 Ernie: Thresh=  0.10000D-02 Tol=  0.10000D-05 Strict=F.
 There are    27 symmetry adapted cartesian basis functions of A1  symmetry.
 There are     4 symmetry adapted cartesian basis functions of A2  symmetry.
 There are     6 symmetry adapted cartesian basis functions of B1  symmetry.
 There are    20 symmetry adapted cartesian basis functions of B2  symmetry.
 There are    27 symmetry adapted basis functions of A1  symmetry.
 There are     4 symmetry adapted basis functions of A2  symmetry.
 There are     6 symmetry adapted basis functions of B1  symmetry.
 There are    20 symmetry adapted basis functions of B2  symmetry.
    57 basis functions,   134 primitive gaussians,    57 cartesian basis functions
    18 alpha electrons       17 beta electrons
       nuclear repulsion energy       155.4439185285 Hartrees.
 IExCor=33909 DFT=T Ex+Corr=LC-wHPBE ExCW=0 ScaHFX=  1.000000
 ScaDFX=  1.000000  1.000000  1.000000  1.000000 ScalE2=  1.000000  1.000000
 IRadAn=      5 IRanWt=     -1 IRanGd=            0 ICorTp=0 IEmpDi=  4
 HFx  wShort=  0.000000 wLong=  0.314700 cFull=  0.000000 cShort=  0.000000 cLong=  1.000000
 DFx  wShort=  0.000000 wLong=  0.314700 cFull=  0.000000 cShort=  1.000000 cLong=  0.000000
 NAtoms=   11 NActive=   11 NUniq=    7 SFac= 2.47D+00 NAtFMM=   60 NAOKFM=F Big=F
 Integral buffers will be    131072 words long.
 Raffenetti 2 integral format.
 Two-electron integral symmetry is turned on.
 Leave Link  301 at Tue Feb 25 12:23:50 2020, MaxMem=  6710886400 cpu:               0.8 elap:               0.1
 (Enter /opt/ohpc/pub/libs/gaussian/g16-A.03/haswell/g16/l302.exe)
 NPDir=0 NMtPBC=     1 NCelOv=     1 NCel=       1 NClECP=     1 NCelD=      1
         NCelK=      1 NCelE2=     1 NClLst=     1 CellRange=     0.0.
 One-electron integrals computed using PRISM.
 One-electron integral symmetry used in STVInt
 NBasis=    57 RedAO= T EigKep=  1.90D-03  NBF=    27     4     6    20
 NBsUse=    57 1.00D-06 EigRej= -1.00D+00 NBFU=    27     4     6    20
 Precomputing XC quadrature grid using
 IXCGrd= 4 IRadAn=           5 IRanWt=          -1 IRanGd=           0 AccXCQ= 0.00D+00.
 Generated NRdTot=       0 NPtTot=           0 NUsed=           0 NTot=          32
 NSgBfM=    57    57    57    57    57 MxSgAt=    11 MxSgA2=    11.
 Leave Link  302 at Tue Feb 25 12:23:51 2020, MaxMem=  6710886400 cpu:               2.9 elap:               0.2
 (Enter /opt/ohpc/pub/libs/gaussian/g16-A.03/haswell/g16/l303.exe)
 DipDrv:  MaxL=1.
 Leave Link  303 at Tue Feb 25 12:23:51 2020, MaxMem=  6710886400 cpu:               0.4 elap:               0.0
 (Enter /opt/ohpc/pub/libs/gaussian/g16-A.03/haswell/g16/l401.exe)
 ExpMin= 1.61D-01 ExpMax= 3.05D+03 ExpMxC= 4.57D+02 IAcc=3 IRadAn=         5 AccDes= 0.00D+00
 Harris functional with IExCor=33909 and IRadAn=       5 diagonalized for initial guess.
 HarFok:  IExCor=33909 AccDes= 0.00D+00 IRadAn=         5 IDoV= 1 UseB2=F ITyADJ=14
 ICtDFT=  3500011 ScaDFX=  1.000000  1.000000  1.000000  1.000000
 FoFCou: FMM=F IPFlag=           0 FMFlag=      100000 FMFlg1=           0
         NFxFlg=           0 DoJE=T BraDBF=F KetDBF=T FulRan=T
         wScrn=  0.000000 ICntrl=       500 IOpCl=  0 I1Cent=   200000004 NGrid=           0
         NMat0=    1 NMatS0=      1 NMatT0=    0 NMatD0=    1 NMtDS0=    0 NMtDT0=    0
 Petite list used in FoFCou.
 Harris En= -187.890277692267    
 JPrj=0 DoOrth=F DoCkMO=F.
 Initial guess orbital symmetries:
 Alpha Orbitals:
       Occupied  (A1) (B2) (A1) (B2) (A1) (A1) (B2) (A1) (A1) (B2)
                 (A1) (B2) (A1) (B2) (A1) (B1) (A2) (B1)
       Virtual   (A2) (B2) (B1) (A1) (A1) (B2) (A1) (B2) (A1) (B2)
                 (A1) (A1) (B2) (B2) (B1) (A1) (A2) (B1) (B2) (A1)
                 (A1) (A2) (B1) (B2) (B2) (A1) (B2) (A1) (A1) (B2)
                 (A1) (A1) (A1) (B2) (A1) (B2) (A1) (A1) (B2)
 Beta  Orbitals:
       Occupied  (A1) (B2) (A1) (B2) (A1) (A1) (B2) (A1) (A1) (B2)
                 (A1) (B2) (A1) (B2) (A1) (B1) (A2)
       Virtual   (B1) (A2) (B2) (B1) (A1) (A1) (B2) (A1) (B2) (A1)
                 (B2) (A1) (A1) (B2) (B2) (B1) (A1) (A2) (B1) (B2)
                 (A1) (A1) (A2) (B1) (B2) (B2) (A1) (B2) (A1) (A1)
                 (B2) (A1) (A1) (A1) (B2) (A1) (B2) (A1) (A1) (B2)
 The electronic state of the initial guess is 2-B1.
 Initial guess <Sx>= 0.0000 <Sy>= 0.0000 <Sz>= 0.5000 <S**2>= 0.7500 S= 0.5000
 Leave Link  401 at Tue Feb 25 12:23:51 2020, MaxMem=  6710886400 cpu:               5.3 elap:               0.4
 (Enter /opt/ohpc/pub/libs/gaussian/g16-A.03/haswell/g16/l502.exe)
 Keep R1 and R2 ints in memory in symmetry-blocked form, NReq=16815681.
 FoFCou: FMM=F IPFlag=           0 FMFlag=           0 FMFlg1=           0
         NFxFlg=           0 DoJE=F BraDBF=F KetDBF=F FulRan=T
         wScrn=  0.000000 ICntrl=       600 IOpCl=  0 I1Cent=           0 NGrid=           0
         NMat0=    1 NMatS0=   1653 NMatT0=    0 NMatD0=    1 NMtDS0=    0 NMtDT0=    0
 Petite list used in FoFCou.
 UHF open shell SCF:
 Using DIIS extrapolation, IDIIS=    10.
 NGot=  6710886400 LenX=  6710059561 LenY=  6710055871
 Requested convergence on RMS density matrix=1.00D-06 within  32 cycles.
 Requested convergence on MAX density matrix=1.00D-04.
 Requested convergence on             energy=1.00D-04.
 Virtual orbitals will be shifted by   0.500 hartree.
 No special actions if energy rises.
 Dynamic level shift is on during FON iterations.

 Cycle   1  Pass 1  IDiag  1:
 E= -193.407466119751    
 DIIS: error= 4.75D-02 at cycle   1 NSaved=   1.
 NSaved= 1 IEnMin= 1 EnMin= -193.407466119751     IErMin= 1 ErrMin= 4.75D-02
 ErrMax= 4.75D-02  0.00D+00 EMaxC= 1.00D+00 BMatC= 1.82D-01 BMatP= 1.82D-01
 IDIUse=1 WtCom= 1.00D+00 WtEn= 0.00D+00
 Coeff-Com:  0.100D+01
 Coeff:      0.100D+01
 Gap=     0.356 Goal=   None    Shift=    0.500
 T= 1772. Gap= 0.827 NK=0 IS=   19 IE=   57 IFin=   18
          NO(<0.9)=   0  NV(>0.1)=   0     18.00e < EF      0.00e >EF  Err=0.0D+00
 Gap=     0.245 Goal=   None    Shift=    0.500
 T= 1772. Gap= 0.748 NK=0 IS=   18 IE=   57 IFin=   17
          NO(<0.9)=   0  NV(>0.1)=   0     17.00e < EF      0.00e >EF  Err=0.0D+00
 GapD=    0.245 DampG=1.000 DampE=0.500 DampFc=0.5000 IDamp=-1.
 Damping current iteration by 5.00D-01
 RMSDP=6.62D-03 MaxDP=5.00D-02              OVMax= 9.88D-02

 Cycle   2  Pass 1  IDiag  1:
 E= -193.442210665522     Delta-E=       -0.034744545771 Rises=F Damp=T
 DIIS: error= 2.28D-02 at cycle   2 NSaved=   2.
 NSaved= 2 IEnMin= 2 EnMin= -193.442210665522     IErMin= 2 ErrMin= 2.28D-02
 ErrMax= 2.28D-02  0.00D+00 EMaxC= 1.00D+00 BMatC= 3.17D-02 BMatP= 1.82D-01
 IDIUse=1 WtCom= 1.00D+00 WtEn= 0.00D+00
 Coeff-Com: -0.547D+00 0.155D+01
 Coeff:     -0.547D+00 0.155D+01
 Gap=     0.427 Goal=   None    Shift=    0.500
 T= 1658. Gap= 0.912 NK=4 IS=   19 IE=   23 IFin=   18
          NO(<0.9)=   0  NV(>0.1)=   0     18.00e < EF      0.00e >EF  Err=0.0D+00
 Gap=     0.273 Goal=   None    Shift=    0.500
 T= 1658. Gap= 0.771 NK=4 IS=   18 IE=   23 IFin=   17
          NO(<0.9)=   0  NV(>0.1)=   0     17.00e < EF      0.00e >EF  Err=0.0D+00
 GapD=    0.273 DampG=1.000 DampE=0.500 DampFc=0.5000 IDamp=-1.
 Damping current iteration by 5.00D-01
 RMSDP=4.01D-03 MaxDP=3.12D-02 DE=-3.47D-02 OVMax= 1.55D-02

 Cycle   3  Pass 1  IDiag  1:
 E= -193.454571973912     Delta-E=       -0.012361308389 Rises=F Damp=T
 DIIS: error= 1.29D-02 at cycle   3 NSaved=   3.
 NSaved= 3 IEnMin= 3 EnMin= -193.454571973912     IErMin= 3 ErrMin= 1.29D-02
 ErrMax= 1.29D-02  0.00D+00 EMaxC= 1.00D+00 BMatC= 7.39D-03 BMatP= 3.17D-02
 IDIUse=1 WtCom= 1.00D+00 WtEn= 0.00D+00
 Coeff-Com:  0.337D+00-0.186D+01 0.253D+01
 Coeff:      0.337D+00-0.186D+01 0.253D+01
 Gap=     0.418 Goal=   None    Shift=    0.500
 T= 1449. Gap= 0.918 NK=0 IS=   19 IE=   57 IFin=   18
          NO(<0.9)=   0  NV(>0.1)=   0     18.00e < EF      0.00e >EF  Err=0.0D+00
 Gap=     0.276 Goal=   None    Shift=    0.500
 T= 1449. Gap= 0.776 NK=0 IS=   18 IE=   57 IFin=   17
          NO(<0.9)=   0  NV(>0.1)=   0     17.00e < EF      0.00e >EF  Err=0.0D+00
 GapD=    0.276 DampG=1.000 DampE=0.500 DampFc=0.5000 IDamp=-1.
 Damping current iteration by 5.00D-01
 RMSDP=2.20D-03 MaxDP=1.65D-02 DE=-1.24D-02 OVMax= 1.45D-02

 Cycle   4  Pass 1  IDiag  1:
 E= -193.460412590792     Delta-E=       -0.005840616880 Rises=F Damp=T
 DIIS: error= 8.21D-03 at cycle   4 NSaved=   4.
 NSaved= 4 IEnMin= 4 EnMin= -193.460412590792     IErMin= 4 ErrMin= 8.21D-03
 ErrMax= 8.21D-03  0.00D+00 EMaxC= 1.00D+00 BMatC= 2.49D-03 BMatP= 7.39D-03
 IDIUse=1 WtCom= 1.00D+00 WtEn= 0.00D+00
 Coeff-Com:  0.934D-03 0.817D+00-0.366D+01 0.384D+01
 Coeff:      0.934D-03 0.817D+00-0.366D+01 0.384D+01
 Gap=     0.423 Goal=   None    Shift=    0.500
 T= 1066. Gap= 0.923 NK=0 IS=   19 IE=   57 IFin=   18
          NO(<0.9)=   0  NV(>0.1)=   0     18.00e < EF      0.00e >EF  Err=0.0D+00
 Gap=     0.280 Goal=   None    Shift=    0.500
 T= 1066. Gap= 0.780 NK=0 IS=   18 IE=   57 IFin=   17
          NO(<0.9)=   0  NV(>0.1)=   0     17.00e < EF      0.00e >EF  Err=0.0D+00
 GapD=    0.280 DampG=1.000 DampE=1.000 DampFc=1.0000 IDamp=-1.
 RMSDP=1.36D-03 MaxDP=1.35D-02 DE=-5.84D-03 OVMax= 1.39D-02

 Cycle   5  Pass 1  IDiag  1:
 E= -193.467133236483     Delta-E=       -0.006720645691 Rises=F Damp=F
 DIIS: error= 3.56D-03 at cycle   5 NSaved=   5.
 NSaved= 5 IEnMin= 5 EnMin= -193.467133236483     IErMin= 5 ErrMin= 3.56D-03
 ErrMax= 3.56D-03  0.00D+00 EMaxC= 1.00D+00 BMatC= 3.60D-04 BMatP= 2.49D-03
 IDIUse=1 WtCom= 1.00D+00 WtEn= 0.00D+00
 Coeff-Com: -0.171D+00 0.871D+00-0.719D+00-0.854D+00 0.187D+01
 Coeff:     -0.171D+00 0.871D+00-0.719D+00-0.854D+00 0.187D+01
 Gap=     0.424 Goal=   None    Shift=    0.500
 T=  721. Gap= 0.924 NK=0 IS=   19 IE=   57 IFin=   18
          NO(<0.9)=   0  NV(>0.1)=   0     18.00e < EF      0.00e >EF  Err=0.0D+00
 Gap=     0.284 Goal=   None    Shift=    0.500
 T=  721. Gap= 0.784 NK=0 IS=   18 IE=   57 IFin=   17
          NO(<0.9)=   0  NV(>0.1)=   0     17.00e < EF      0.00e >EF  Err=0.0D+00
 GapD=    0.284 DampG=1.000 DampE=1.000 DampFc=1.0000 IDamp=-1.
 RMSDP=3.88D-04 MaxDP=5.99D-03 DE=-6.72D-03 OVMax= 1.30D-02

 Cycle   6  Pass 1  IDiag  1:
 E= -193.467633359720     Delta-E=       -0.000500123237 Rises=F Damp=F
 DIIS: error= 2.73D-03 at cycle   6 NSaved=   6.
 NSaved= 6 IEnMin= 6 EnMin= -193.467633359720     IErMin= 6 ErrMin= 2.73D-03
 ErrMax= 2.73D-03  0.00D+00 EMaxC= 1.00D+00 BMatC= 1.60D-04 BMatP= 3.60D-04
 IDIUse=1 WtCom= 1.00D+00 WtEn= 0.00D+00
 Coeff-Com:  0.663D-02-0.306D+00 0.918D+00-0.663D+00-0.163D+01 0.267D+01
 Coeff:      0.663D-02-0.306D+00 0.918D+00-0.663D+00-0.163D+01 0.267D+01
 Gap=     0.425 Goal=   None    Shift=    0.500
 T=  400. Gap= 0.925 NK=0 IS=   19 IE=   57 IFin=   18
          NO(<0.9)=   0  NV(>0.1)=   0     18.00e < EF      0.00e >EF  Err=0.0D+00
 Gap=     0.285 Goal=   None    Shift=    0.500
 T=  400. Gap= 0.785 NK=0 IS=   18 IE=   57 IFin=   17
          NO(<0.9)=   0  NV(>0.1)=   0     17.00e < EF      0.00e >EF  Err=0.0D+00
 GapD=    0.285 DampG=1.000 DampE=1.000 DampFc=1.0000 IDamp=-1.
 RMSDP=3.02D-04 MaxDP=4.87D-03 DE=-5.00D-04 OVMax= 1.15D-02

 Cycle   7  Pass 1  IDiag  1:
 E= -193.467911063800     Delta-E=       -0.000277704080 Rises=F Damp=F
 DIIS: error= 1.92D-03 at cycle   7 NSaved=   7.
 NSaved= 7 IEnMin= 7 EnMin= -193.467911063800     IErMin= 7 ErrMin= 1.92D-03
 ErrMax= 1.92D-03  0.00D+00 EMaxC= 1.00D+00 BMatC= 6.79D-05 BMatP= 1.60D-04
 IDIUse=1 WtCom= 1.00D+00 WtEn= 0.00D+00
 Coeff-Com:  0.157D-01-0.684D-01-0.113D+00 0.383D+00-0.387D+00-0.105D+01
 Coeff-Com:  0.222D+01
 Coeff:      0.157D-01-0.684D-01-0.113D+00 0.383D+00-0.387D+00-0.105D+01
 Coeff:      0.222D+01
 Gap=     0.424 Goal=   None    Shift=    0.500
 T=   59. Gap= 0.925 NK=0 IS=   19 IE=   57 IFin=   18
          NO(<0.9)=   0  NV(>0.1)=   0     18.00e < EF      0.00e >EF  Err=0.0D+00
 Gap=     0.286 Goal=   None    Shift=    0.500
 T=   59. Gap= 0.786 NK=0 IS=   18 IE=   57 IFin=   17
          NO(<0.9)=   0  NV(>0.1)=   0     17.00e < EF      0.00e >EF  Err=0.0D+00
 GapD=    0.286 DampG=1.000 DampE=1.000 DampFc=1.0000 IDamp=-1.
 RMSDP=1.98D-04 MaxDP=2.81D-03 DE=-2.78D-04 OVMax= 8.24D-03

 Cycle   8  Pass 1  IDiag  1:
 E= -193.468028724410     Delta-E=       -0.000117660610 Rises=F Damp=F
 DIIS: error= 1.33D-03 at cycle   8 NSaved=   8.
 NSaved= 8 IEnMin= 8 EnMin= -193.468028724410     IErMin= 8 ErrMin= 1.33D-03
 ErrMax= 1.33D-03  0.00D+00 EMaxC= 1.00D+00 BMatC= 3.07D-05 BMatP= 6.79D-05
 IDIUse=1 WtCom= 1.00D+00 WtEn= 0.00D+00
 Coeff-Com: -0.108D-01 0.240D+00-0.734D+00 0.584D+00 0.101D+01-0.228D+01
 Coeff-Com: -0.251D-01 0.222D+01
 Coeff:     -0.108D-01 0.240D+00-0.734D+00 0.584D+00 0.101D+01-0.228D+01
 Coeff:     -0.251D-01 0.222D+01
 Gap=     0.425 Goal=   None    Shift=    0.500
 Gap=     0.287 Goal=   None    Shift=    0.500
 GapD=    0.287 DampG=1.000 DampE=1.000 DampFc=1.0000 IDamp=-1.
 RMSDP=1.50D-04 MaxDP=2.09D-03 DE=-1.18D-04 OVMax= 6.60D-03

 Cycle   9  Pass 1  IDiag  1:
 E= -193.468084692986     Delta-E=       -0.000055968576 Rises=F Damp=F
 DIIS: error= 8.65D-04 at cycle   9 NSaved=   9.
 NSaved= 9 IEnMin= 9 EnMin= -193.468084692986     IErMin= 9 ErrMin= 8.65D-04
 ErrMax= 8.65D-04  0.00D+00 EMaxC= 1.00D+00 BMatC= 1.22D-05 BMatP= 3.07D-05
 IDIUse=1 WtCom= 1.00D+00 WtEn= 0.00D+00
 Coeff-Com:  0.854D-03-0.136D+00 0.559D+00-0.579D+00-0.429D+00 0.184D+01
 Coeff-Com: -0.986D+00-0.311D+01 0.384D+01
 Coeff:      0.854D-03-0.136D+00 0.559D+00-0.579D+00-0.429D+00 0.184D+01
 Coeff:     -0.986D+00-0.311D+01 0.384D+01
 Gap=     0.425 Goal=   None    Shift=    0.500
 Gap=     0.287 Goal=   None    Shift=    0.500
 RMSDP=1.07D-04 MaxDP=1.44D-03 DE=-5.60D-05 OVMax= 5.10D-03

 Cycle  10  Pass 1  IDiag  1:
 E= -193.468108919168     Delta-E=       -0.000024226182 Rises=F Damp=F
 DIIS: error= 5.17D-04 at cycle  10 NSaved=  10.
 NSaved=10 IEnMin=10 EnMin= -193.468108919168     IErMin=10 ErrMin= 5.17D-04
 ErrMax= 5.17D-04  0.00D+00 EMaxC= 1.00D+00 BMatC= 4.15D-06 BMatP= 1.22D-05
 IDIUse=1 WtCom= 1.00D+00 WtEn= 0.00D+00
 Coeff-Com:  0.593D-03 0.354D-01-0.168D+00 0.191D+00 0.901D-01-0.537D+00
 Coeff-Com:  0.439D+00 0.832D+00-0.283D+01 0.295D+01
 Coeff:      0.593D-03 0.354D-01-0.168D+00 0.191D+00 0.901D-01-0.537D+00
 Coeff:      0.439D+00 0.832D+00-0.283D+01 0.295D+01
 Gap=     0.425 Goal=   None    Shift=    0.500
 Gap=     0.287 Goal=   None    Shift=    0.500
 RMSDP=6.10D-05 MaxDP=8.76D-04 DE=-2.42D-05 OVMax= 3.07D-03

 Cycle  11  Pass 1  IDiag  1:
 E= -193.468116968044     Delta-E=       -0.000008048876 Rises=F Damp=F
 DIIS: error= 3.05D-04 at cycle  11 NSaved=  11.
 NSaved=11 IEnMin=11 EnMin= -193.468116968044     IErMin=11 ErrMin= 3.05D-04
 ErrMax= 3.05D-04  0.00D+00 EMaxC= 1.00D+00 BMatC= 1.47D-06 BMatP= 4.15D-06
 IDIUse=1 WtCom= 1.00D+00 WtEn= 0.00D+00
 Coeff-Com: -0.505D-03-0.270D-01 0.141D+00-0.171D+00-0.400D-01 0.454D+00
 Coeff-Com: -0.403D+00-0.903D+00 0.296D+01-0.527D+01 0.426D+01
 Coeff:     -0.505D-03-0.270D-01 0.141D+00-0.171D+00-0.400D-01 0.454D+00
 Coeff:     -0.403D+00-0.903D+00 0.296D+01-0.527D+01 0.426D+01
 Gap=     0.425 Goal=   None    Shift=    0.500
 Gap=     0.287 Goal=   None    Shift=    0.500
 RMSDP=3.75D-05 MaxDP=5.24D-04 DE=-8.05D-06 OVMax= 1.93D-03

 Cycle  12  Pass 1  IDiag  1:
 E= -193.468119833875     Delta-E=       -0.000002865831 Rises=F Damp=F
 DIIS: error= 1.74D-04 at cycle  12 NSaved=  12.
 NSaved=12 IEnMin=12 EnMin= -193.468119833875     IErMin=12 ErrMin= 1.74D-04
 ErrMax= 1.74D-04  0.00D+00 EMaxC= 1.00D+00 BMatC= 4.79D-07 BMatP= 1.47D-06
 IDIUse=1 WtCom= 1.00D+00 WtEn= 0.00D+00
 Coeff-Com:  0.284D-03-0.111D-01 0.372D-01-0.320D-01-0.460D-01 0.125D+00
 Coeff-Com: -0.747D-02-0.192D+00-0.226D+00 0.153D+01-0.328D+01 0.310D+01
 Coeff:      0.284D-03-0.111D-01 0.372D-01-0.320D-01-0.460D-01 0.125D+00
 Coeff:     -0.747D-02-0.192D+00-0.226D+00 0.153D+01-0.328D+01 0.310D+01
 Gap=     0.425 Goal=   None    Shift=    0.500
 Gap=     0.287 Goal=   None    Shift=    0.500
 RMSDP=2.16D-05 MaxDP=2.94D-04 DE=-2.87D-06 OVMax= 1.12D-03

 Cycle  13  Pass 1  IDiag  1:
 E= -193.468120767442     Delta-E=       -0.000000933566 Rises=F Damp=F
 DIIS: error= 9.88D-05 at cycle  13 NSaved=  13.
 NSaved=13 IEnMin=13 EnMin= -193.468120767442     IErMin=13 ErrMin= 9.88D-05
 ErrMax= 9.88D-05  0.00D+00 EMaxC= 1.00D+00 BMatC= 1.52D-07 BMatP= 4.79D-07
 IDIUse=1 WtCom= 1.00D+00 WtEn= 0.00D+00
 Coeff-Com: -0.743D-04 0.609D-02-0.203D-01 0.167D-01 0.313D-01-0.679D-01
 Coeff-Com:  0.286D-02 0.841D-01 0.127D+00-0.910D+00 0.220D+01-0.410D+01
 Coeff-Com:  0.363D+01
 Coeff:     -0.743D-04 0.609D-02-0.203D-01 0.167D-01 0.313D-01-0.679D-01
 Coeff:      0.286D-02 0.841D-01 0.127D+00-0.910D+00 0.220D+01-0.410D+01
 Coeff:      0.363D+01
 Gap=     0.425 Goal=   None    Shift=    0.500
 Gap=     0.287 Goal=   None    Shift=    0.500
 RMSDP=1.25D-05 MaxDP=1.74D-04 DE=-9.34D-07 OVMax= 6.58D-04

 Cycle  14  Pass 1  IDiag  1:
 E= -193.468121071236     Delta-E=       -0.000000303795 Rises=F Damp=F
 DIIS: error= 5.39D-05 at cycle  14 NSaved=  14.
 NSaved=14 IEnMin=14 EnMin= -193.468121071236     IErMin=14 ErrMin= 5.39D-05
 ErrMax= 5.39D-05  0.00D+00 EMaxC= 1.00D+00 BMatC= 4.76D-08 BMatP= 1.52D-07
 IDIUse=1 WtCom= 1.00D+00 WtEn= 0.00D+00
 Coeff-Com:  0.205D-03-0.485D-02 0.196D-01-0.211D-01-0.128D-01 0.569D-01
 Coeff-Com: -0.178D-01-0.108D+00 0.184D+00-0.134D+00-0.362D+00 0.155D+01
 Coeff-Com: -0.333D+01 0.318D+01
 Coeff:      0.205D-03-0.485D-02 0.196D-01-0.211D-01-0.128D-01 0.569D-01
 Coeff:     -0.178D-01-0.108D+00 0.184D+00-0.134D+00-0.362D+00 0.155D+01
 Coeff:     -0.333D+01 0.318D+01
 Gap=     0.425 Goal=   None    Shift=    0.500
 Gap=     0.287 Goal=   None    Shift=    0.500
 RMSDP=7.07D-06 MaxDP=9.98D-05 DE=-3.04D-07 OVMax= 3.78D-04

 Cycle  15  Pass 1  IDiag  1:
 E= -193.468121166698     Delta-E=       -0.000000095462 Rises=F Damp=F
 DIIS: error= 2.95D-05 at cycle  15 NSaved=  15.
 NSaved=15 IEnMin=15 EnMin= -193.468121166698     IErMin=15 ErrMin= 2.95D-05
 ErrMax= 2.95D-05  0.00D+00 EMaxC= 1.00D+00 BMatC= 1.45D-08 BMatP= 4.76D-08
 IDIUse=1 WtCom= 1.00D+00 WtEn= 0.00D+00
 Coeff-Com: -0.117D-03 0.220D-02-0.928D-02 0.105D-01 0.410D-02-0.239D-01
 Coeff-Com:  0.115D-01 0.486D-01-0.103D+00 0.127D+00 0.237D-02-0.581D+00
 Coeff-Com:  0.173D+01-0.353D+01 0.332D+01
 Coeff:     -0.117D-03 0.220D-02-0.928D-02 0.105D-01 0.410D-02-0.239D-01
 Coeff:      0.115D-01 0.486D-01-0.103D+00 0.127D+00 0.237D-02-0.581D+00
 Coeff:      0.173D+01-0.353D+01 0.332D+01
 Gap=     0.425 Goal=   None    Shift=    0.500
 Gap=     0.287 Goal=   None    Shift=    0.500
 RMSDP=3.92D-06 MaxDP=5.50D-05 DE=-9.55D-08 OVMax= 2.11D-04

 Cycle  16  Pass 1  IDiag  1:
 E= -193.468121195572     Delta-E=       -0.000000028874 Rises=F Damp=F
 DIIS: error= 1.57D-05 at cycle  16 NSaved=  16.
 NSaved=16 IEnMin=16 EnMin= -193.468121195572     IErMin=16 ErrMin= 1.57D-05
 ErrMax= 1.57D-05  0.00D+00 EMaxC= 1.00D+00 BMatC= 4.48D-09 BMatP= 1.45D-08
 IDIUse=1 WtCom= 1.00D+00 WtEn= 0.00D+00
 Coeff-Com:  0.272D-04-0.961D-04 0.132D-02-0.239D-02 0.267D-02-0.175D-02
 Coeff-Com:  0.212D-02-0.847D-02 0.396D-01-0.109D+00 0.162D+00-0.130D+00
 Coeff-Com: -0.238D+00 0.141D+01-0.355D+01 0.343D+01
 Coeff:      0.272D-04-0.961D-04 0.132D-02-0.239D-02 0.267D-02-0.175D-02
 Coeff:      0.212D-02-0.847D-02 0.396D-01-0.109D+00 0.162D+00-0.130D+00
 Coeff:     -0.238D+00 0.141D+01-0.355D+01 0.343D+01
 Gap=     0.425 Goal=   None    Shift=    0.500
 Gap=     0.287 Goal=   None    Shift=    0.500
 RMSDP=2.15D-06 MaxDP=2.95D-05 DE=-2.89D-08 OVMax= 1.16D-04

 Cycle  17  Pass 1  IDiag  1:
 E= -193.468121204157     Delta-E=       -0.000000008585 Rises=F Damp=F
 DIIS: error= 8.22D-06 at cycle  17 NSaved=  17.
 NSaved=17 IEnMin=17 EnMin= -193.468121204157     IErMin=17 ErrMin= 8.22D-06
 ErrMax= 8.22D-06  0.00D+00 EMaxC= 1.00D+00 BMatC= 1.37D-09 BMatP= 4.48D-09
 IDIUse=1 WtCom= 1.00D+00 WtEn= 0.00D+00
 Coeff-Com: -0.987D-05 0.292D-03-0.178D-02 0.247D-02-0.688D-03-0.289D-02
 Coeff-Com:  0.289D-02 0.816D-02-0.294D-01 0.612D-01-0.758D-01 0.128D-01
 Coeff-Com:  0.255D+00-0.112D+01 0.298D+01-0.513D+01 0.404D+01
 Coeff:     -0.987D-05 0.292D-03-0.178D-02 0.247D-02-0.688D-03-0.289D-02
 Coeff:      0.289D-02 0.816D-02-0.294D-01 0.612D-01-0.758D-01 0.128D-01
 Coeff:      0.255D+00-0.112D+01 0.298D+01-0.513D+01 0.404D+01
 Gap=     0.425 Goal=   None    Shift=    0.500
 Gap=     0.287 Goal=   None    Shift=    0.500
 RMSDP=1.15D-06 MaxDP=1.56D-05 DE=-8.59D-09 OVMax= 6.25D-05

 Cycle  18  Pass 1  IDiag  1:
 E= -193.468121206646     Delta-E=       -0.000000002488 Rises=F Damp=F
 DIIS: error= 4.25D-06 at cycle  18 NSaved=  18.
 NSaved=18 IEnMin=18 EnMin= -193.468121206646     IErMin=18 ErrMin= 4.25D-06
 ErrMax= 4.25D-06  0.00D+00 EMaxC= 1.00D+00 BMatC= 4.21D-10 BMatP= 1.37D-09
 IDIUse=1 WtCom= 1.00D+00 WtEn= 0.00D+00
 Coeff-Com: -0.171D-05 0.243D-04 0.345D-03-0.763D-03 0.127D-02-0.152D-02
 Coeff-Com:  0.912D-03-0.240D-02 0.154D-01-0.455D-01 0.821D-01-0.111D+00
 Coeff-Com:  0.526D-01 0.369D+00-0.155D+01 0.332D+01-0.503D+01 0.390D+01
 Coeff:     -0.171D-05 0.243D-04 0.345D-03-0.763D-03 0.127D-02-0.152D-02
 Coeff:      0.912D-03-0.240D-02 0.154D-01-0.455D-01 0.821D-01-0.111D+00
 Coeff:      0.526D-01 0.369D+00-0.155D+01 0.332D+01-0.503D+01 0.390D+01
 Gap=     0.425 Goal=   None    Shift=    0.500
 Gap=     0.287 Goal=   None    Shift=    0.500
 RMSDP=5.96D-07 MaxDP=7.91D-06 DE=-2.49D-09 OVMax= 3.26D-05

 SCF Done:  E(ULC-wHPBE) =  -193.468121207     A.U. after   18 cycles
            NFock= 18  Conv=0.60D-06     -V/T= 2.0049
 <Sx>= 0.0000 <Sy>= 0.0000 <Sz>= 0.5000 <S**2>= 0.7965 S= 0.5230
 <L.S>= 0.000000000000E+00
 KE= 1.925281199719D+02 PE=-7.506536515610D+02 EE= 2.092134918539D+02
 Annihilation of the first spin contaminant:
 S**2 before annihilation     0.7965,   after     0.7513
 Leave Link  502 at Tue Feb 25 12:23:53 2020, MaxMem=  6710886400 cpu:              25.3 elap:               1.6
 (Enter /opt/ohpc/pub/libs/gaussian/g16-A.03/haswell/g16/l508.exe)
 QCSCF skips out because SCF is already converged.
 Leave Link  508 at Tue Feb 25 12:23:53 2020, MaxMem=  6710886400 cpu:               0.1 elap:               0.0
 (Enter /opt/ohpc/pub/libs/gaussian/g16-A.03/haswell/g16/l601.exe)
 Copying SCF densities to generalized density rwf, IOpCl= 1 IROHF=0.

 **********************************************************************

            Population analysis using the SCF density.

 **********************************************************************

 Orbital symmetries:
 Alpha Orbitals:
       Occupied  (B2) (A1) (A1) (B2) (A1) (A1) (A1) (B2) (A1) (B2)
                 (A1) (B2) (A1) (A1) (B1) (B2) (A2) (B1)
       Virtual   (B2) (A2) (B1) (A1) (A1) (B2) (A1) (B2) (A1) (B2)
                 (A1) (A1) (B2) (B1) (B2) (B1) (A2) (A1) (A1) (B2)
                 (A1) (A2) (B1) (B2) (B2) (A1) (A1) (B2) (A1) (A1)
                 (B2) (A1) (A1) (B2) (A1) (B2) (A1) (A1) (B2)
 Beta  Orbitals:
       Occupied  (B2) (A1) (A1) (B2) (A1) (A1) (A1) (B2) (A1) (B2)
                 (A1) (B2) (A1) (A1) (B2) (B1) (A2)
       Virtual   (B1) (B2) (A2) (A1) (B1) (A1) (B2) (A1) (B2) (A1)
                 (B2) (A1) (A1) (B2) (B2) (B1) (A2) (A1) (B1) (A1)
                 (B2) (A1) (A2) (B1) (B2) (B2) (A1) (A1) (B2) (A1)
                 (B2) (A1) (A1) (A1) (B2) (A1) (B2) (A1) (A1) (B2)
 The electronic state is 2-B1.
 Alpha  occ. eigenvalues --  -10.37071 -10.37066 -10.32068 -10.31163 -10.31162
 Alpha  occ. eigenvalues --   -1.24128  -1.11333  -1.06891  -0.93074  -0.90929
 Alpha  occ. eigenvalues --   -0.86322  -0.76649  -0.74091  -0.72978  -0.72418
 Alpha  occ. eigenvalues --   -0.70782  -0.57825  -0.56266
 Alpha virt. eigenvalues --   -0.13797  -0.13253  -0.06318  -0.05451  -0.00253
 Alpha virt. eigenvalues --    0.04446   0.06437   0.08758   0.08895   0.20051
 Alpha virt. eigenvalues --    0.20085   0.30025   0.31306   0.39160   0.39817
 Alpha virt. eigenvalues --    0.46872   0.47462   0.48005   0.50534   0.51278
 Alpha virt. eigenvalues --    0.51455   0.54621   0.56128   0.64063   0.70567
 Alpha virt. eigenvalues --    0.72892   0.74185   0.76577   0.76768   0.83086
 Alpha virt. eigenvalues --    0.83102   0.87510   0.91551   0.97872   1.06046
 Alpha virt. eigenvalues --    1.07093   1.12322   1.34272   1.35732
  Beta  occ. eigenvalues --  -10.36520 -10.36513 -10.31426 -10.31425 -10.31173
  Beta  occ. eigenvalues --   -1.22983  -1.09524  -1.06610  -0.92081  -0.90225
  Beta  occ. eigenvalues --   -0.86043  -0.76345  -0.73811  -0.72431  -0.70621
  Beta  occ. eigenvalues --   -0.68165  -0.56542
  Beta virt. eigenvalues --   -0.27863  -0.12453  -0.10386  -0.05219  -0.03009
  Beta virt. eigenvalues --    0.00134   0.04707   0.06669   0.08730   0.09459
  Beta virt. eigenvalues --    0.20392   0.20572   0.30427   0.31680   0.40190
  Beta virt. eigenvalues --    0.41281   0.48447   0.48534   0.49498   0.50938
  Beta virt. eigenvalues --    0.51724   0.52548   0.55203   0.57618   0.64591
  Beta virt. eigenvalues --    0.71026   0.73728   0.74750   0.76481   0.77262
  Beta virt. eigenvalues --    0.83429   0.83535   0.88532   0.92185   0.97928
  Beta virt. eigenvalues --    1.06562   1.07593   1.13367   1.35155   1.36561
          Condensed to atoms (all electrons):
               1          2          3          4          5          6
     1  C    5.346738   0.500066  -0.041340  -0.128152   0.182207   0.165907
     2  C    0.500066   4.949823   0.465397  -0.024460  -0.128152  -0.024022
     3  C   -0.041340   0.465397   4.852409   0.465397  -0.041340   0.007593
     4  C   -0.128152  -0.024460   0.465397   4.949823   0.500066  -0.024022
     5  C    0.182207  -0.128152  -0.041340   0.500066   5.346738   0.165907
     6  H    0.165907  -0.024022   0.007593  -0.024022   0.165907   0.360930
     7  H    0.337557   0.004048  -0.000158   0.003258  -0.016006  -0.008831
     8  H   -0.024151   0.361933  -0.012131   0.004053   0.000967   0.000461
     9  H    0.005371  -0.028251   0.366972  -0.028251   0.005371  -0.000044
    10  H    0.000967   0.004053  -0.012131   0.361933  -0.024151   0.000461
    11  H   -0.016006   0.003258  -0.000158   0.004048   0.337557  -0.008831
               7          8          9         10         11
     1  C    0.337557  -0.024151   0.005371   0.000967  -0.016006
     2  C    0.004048   0.361933  -0.028251   0.004053   0.003258
     3  C   -0.000158  -0.012131   0.366972  -0.012131  -0.000158
     4  C    0.003258   0.004053  -0.028251   0.361933   0.004048
     5  C   -0.016006   0.000967   0.005371  -0.024151   0.337557
     6  H   -0.008831   0.000461  -0.000044   0.000461  -0.008831
     7  H    0.345313  -0.000042  -0.000054  -0.000018   0.000369
     8  H   -0.000042   0.386081  -0.001523  -0.000091  -0.000018
     9  H   -0.000054  -0.001523   0.408313  -0.001523  -0.000054
    10  H   -0.000018  -0.000091  -0.001523   0.386081  -0.000042
    11  H    0.000369  -0.000018  -0.000054  -0.000042   0.345313
          Atomic-Atomic Spin Densities.
               1          2          3          4          5          6
     1  C    0.480753  -0.040001  -0.023684  -0.008950   0.029081  -0.003562
     2  C   -0.040001  -0.222800   0.028499  -0.000336  -0.008950   0.000274
     3  C   -0.023684   0.028499   0.691485   0.028499  -0.023684   0.000210
     4  C   -0.008950  -0.000336   0.028499  -0.222800  -0.040001   0.000274
     5  C    0.029081  -0.008950  -0.023684  -0.040001   0.480753  -0.003562
     6  H   -0.003562   0.000274   0.000210   0.000274  -0.003562  -0.014225
     7  H   -0.002538  -0.000463   0.000093  -0.000088   0.000250  -0.000253
     8  H   -0.000282   0.001770  -0.001021  -0.000118   0.000055   0.000020
     9  H   -0.000036  -0.000066  -0.000871  -0.000066  -0.000036  -0.000002
    10  H    0.000055  -0.000118  -0.001021   0.001770  -0.000282   0.000020
    11  H    0.000250  -0.000088   0.000093  -0.000463  -0.002538  -0.000253
               7          8          9         10         11
     1  C   -0.002538  -0.000282  -0.000036   0.000055   0.000250
     2  C   -0.000463   0.001770  -0.000066  -0.000118  -0.000088
     3  C    0.000093  -0.001021  -0.000871  -0.001021   0.000093
     4  C   -0.000088  -0.000118  -0.000066   0.001770  -0.000463
     5  C    0.000250   0.000055  -0.000036  -0.000282  -0.002538
     6  H   -0.000253   0.000020  -0.000002   0.000020  -0.000253
     7  H   -0.016962   0.000057   0.000004  -0.000000  -0.000064
     8  H    0.000057   0.005756   0.000020   0.000000  -0.000000
     9  H    0.000004   0.000020  -0.026715   0.000020   0.000004
    10  H   -0.000000   0.000000   0.000020   0.005756   0.000057
    11  H   -0.000064  -0.000000   0.000004   0.000057  -0.016962
 Mulliken charges and spin densities:
               1          2
     1  C   -0.329164   0.431086
     2  C   -0.083692  -0.242278
     3  C   -0.050509   0.698600
     4  C   -0.083692  -0.242278
     5  C   -0.329164   0.431086
     6  H    0.364493  -0.021059
     7  H    0.334565  -0.019963
     8  H    0.284463   0.006257
     9  H    0.273673  -0.027746
    10  H    0.284463   0.006257
    11  H    0.334565  -0.019963
 Sum of Mulliken charges =   1.00000   1.00000
 Mulliken charges and spin densities with hydrogens summed into heavy atoms:
               1          2
     1  C    0.369893   0.390064
     2  C    0.200771  -0.236021
     3  C    0.223164   0.670854
     4  C    0.200771  -0.236021
     5  C    0.005401   0.411123
 Electronic spatial extent (au):  <R**2>=            321.3810
 Charge=              1.0000 electrons
 Dipole moment (field-independent basis, Debye):
    X=             -0.0000    Y=              0.0000    Z=             -1.9993  Tot=              1.9993
 Quadrupole moment (field-independent basis, Debye-Ang):
   XX=            -31.4680   YY=            -17.4505   ZZ=            -13.3021
   XY=              0.0000   XZ=              0.0000   YZ=              0.0000
 Traceless Quadrupole moment (field-independent basis, Debye-Ang):
   XX=            -10.7278   YY=              3.2897   ZZ=              7.4381
   XY=              0.0000   XZ=              0.0000   YZ=              0.0000
 Octapole moment (field-independent basis, Debye-Ang**2):
  XXX=              0.0000  YYY=             -0.0000  ZZZ=             -7.4027  XYY=             -0.0000
  XXY=              0.0000  XXZ=              0.7053  XZZ=              0.0000  YZZ=             -0.0000
  YYZ=             -2.8613  XYZ=             -0.0000
 Hexadecapole moment (field-independent basis, Debye-Ang**3):
 XXXX=            -31.5528 YYYY=           -147.4173 ZZZZ=           -126.9870 XXXY=             -0.0000
 XXXZ=             -0.0000 YYYX=             -0.0000 YYYZ=              0.0000 ZZZX=              0.0000
 ZZZY=             -0.0000 XXYY=            -42.9864 XXZZ=            -39.1638 YYZZ=            -42.9011
 XXYZ=              0.0000 YYXZ=             -0.0000 ZZXY=             -0.0000
 N-N= 1.554439185285D+02 E-N=-7.506536544914D+02  KE= 1.925281199719D+02
 Symmetry A1   KE= 1.112968933186D+02
 Symmetry A2   KE= 2.506150659997D+00
 Symmetry B1   KE= 3.221124994487D+00
 Symmetry B2   KE= 7.550395099885D+01
 Symmetry A1   SP= 2.257015444425D-16
 Symmetry A2   SP= 7.664517950077D-15
 Symmetry B1   SP= 1.000000000000D+00
 Symmetry B2   SP=-5.083152360128D-14
                          Isotropic Fermi Contact Couplings
        Atom                 a.u.       MegaHertz       Gauss      10(-4) cm-1
     1  C(13)              0.06266      70.44411      25.13621      23.49763
     2  C(13)             -0.04233     -47.58420     -16.97923     -15.87238
     3  C(13)              0.09552     107.38224      38.31665      35.81886
     4  C(13)             -0.04233     -47.58420     -16.97923     -15.87238
     5  C(13)              0.06266      70.44411      25.13621      23.49763
     6  H(1)              -0.00772     -34.48725     -12.30591     -11.50371
     7  H(1)              -0.00813     -36.33850     -12.96648     -12.12122
     8  H(1)               0.00234      10.46360       3.73367       3.49028
     9  H(1)              -0.01180     -52.72938     -18.81515     -17.58863
    10  H(1)               0.00234      10.46360       3.73367       3.49028
    11  H(1)              -0.00813     -36.33850     -12.96648     -12.12122
 --------------------------------------------------------
       Center         ----  Spin Dipole Couplings  ----
                      3XX-RR        3YY-RR        3ZZ-RR
 --------------------------------------------------------
     1   Atom        0.441197     -0.214677     -0.226520
     2   Atom       -0.156883      0.076696      0.080188
     3   Atom        0.669641     -0.342075     -0.327565
     4   Atom       -0.156883      0.076696      0.080188
     5   Atom        0.441197     -0.214677     -0.226520
     6   Atom       -0.006273      0.007709     -0.001436
     7   Atom       -0.005836      0.005502      0.000334
     8   Atom       -0.006483      0.001221      0.005262
     9   Atom       -0.007838     -0.043871      0.051709
    10   Atom       -0.006483      0.001221      0.005262
    11   Atom       -0.005836      0.005502      0.000334
 --------------------------------------------------------
                        XY            XZ            YZ
 --------------------------------------------------------
     1   Atom       -0.000000     -0.000000     -0.007889
     2   Atom       -0.000000      0.000000     -0.006600
     3   Atom       -0.000000     -0.000000      0.000000
     4   Atom       -0.000000     -0.000000      0.006600
     5   Atom        0.000000      0.000000      0.007889
     6   Atom       -0.000000      0.000000      0.000000
     7   Atom        0.000000      0.000000     -0.032547
     8   Atom       -0.000000      0.000000     -0.004977
     9   Atom       -0.000000     -0.000000      0.000000
    10   Atom        0.000000     -0.000000      0.004977
    11   Atom       -0.000000     -0.000000      0.032547
 --------------------------------------------------------


 ---------------------------------------------------------------------------------
              Anisotropic Spin Dipole Couplings in Principal Axis System
 ---------------------------------------------------------------------------------

       Atom             a.u.   MegaHertz   Gauss  10(-4) cm-1        Axes

              Baa    -0.2305   -30.926   -11.035   -10.316  0.0000  0.4470  0.8945
     1 C(13)  Bbb    -0.2107   -28.279   -10.090    -9.433  0.0000  0.8945 -0.4470
              Bcc     0.4412    59.204    21.126    19.748  1.0000 -0.0000  0.0000
 
              Baa    -0.1569   -21.052    -7.512    -7.022  1.0000  0.0000  0.0000
     2 C(13)  Bbb     0.0716     9.610     3.429     3.206 -0.0000  0.7924  0.6100
              Bcc     0.0853    11.442     4.083     3.817  0.0000 -0.6100  0.7924
 
              Baa    -0.3421   -45.903   -16.379   -15.312  0.0000  1.0000  0.0000
     3 C(13)  Bbb    -0.3276   -43.956   -15.685   -14.662  0.0000  0.0000  1.0000
              Bcc     0.6696    89.859    32.064    29.974  1.0000 -0.0000  0.0000
 
              Baa    -0.1569   -21.052    -7.512    -7.022  1.0000  0.0000  0.0000
     4 C(13)  Bbb     0.0716     9.610     3.429     3.206 -0.0000  0.7924 -0.6100
              Bcc     0.0853    11.442     4.083     3.817 -0.0000  0.6100  0.7924
 
              Baa    -0.2305   -30.926   -11.035   -10.316 -0.0000 -0.4470  0.8945
     5 C(13)  Bbb    -0.2107   -28.279   -10.090    -9.433  0.0000  0.8945  0.4470
              Bcc     0.4412    59.204    21.126    19.748  1.0000 -0.0000  0.0000
 
              Baa    -0.0063    -3.347    -1.194    -1.116  1.0000 -0.0000 -0.0000
     6 H(1)   Bbb    -0.0014    -0.766    -0.273    -0.256  0.0000 -0.0000  1.0000
              Bcc     0.0077     4.113     1.468     1.372 -0.0000  1.0000 -0.0000
 
              Baa    -0.0297   -15.863    -5.660    -5.291 -0.0000  0.6785  0.7346
     7 H(1)   Bbb    -0.0058    -3.114    -1.111    -1.039  1.0000  0.0000  0.0000
              Bcc     0.0356    18.977     6.772     6.330 -0.0000  0.7346 -0.6785
 
              Baa    -0.0065    -3.459    -1.234    -1.154  1.0000  0.0000  0.0000
     8 H(1)   Bbb    -0.0021    -1.136    -0.405    -0.379 -0.0000  0.8295  0.5585
              Bcc     0.0086     4.596     1.640     1.533  0.0000 -0.5585  0.8295
 
              Baa    -0.0439   -23.408    -8.352    -7.808  0.0000  1.0000 -0.0000
     9 H(1)   Bbb    -0.0078    -4.182    -1.492    -1.395  1.0000 -0.0000  0.0000
              Bcc     0.0517    27.589     9.845     9.203  0.0000  0.0000  1.0000
 
              Baa    -0.0065    -3.459    -1.234    -1.154  1.0000 -0.0000  0.0000
    10 H(1)   Bbb    -0.0021    -1.136    -0.405    -0.379  0.0000  0.8295 -0.5585
              Bcc     0.0086     4.596     1.640     1.533  0.0000  0.5585  0.8295
 
              Baa    -0.0297   -15.863    -5.660    -5.291  0.0000 -0.6785  0.7346
    11 H(1)   Bbb    -0.0058    -3.114    -1.111    -1.039  1.0000  0.0000  0.0000
              Bcc     0.0356    18.977     6.772     6.330 -0.0000  0.7346  0.6785
 

 ---------------------------------------------------------------------------------

 No NMR shielding tensors so no spin-rotation constants.
 Leave Link  601 at Tue Feb 25 12:23:53 2020, MaxMem=  6710886400 cpu:               6.1 elap:               0.4
 (Enter /opt/ohpc/pub/libs/gaussian/g16-A.03/haswell/g16/l9999.exe)

 Test job not archived.
 1\1\GINC-HASWELL008\SP\ULC-wHPBE\6-31G\C5H6(1+,2)\SMGO234\25-Feb-2020\
 0\\#P uLC-wHPBE/6-31G iop(3/107=0314700000, 3/108=0314700000) scf=(con
 ver=6,fermi,ndamp=35,noincfock,novaracc,vshift=500,xqc)\\H6 C5\\1,2\C,
 0,0.,0.895213,-0.933453\C,0,0.,1.131613,0.424372\C,0,0.,0.,1.240919\C,
 0,0.,-1.131613,0.424372\C,0,0.,-0.895213,-0.933453\H,0,0.,0.,-1.720797
 \H,0,0.,1.620085,-1.742217\H,0,0.,2.160007,0.773055\H,0,0.,0.,2.322589
 \H,0,0.,-2.160007,0.773055\H,0,0.,-1.620085,-1.742217\\Version=ES64L-G
 16RevA.03\State=2-B1\HF=-193.4681212\S2=0.796545\S2-1=0.\S2A=0.751253\
 RMSD=5.956e-07\Dipole=0.,0.,-0.7865952\Quadrupole=-7.9758489,2.4458191
 ,5.5300298,0.,0.,0.\PG=C02V [C2(H1C1H1),SGV(C4H4)]\\@


 THERE ARE TWO THINGS THAT EVERYBODY THINKS THEY CAN DO BETTER THAN
 ANYONE ELSE - PUNCH THE FIRE, AND EDIT A DAILY PAPER.
 -- UNCLE ESEK, "CENTURY MAGAZINE", 1885
 Job cpu time:       0 days  0 hours  0 minutes 52.9 seconds.
 Elapsed time:       0 days  0 hours  0 minutes  3.6 seconds.
 File lengths (MBytes):  RWF=    272 Int=      0 D2E=      0 Chk=     32 Scr=     32
 Normal termination of Gaussian 16 at Tue Feb 25 12:23:53 2020.
