 Entering Gaussian System, Link 0=g16
 Input=1b_tune_c1.gjf
 Output=1b_tune_c1.log
 Initial command:
 /opt/ohpc/pub/libs/gaussian/g16-A.03/haswell/g16/l1.exe "/scratch/smgo234/Ocelot/test/1b/tuning_1b_ocycle2/Gau-43276.inp" -scrdir="/scratch/smgo234/Ocelot/test/1b/tuning_1b_ocycle2/"
 Entering Link 1 = /opt/ohpc/pub/libs/gaussian/g16-A.03/haswell/g16/l1.exe PID=     43277.
  
 Copyright (c) 1988,1990,1992,1993,1995,1998,2003,2009,2016,
            Gaussian, Inc.  All Rights Reserved.
  
 This is part of the Gaussian(R) 16 program.  It is based on
 the Gaussian(R) 09 system (copyright 2009, Gaussian, Inc.),
 the Gaussian(R) 03 system (copyright 2003, Gaussian, Inc.),
 the Gaussian(R) 98 system (copyright 1998, Gaussian, Inc.),
 the Gaussian(R) 94 system (copyright 1995, Gaussian, Inc.),
 the Gaussian 92(TM) system (copyright 1992, Gaussian, Inc.),
 the Gaussian 90(TM) system (copyright 1990, Gaussian, Inc.),
 the Gaussian 88(TM) system (copyright 1988, Gaussian, Inc.),
 the Gaussian 86(TM) system (copyright 1986, Carnegie Mellon
 University), and the Gaussian 82(TM) system (copyright 1983,
 Carnegie Mellon University). Gaussian is a federally registered
 trademark of Gaussian, Inc.
  
 This software contains proprietary and confidential information,
 including trade secrets, belonging to Gaussian, Inc.
  
 This software is provided under written license and may be
 used, copied, transmitted, or stored only in accord with that
 written license.
  
 The following legend is applicable only to US Government
 contracts under FAR:
  
                    RESTRICTED RIGHTS LEGEND
  
 Use, reproduction and disclosure by the US Government is
 subject to restrictions as set forth in subparagraphs (a)
 and (c) of the Commercial Computer Software - Restricted
 Rights clause in FAR 52.227-19.
  
 Gaussian, Inc.
 340 Quinnipiac St., Bldg. 40, Wallingford CT 06492
  
  
 ---------------------------------------------------------------
 Warning -- This program may not be used in any manner that
 competes with the business of Gaussian, Inc. or will provide
 assistance to any competitor of Gaussian, Inc.  The licensee
 of this program is prohibited from giving any competitor of
 Gaussian, Inc. access to this program.  By using this program,
 the user acknowledges that Gaussian, Inc. is engaged in the
 business of creating and licensing software in the field of
 computational chemistry and represents and warrants to the
 licensee that it is not a competitor of Gaussian, Inc. and that
 it will not use this program in any manner prohibited above.
 ---------------------------------------------------------------
  

 Cite this work as:
 Gaussian 16, Revision A.03,
 M. J. Frisch, G. W. Trucks, H. B. Schlegel, G. E. Scuseria, 
 M. A. Robb, J. R. Cheeseman, G. Scalmani, V. Barone, 
 G. A. Petersson, H. Nakatsuji, X. Li, M. Caricato, A. V. Marenich, 
 J. Bloino, B. G. Janesko, R. Gomperts, B. Mennucci, H. P. Hratchian, 
 J. V. Ortiz, A. F. Izmaylov, J. L. Sonnenberg, D. Williams-Young, 
 F. Ding, F. Lipparini, F. Egidi, J. Goings, B. Peng, A. Petrone, 
 T. Henderson, D. Ranasinghe, V. G. Zakrzewski, J. Gao, N. Rega, 
 G. Zheng, W. Liang, M. Hada, M. Ehara, K. Toyota, R. Fukuda, 
 J. Hasegawa, M. Ishida, T. Nakajima, Y. Honda, O. Kitao, H. Nakai, 
 T. Vreven, K. Throssell, J. A. Montgomery, Jr., J. E. Peralta, 
 F. Ogliaro, M. J. Bearpark, J. J. Heyd, E. N. Brothers, K. N. Kudin, 
 V. N. Staroverov, T. A. Keith, R. Kobayashi, J. Normand, 
 K. Raghavachari, A. P. Rendell, J. C. Burant, S. S. Iyengar, 
 J. Tomasi, M. Cossi, J. M. Millam, M. Klene, C. Adamo, R. Cammi, 
 J. W. Ochterski, R. L. Martin, K. Morokuma, O. Farkas, 
 J. B. Foresman, and D. J. Fox, Gaussian, Inc., Wallingford CT, 2016.
 
 ******************************************
 Gaussian 16:  ES64L-G16RevA.03 25-Dec-2016
                25-Feb-2020 
 ******************************************
 %mem=50GB
 %nproc=16
 Will use up to   16 processors via shared memory.
 ----------------------------------------------------------------------
 #P uLC-wHPBE/6-31G iop(3/107=0361400000, 3/108=0361400000) scf=(conver
 =6,fermi,ndamp=35,noincfock,novaracc,vshift=500,xqc)
 ----------------------------------------------------------------------
 1/38=1,172=1/1;
 2/12=2,17=6,18=5,40=1/2;
 3/5=1,6=6,11=2,25=1,30=1,74=-71,107=361400000,108=361400000,116=2/1,2,3;
 4//1;
 5/5=100002,6=6,8=3,10=500,13=1,18=-1,22=13,38=1,93=35/2,8;
 6/7=2,8=2,9=2,10=2,28=1/1;
 99/5=1,9=1/99;
 Leave Link    1 at Tue Feb 25 12:23:02 2020, MaxMem=  6710886400 cpu:               9.9 elap:               0.7
 (Enter /opt/ohpc/pub/libs/gaussian/g16-A.03/haswell/g16/l101.exe)
 -----
 H6 C5
 -----
 Symbolic Z-matrix:
 Charge =  1 Multiplicity = 2
 C                     0.        0.89521  -0.93345 
 C                     0.        1.13161   0.42437 
 C                     0.        0.        1.24092 
 C                     0.       -1.13161   0.42437 
 C                     0.       -0.89521  -0.93345 
 H                     0.        0.       -1.7208 
 H                     0.        1.62009  -1.74222 
 H                     0.        2.16001   0.77306 
 H                     0.        0.        2.32259 
 H                     0.       -2.16001   0.77306 
 H                     0.       -1.62009  -1.74222 
 
 ITRead=  0  0  0  0  0  0  0  0  0  0  0
 MicOpt= -1 -1 -1 -1 -1 -1 -1 -1 -1 -1 -1
 NAtoms=     11 NQM=       11 NQMF=       0 NMMI=      0 NMMIF=      0
                NMic=       0 NMicF=      0.
                    Isotopes and Nuclear Properties:
 (Nuclear quadrupole moments (NQMom) in fm**2, nuclear magnetic moments (NMagM)
  in nuclear magnetons)

  Atom         1           2           3           4           5           6           7           8           9          10
 IAtWgt=          12          12          12          12          12           1           1           1           1           1
 AtmWgt=  12.0000000  12.0000000  12.0000000  12.0000000  12.0000000   1.0078250   1.0078250   1.0078250   1.0078250   1.0078250
 NucSpn=           0           0           0           0           0           1           1           1           1           1
 AtZEff=  -0.0000000  -0.0000000  -0.0000000  -0.0000000  -0.0000000  -0.0000000  -0.0000000  -0.0000000  -0.0000000  -0.0000000
 NQMom=    0.0000000   0.0000000   0.0000000   0.0000000   0.0000000   0.0000000   0.0000000   0.0000000   0.0000000   0.0000000
 NMagM=    0.0000000   0.0000000   0.0000000   0.0000000   0.0000000   2.7928460   2.7928460   2.7928460   2.7928460   2.7928460
 AtZNuc=   6.0000000   6.0000000   6.0000000   6.0000000   6.0000000   1.0000000   1.0000000   1.0000000   1.0000000   1.0000000

  Atom        11
 IAtWgt=           1
 AtmWgt=   1.0078250
 NucSpn=           1
 AtZEff=  -0.0000000
 NQMom=    0.0000000
 NMagM=    2.7928460
 AtZNuc=   1.0000000
 Leave Link  101 at Tue Feb 25 12:23:02 2020, MaxMem=  6710886400 cpu:               2.6 elap:               0.2
 (Enter /opt/ohpc/pub/libs/gaussian/g16-A.03/haswell/g16/l202.exe)
                          Input orientation:                          
 ---------------------------------------------------------------------
 Center     Atomic      Atomic             Coordinates (Angstroms)
 Number     Number       Type             X           Y           Z
 ---------------------------------------------------------------------
      1          6           0        0.000000    0.895213   -0.933453
      2          6           0        0.000000    1.131613    0.424372
      3          6           0        0.000000    0.000000    1.240919
      4          6           0        0.000000   -1.131613    0.424372
      5          6           0        0.000000   -0.895213   -0.933453
      6          1           0        0.000000    0.000000   -1.720797
      7          1           0        0.000000    1.620085   -1.742217
      8          1           0        0.000000    2.160007    0.773055
      9          1           0        0.000000    0.000000    2.322589
     10          1           0        0.000000   -2.160007    0.773055
     11          1           0        0.000000   -1.620085   -1.742217
 ---------------------------------------------------------------------
                    Distance matrix (angstroms):
                    1          2          3          4          5
     1  C    0.000000
     2  C    1.378250   0.000000
     3  C    2.351446   1.395456   0.000000
     4  C    2.439613   2.263226   1.395456   0.000000
     5  C    1.790426   2.439613   2.351446   1.378250   0.000000
     6  H    1.192190   2.425345   2.961716   2.425345   1.192190
     7  H    1.086066   2.220971   3.394669   3.502278   2.642125
     8  H    2.124117   1.085898   2.210097   3.310037   3.499506
     9  H    3.376865   2.209927   1.081670   2.209927   3.376865
    10  H    3.499506   3.310037   2.210097   1.085898   2.124117
    11  H    2.642125   3.502278   3.394669   2.220971   1.086066
                    6          7          8          9         10
     6  H    0.000000
     7  H    1.620227   0.000000
     8  H    3.299231   2.572569   0.000000
     9  H    4.043386   4.375765   2.658324   0.000000
    10  H    3.299231   4.540450   4.320014   2.658324   0.000000
    11  H    1.620227   3.240170   4.540450   4.375765   2.572569
                   11
    11  H    0.000000
 Stoichiometry    C5H6(1+,2)
 Framework group  C2V[C2(HCH),SGV(C4H4)]
 Deg. of freedom    10
 Full point group                 C2V     NOp   4
 Largest Abelian subgroup         C2V     NOp   4
 Largest concise Abelian subgroup C2      NOp   2
                         Standard orientation:                         
 ---------------------------------------------------------------------
 Center     Atomic      Atomic             Coordinates (Angstroms)
 Number     Number       Type             X           Y           Z
 ---------------------------------------------------------------------
      1          6           0        0.000000    0.895213   -0.933453
      2          6           0        0.000000    1.131613    0.424372
      3          6           0        0.000000   -0.000000    1.240919
      4          6           0       -0.000000   -1.131613    0.424372
      5          6           0       -0.000000   -0.895213   -0.933453
      6          1           0       -0.000000    0.000000   -1.720797
      7          1           0        0.000000    1.620085   -1.742217
      8          1           0        0.000000    2.160007    0.773055
      9          1           0        0.000000   -0.000000    2.322589
     10          1           0       -0.000000   -2.160007    0.773055
     11          1           0       -0.000000   -1.620085   -1.742217
 ---------------------------------------------------------------------
 Rotational constants (GHZ):           8.5037938           7.8157507           4.0726340
 Leave Link  202 at Tue Feb 25 12:23:02 2020, MaxMem=  6710886400 cpu:               0.2 elap:               0.0
 (Enter /opt/ohpc/pub/libs/gaussian/g16-A.03/haswell/g16/l301.exe)
 Standard basis: 6-31G (6D, 7F)
 Ernie: Thresh=  0.10000D-02 Tol=  0.10000D-05 Strict=F.
 There are    27 symmetry adapted cartesian basis functions of A1  symmetry.
 There are     4 symmetry adapted cartesian basis functions of A2  symmetry.
 There are     6 symmetry adapted cartesian basis functions of B1  symmetry.
 There are    20 symmetry adapted cartesian basis functions of B2  symmetry.
 There are    27 symmetry adapted basis functions of A1  symmetry.
 There are     4 symmetry adapted basis functions of A2  symmetry.
 There are     6 symmetry adapted basis functions of B1  symmetry.
 There are    20 symmetry adapted basis functions of B2  symmetry.
    57 basis functions,   134 primitive gaussians,    57 cartesian basis functions
    18 alpha electrons       17 beta electrons
       nuclear repulsion energy       155.4439185285 Hartrees.
 IExCor=33909 DFT=T Ex+Corr=LC-wHPBE ExCW=0 ScaHFX=  1.000000
 ScaDFX=  1.000000  1.000000  1.000000  1.000000 ScalE2=  1.000000  1.000000
 IRadAn=      5 IRanWt=     -1 IRanGd=            0 ICorTp=0 IEmpDi=  4
 HFx  wShort=  0.000000 wLong=  0.361400 cFull=  0.000000 cShort=  0.000000 cLong=  1.000000
 DFx  wShort=  0.000000 wLong=  0.361400 cFull=  0.000000 cShort=  1.000000 cLong=  0.000000
 NAtoms=   11 NActive=   11 NUniq=    7 SFac= 2.47D+00 NAtFMM=   60 NAOKFM=F Big=F
 Integral buffers will be    131072 words long.
 Raffenetti 2 integral format.
 Two-electron integral symmetry is turned on.
 Leave Link  301 at Tue Feb 25 12:23:02 2020, MaxMem=  6710886400 cpu:               0.8 elap:               0.1
 (Enter /opt/ohpc/pub/libs/gaussian/g16-A.03/haswell/g16/l302.exe)
 NPDir=0 NMtPBC=     1 NCelOv=     1 NCel=       1 NClECP=     1 NCelD=      1
         NCelK=      1 NCelE2=     1 NClLst=     1 CellRange=     0.0.
 One-electron integrals computed using PRISM.
 One-electron integral symmetry used in STVInt
 NBasis=    57 RedAO= T EigKep=  1.90D-03  NBF=    27     4     6    20
 NBsUse=    57 1.00D-06 EigRej= -1.00D+00 NBFU=    27     4     6    20
 Precomputing XC quadrature grid using
 IXCGrd= 4 IRadAn=           5 IRanWt=          -1 IRanGd=           0 AccXCQ= 0.00D+00.
 Generated NRdTot=       0 NPtTot=           0 NUsed=           0 NTot=          32
 NSgBfM=    57    57    57    57    57 MxSgAt=    11 MxSgA2=    11.
 Leave Link  302 at Tue Feb 25 12:23:02 2020, MaxMem=  6710886400 cpu:               3.0 elap:               0.2
 (Enter /opt/ohpc/pub/libs/gaussian/g16-A.03/haswell/g16/l303.exe)
 DipDrv:  MaxL=1.
 Leave Link  303 at Tue Feb 25 12:23:02 2020, MaxMem=  6710886400 cpu:               0.4 elap:               0.0
 (Enter /opt/ohpc/pub/libs/gaussian/g16-A.03/haswell/g16/l401.exe)
 ExpMin= 1.61D-01 ExpMax= 3.05D+03 ExpMxC= 4.57D+02 IAcc=3 IRadAn=         5 AccDes= 0.00D+00
 Harris functional with IExCor=33909 and IRadAn=       5 diagonalized for initial guess.
 HarFok:  IExCor=33909 AccDes= 0.00D+00 IRadAn=         5 IDoV= 1 UseB2=F ITyADJ=14
 ICtDFT=  3500011 ScaDFX=  1.000000  1.000000  1.000000  1.000000
 FoFCou: FMM=F IPFlag=           0 FMFlag=      100000 FMFlg1=           0
         NFxFlg=           0 DoJE=T BraDBF=F KetDBF=T FulRan=T
         wScrn=  0.000000 ICntrl=       500 IOpCl=  0 I1Cent=   200000004 NGrid=           0
         NMat0=    1 NMatS0=      1 NMatT0=    0 NMatD0=    1 NMtDS0=    0 NMtDT0=    0
 Petite list used in FoFCou.
 Harris En= -187.199209020580    
 JPrj=0 DoOrth=F DoCkMO=F.
 Initial guess orbital symmetries:
 Alpha Orbitals:
       Occupied  (A1) (B2) (A1) (B2) (A1) (A1) (B2) (A1) (A1) (B2)
                 (A1) (B2) (A1) (B2) (A1) (B1) (A2) (B1)
       Virtual   (A2) (B2) (B1) (A1) (A1) (B2) (A1) (B2) (A1) (B2)
                 (A1) (A1) (B2) (B2) (B1) (A2) (A1) (B1) (B2) (A1)
                 (A1) (A2) (B1) (B2) (B2) (A1) (B2) (A1) (A1) (B2)
                 (A1) (A1) (A1) (B2) (A1) (B2) (A1) (A1) (B2)
 Beta  Orbitals:
       Occupied  (A1) (B2) (A1) (B2) (A1) (A1) (B2) (A1) (A1) (B2)
                 (A1) (B2) (A1) (B2) (A1) (B1) (A2)
       Virtual   (B1) (A2) (B2) (B1) (A1) (A1) (B2) (A1) (B2) (A1)
                 (B2) (A1) (A1) (B2) (B2) (B1) (A2) (A1) (B1) (B2)
                 (A1) (A1) (A2) (B1) (B2) (B2) (A1) (B2) (A1) (A1)
                 (B2) (A1) (A1) (A1) (B2) (A1) (B2) (A1) (A1) (B2)
 The electronic state of the initial guess is 2-B1.
 Initial guess <Sx>= 0.0000 <Sy>= 0.0000 <Sz>= 0.5000 <S**2>= 0.7500 S= 0.5000
 Leave Link  401 at Tue Feb 25 12:23:03 2020, MaxMem=  6710886400 cpu:               4.1 elap:               0.3
 (Enter /opt/ohpc/pub/libs/gaussian/g16-A.03/haswell/g16/l502.exe)
 Keep R1 and R2 ints in memory in symmetry-blocked form, NReq=16815681.
 FoFCou: FMM=F IPFlag=           0 FMFlag=           0 FMFlg1=           0
         NFxFlg=           0 DoJE=F BraDBF=F KetDBF=F FulRan=T
         wScrn=  0.000000 ICntrl=       600 IOpCl=  0 I1Cent=           0 NGrid=           0
         NMat0=    1 NMatS0=   1653 NMatT0=    0 NMatD0=    1 NMtDS0=    0 NMtDT0=    0
 Petite list used in FoFCou.
 UHF open shell SCF:
 Using DIIS extrapolation, IDIIS=    10.
 NGot=  6710886400 LenX=  6710059561 LenY=  6710055871
 Requested convergence on RMS density matrix=1.00D-06 within  32 cycles.
 Requested convergence on MAX density matrix=1.00D-04.
 Requested convergence on             energy=1.00D-04.
 Virtual orbitals will be shifted by   0.500 hartree.
 No special actions if energy rises.
 Dynamic level shift is on during FON iterations.

 Cycle   1  Pass 1  IDiag  1:
 E= -193.414297205353    
 DIIS: error= 4.75D-02 at cycle   1 NSaved=   1.
 NSaved= 1 IEnMin= 1 EnMin= -193.414297205353     IErMin= 1 ErrMin= 4.75D-02
 ErrMax= 4.75D-02  0.00D+00 EMaxC= 1.00D+00 BMatC= 1.72D-01 BMatP= 1.72D-01
 IDIUse=1 WtCom= 1.00D+00 WtEn= 0.00D+00
 Coeff-Com:  0.100D+01
 Coeff:      0.100D+01
 Gap=     0.375 Goal=   None    Shift=    0.500
 T= 1772. Gap= 0.845 NK=0 IS=   19 IE=   57 IFin=   18
          NO(<0.9)=   0  NV(>0.1)=   0     18.00e < EF      0.00e >EF  Err=0.0D+00
 Gap=     0.258 Goal=   None    Shift=    0.500
 T= 1772. Gap= 0.761 NK=0 IS=   18 IE=   57 IFin=   17
          NO(<0.9)=   0  NV(>0.1)=   0     17.00e < EF      0.00e >EF  Err=0.0D+00
 GapD=    0.258 DampG=1.000 DampE=0.500 DampFc=0.5000 IDamp=-1.
 Damping current iteration by 5.00D-01
 RMSDP=6.71D-03 MaxDP=5.22D-02              OVMax= 9.71D-02

 Cycle   2  Pass 1  IDiag  1:
 E= -193.446954533738     Delta-E=       -0.032657328385 Rises=F Damp=T
 DIIS: error= 2.38D-02 at cycle   2 NSaved=   2.
 NSaved= 2 IEnMin= 2 EnMin= -193.446954533738     IErMin= 2 ErrMin= 2.38D-02
 ErrMax= 2.38D-02  0.00D+00 EMaxC= 1.00D+00 BMatC= 3.21D-02 BMatP= 1.72D-01
 IDIUse=1 WtCom= 1.00D+00 WtEn= 0.00D+00
 Coeff-Com: -0.575D+00 0.158D+01
 Coeff:     -0.575D+00 0.158D+01
 Gap=     0.442 Goal=   None    Shift=    0.500
 T= 1663. Gap= 0.928 NK=4 IS=   19 IE=   23 IFin=   18
          NO(<0.9)=   0  NV(>0.1)=   0     18.00e < EF      0.00e >EF  Err=0.0D+00
 Gap=     0.285 Goal=   None    Shift=    0.500
 T= 1663. Gap= 0.783 NK=4 IS=   18 IE=   23 IFin=   17
          NO(<0.9)=   0  NV(>0.1)=   0     17.00e < EF      0.00e >EF  Err=0.0D+00
 GapD=    0.285 DampG=1.000 DampE=0.500 DampFc=0.5000 IDamp=-1.
 Damping current iteration by 5.00D-01
 RMSDP=4.28D-03 MaxDP=3.35D-02 DE=-3.27D-02 OVMax= 1.69D-02

 Cycle   3  Pass 1  IDiag  1:
 E= -193.459154575432     Delta-E=       -0.012200041694 Rises=F Damp=T
 DIIS: error= 1.41D-02 at cycle   3 NSaved=   3.
 NSaved= 3 IEnMin= 3 EnMin= -193.459154575432     IErMin= 3 ErrMin= 1.41D-02
 ErrMax= 1.41D-02  0.00D+00 EMaxC= 1.00D+00 BMatC= 8.27D-03 BMatP= 3.21D-02
 IDIUse=1 WtCom= 1.00D+00 WtEn= 0.00D+00
 Coeff-Com:  0.375D+00-0.204D+01 0.267D+01
 Coeff:      0.375D+00-0.204D+01 0.267D+01
 Gap=     0.435 Goal=   None    Shift=    0.500
 T= 1464. Gap= 0.935 NK=0 IS=   19 IE=   57 IFin=   18
          NO(<0.9)=   0  NV(>0.1)=   0     18.00e < EF      0.00e >EF  Err=0.0D+00
 Gap=     0.290 Goal=   None    Shift=    0.500
 T= 1464. Gap= 0.790 NK=0 IS=   18 IE=   57 IFin=   17
          NO(<0.9)=   0  NV(>0.1)=   0     17.00e < EF      0.00e >EF  Err=0.0D+00
 GapD=    0.290 DampG=1.000 DampE=0.500 DampFc=0.5000 IDamp=-1.
 Damping current iteration by 5.00D-01
 RMSDP=2.51D-03 MaxDP=1.84D-02 DE=-1.22D-02 OVMax= 1.64D-02

 Cycle   4  Pass 1  IDiag  1:
 E= -193.465153756530     Delta-E=       -0.005999181098 Rises=F Damp=T
 DIIS: error= 9.26D-03 at cycle   4 NSaved=   4.
 NSaved= 4 IEnMin= 4 EnMin= -193.465153756530     IErMin= 4 ErrMin= 9.26D-03
 ErrMax= 9.26D-03  0.00D+00 EMaxC= 1.00D+00 BMatC= 2.95D-03 BMatP= 8.27D-03
 IDIUse=1 WtCom= 1.00D+00 WtEn= 0.00D+00
 Coeff-Com: -0.522D-01 0.114D+01-0.428D+01 0.419D+01
 Coeff:     -0.522D-01 0.114D+01-0.428D+01 0.419D+01
 Gap=     0.439 Goal=   None    Shift=    0.500
 T= 1108. Gap= 0.940 NK=0 IS=   19 IE=   57 IFin=   18
          NO(<0.9)=   0  NV(>0.1)=   0     18.00e < EF      0.00e >EF  Err=0.0D+00
 Gap=     0.295 Goal=   None    Shift=    0.500
 T= 1108. Gap= 0.795 NK=0 IS=   18 IE=   57 IFin=   17
          NO(<0.9)=   0  NV(>0.1)=   0     17.00e < EF      0.00e >EF  Err=0.0D+00
 GapD=    0.295 DampG=1.000 DampE=1.000 DampFc=1.0000 IDamp=-1.
 RMSDP=1.61D-03 MaxDP=1.54D-02 DE=-6.00D-03 OVMax= 1.62D-02

 Cycle   5  Pass 1  IDiag  1:
 E= -193.472426894861     Delta-E=       -0.007273138331 Rises=F Damp=F
 DIIS: error= 4.18D-03 at cycle   5 NSaved=   5.
 NSaved= 5 IEnMin= 5 EnMin= -193.472426894861     IErMin= 5 ErrMin= 4.18D-03
 ErrMax= 4.18D-03  0.00D+00 EMaxC= 1.00D+00 BMatC= 4.36D-04 BMatP= 2.95D-03
 IDIUse=1 WtCom= 1.00D+00 WtEn= 0.00D+00
 Coeff-Com: -0.187D+00 0.927D+00-0.743D+00-0.868D+00 0.187D+01
 Coeff:     -0.187D+00 0.927D+00-0.743D+00-0.868D+00 0.187D+01
 Gap=     0.441 Goal=   None    Shift=    0.500
 T=  785. Gap= 0.942 NK=0 IS=   19 IE=   57 IFin=   18
          NO(<0.9)=   0  NV(>0.1)=   0     18.00e < EF      0.00e >EF  Err=0.0D+00
 Gap=     0.298 Goal=   None    Shift=    0.500
 T=  785. Gap= 0.799 NK=0 IS=   18 IE=   57 IFin=   17
          NO(<0.9)=   0  NV(>0.1)=   0     17.00e < EF      0.00e >EF  Err=0.0D+00
 GapD=    0.298 DampG=1.000 DampE=1.000 DampFc=1.0000 IDamp=-1.
 RMSDP=4.26D-04 MaxDP=6.63D-03 DE=-7.27D-03 OVMax= 1.52D-02

 Cycle   6  Pass 1  IDiag  1:
 E= -193.473050086328     Delta-E=       -0.000623191466 Rises=F Damp=F
 DIIS: error= 3.14D-03 at cycle   6 NSaved=   6.
 NSaved= 6 IEnMin= 6 EnMin= -193.473050086328     IErMin= 6 ErrMin= 3.14D-03
 ErrMax= 3.14D-03  0.00D+00 EMaxC= 1.00D+00 BMatC= 1.97D-04 BMatP= 4.36D-04
 IDIUse=1 WtCom= 1.00D+00 WtEn= 0.00D+00
 Coeff-Com:  0.190D-01-0.415D+00 0.128D+01-0.104D+01-0.146D+01 0.262D+01
 Coeff:      0.190D-01-0.415D+00 0.128D+01-0.104D+01-0.146D+01 0.262D+01
 Gap=     0.443 Goal=   None    Shift=    0.500
 T=  481. Gap= 0.943 NK=0 IS=   19 IE=   57 IFin=   18
          NO(<0.9)=   0  NV(>0.1)=   0     18.00e < EF      0.00e >EF  Err=0.0D+00
 Gap=     0.301 Goal=   None    Shift=    0.500
 T=  481. Gap= 0.801 NK=0 IS=   18 IE=   57 IFin=   17
          NO(<0.9)=   0  NV(>0.1)=   0     17.00e < EF      0.00e >EF  Err=0.0D+00
 GapD=    0.301 DampG=1.000 DampE=1.000 DampFc=1.0000 IDamp=-1.
 RMSDP=3.45D-04 MaxDP=5.44D-03 DE=-6.23D-04 OVMax= 1.37D-02

 Cycle   7  Pass 1  IDiag  1:
 E= -193.473402959850     Delta-E=       -0.000352873523 Rises=F Damp=F
 DIIS: error= 2.23D-03 at cycle   7 NSaved=   7.
 NSaved= 7 IEnMin= 7 EnMin= -193.473402959850     IErMin= 7 ErrMin= 2.23D-03
 ErrMax= 2.23D-03  0.00D+00 EMaxC= 1.00D+00 BMatC= 8.45D-05 BMatP= 1.97D-04
 IDIUse=1 WtCom= 1.00D+00 WtEn= 0.00D+00
 Coeff-Com:  0.101D-01 0.107D-01-0.376D+00 0.623D+00-0.176D+00-0.162D+01
 Coeff-Com:  0.253D+01
 Coeff:      0.101D-01 0.107D-01-0.376D+00 0.623D+00-0.176D+00-0.162D+01
 Coeff:      0.253D+01
 Gap=     0.443 Goal=   None    Shift=    0.500
 T=  151. Gap= 0.943 NK=0 IS=   19 IE=   57 IFin=   18
          NO(<0.9)=   0  NV(>0.1)=   0     18.00e < EF      0.00e >EF  Err=0.0D+00
 Gap=     0.302 Goal=   None    Shift=    0.500
 T=  151. Gap= 0.802 NK=0 IS=   18 IE=   57 IFin=   17
          NO(<0.9)=   0  NV(>0.1)=   0     17.00e < EF      0.00e >EF  Err=0.0D+00
 GapD=    0.302 DampG=1.000 DampE=1.000 DampFc=1.0000 IDamp=-1.
 RMSDP=2.34D-04 MaxDP=3.36D-03 DE=-3.53D-04 OVMax= 1.01D-02

 Cycle   8  Pass 1  IDiag  1:
 E= -193.473556187274     Delta-E=       -0.000153227423 Rises=F Damp=F
 DIIS: error= 1.55D-03 at cycle   8 NSaved=   8.
 NSaved= 8 IEnMin= 8 EnMin= -193.473556187274     IErMin= 8 ErrMin= 1.55D-03
 ErrMax= 1.55D-03  0.00D+00 EMaxC= 1.00D+00 BMatC= 3.89D-05 BMatP= 8.45D-05
 IDIUse=1 WtCom= 1.00D+00 WtEn= 0.00D+00
 Coeff-Com: -0.182D-01 0.295D+00-0.949D+00 0.842D+00 0.853D+00-0.224D+01
 Coeff-Com:  0.119D+00 0.210D+01
 Coeff:     -0.182D-01 0.295D+00-0.949D+00 0.842D+00 0.853D+00-0.224D+01
 Coeff:      0.119D+00 0.210D+01
 Gap=     0.443 Goal=   None    Shift=    0.500
 Gap=     0.302 Goal=   None    Shift=    0.500
 GapD=    0.302 DampG=1.000 DampE=1.000 DampFc=1.0000 IDamp=-1.
 RMSDP=1.73D-04 MaxDP=2.41D-03 DE=-1.53D-04 OVMax= 7.85D-03

 Cycle   9  Pass 1  IDiag  1:
 E= -193.473628324828     Delta-E=       -0.000072137554 Rises=F Damp=F
 DIIS: error= 1.02D-03 at cycle   9 NSaved=   9.
 NSaved= 9 IEnMin= 9 EnMin= -193.473628324828     IErMin= 9 ErrMin= 1.02D-03
 ErrMax= 1.02D-03  0.00D+00 EMaxC= 1.00D+00 BMatC= 1.60D-05 BMatP= 3.89D-05
 IDIUse=1 WtCom= 1.00D+00 WtEn= 0.00D+00
 Coeff-Com:  0.885D-02-0.192D+00 0.760D+00-0.811D+00-0.341D+00 0.197D+01
 Coeff-Com: -0.137D+01-0.275D+01 0.372D+01
 Coeff:      0.885D-02-0.192D+00 0.760D+00-0.811D+00-0.341D+00 0.197D+01
 Coeff:     -0.137D+01-0.275D+01 0.372D+01
 Gap=     0.443 Goal=   None    Shift=    0.500
 Gap=     0.302 Goal=   None    Shift=    0.500
 GapD=    0.302 DampG=1.000 DampE=1.000 DampFc=1.0000 IDamp=-1.
 RMSDP=1.29D-04 MaxDP=1.86D-03 DE=-7.21D-05 OVMax= 6.30D-03

 Cycle  10  Pass 1  IDiag  1:
 E= -193.473661955444     Delta-E=       -0.000033630616 Rises=F Damp=F
 DIIS: error= 6.11D-04 at cycle  10 NSaved=  10.
 NSaved=10 IEnMin=10 EnMin= -193.473661955444     IErMin=10 ErrMin= 6.11D-04
 ErrMax= 6.11D-04  0.00D+00 EMaxC= 1.00D+00 BMatC= 5.66D-06 BMatP= 1.60D-05
 IDIUse=1 WtCom= 1.00D+00 WtEn= 0.00D+00
 Coeff-Com: -0.104D-02 0.543D-01-0.244D+00 0.279D+00 0.719D-01-0.641D+00
 Coeff-Com:  0.685D+00 0.645D+00-0.285D+01 0.300D+01
 Coeff:     -0.104D-02 0.543D-01-0.244D+00 0.279D+00 0.719D-01-0.641D+00
 Coeff:      0.685D+00 0.645D+00-0.285D+01 0.300D+01
 Gap=     0.443 Goal=   None    Shift=    0.500
 Gap=     0.302 Goal=   None    Shift=    0.500
 RMSDP=7.65D-05 MaxDP=1.17D-03 DE=-3.36D-05 OVMax= 3.89D-03

 Cycle  11  Pass 1  IDiag  1:
 E= -193.473673797904     Delta-E=       -0.000011842460 Rises=F Damp=F
 DIIS: error= 3.60D-04 at cycle  11 NSaved=  11.
 NSaved=11 IEnMin=11 EnMin= -193.473673797904     IErMin=11 ErrMin= 3.60D-04
 ErrMax= 3.60D-04  0.00D+00 EMaxC= 1.00D+00 BMatC= 2.10D-06 BMatP= 5.66D-06
 IDIUse=1 WtCom= 1.00D+00 WtEn= 0.00D+00
 Coeff-Com:  0.335D-02-0.823D-01 0.361D+00-0.415D+00-0.724D-01 0.912D+00
 Coeff-Com: -0.932D+00-0.119D+01 0.417D+01-0.647D+01 0.472D+01
 Coeff:      0.335D-02-0.823D-01 0.361D+00-0.415D+00-0.724D-01 0.912D+00
 Coeff:     -0.932D+00-0.119D+01 0.417D+01-0.647D+01 0.472D+01
 Gap=     0.443 Goal=   None    Shift=    0.500
 Gap=     0.302 Goal=   None    Shift=    0.500
 RMSDP=4.84D-05 MaxDP=7.14D-04 DE=-1.18D-05 OVMax= 2.50D-03

 Cycle  12  Pass 1  IDiag  1:
 E= -193.473678245898     Delta-E=       -0.000004447994 Rises=F Damp=F
 DIIS: error= 2.04D-04 at cycle  12 NSaved=  12.
 NSaved=12 IEnMin=12 EnMin= -193.473678245898     IErMin=12 ErrMin= 2.04D-04
 ErrMax= 2.04D-04  0.00D+00 EMaxC= 1.00D+00 BMatC= 7.13D-07 BMatP= 2.10D-06
 IDIUse=1 WtCom= 1.00D+00 WtEn= 0.00D+00
 Coeff-Com:  0.481D-04 0.174D-03-0.918D-02 0.181D-01-0.188D-01-0.209D-01
 Coeff-Com:  0.126D+00-0.150D-01-0.789D+00 0.222D+01-0.373D+01 0.322D+01
 Coeff:      0.481D-04 0.174D-03-0.918D-02 0.181D-01-0.188D-01-0.209D-01
 Coeff:      0.126D+00-0.150D-01-0.789D+00 0.222D+01-0.373D+01 0.322D+01
 Gap=     0.443 Goal=   None    Shift=    0.500
 Gap=     0.302 Goal=   None    Shift=    0.500
 RMSDP=2.85D-05 MaxDP=4.09D-04 DE=-4.45D-06 OVMax= 1.47D-03

 Cycle  13  Pass 1  IDiag  1:
 E= -193.473679745534     Delta-E=       -0.000001499636 Rises=F Damp=F
 DIIS: error= 1.13D-04 at cycle  13 NSaved=  13.
 NSaved=13 IEnMin=13 EnMin= -193.473679745534     IErMin=13 ErrMin= 1.13D-04
 ErrMax= 1.13D-04  0.00D+00 EMaxC= 1.00D+00 BMatC= 2.37D-07 BMatP= 7.13D-07
 IDIUse=1 WtCom= 1.00D+00 WtEn= 0.00D+00
 Coeff-Com:  0.745D-03-0.735D-02 0.351D-01-0.460D-01 0.157D-01 0.771D-01
 Coeff-Com: -0.136D+00-0.115D+00 0.801D+00-0.189D+01 0.312D+01-0.473D+01
 Coeff-Com:  0.387D+01
 Coeff:      0.745D-03-0.735D-02 0.351D-01-0.460D-01 0.157D-01 0.771D-01
 Coeff:     -0.136D+00-0.115D+00 0.801D+00-0.189D+01 0.312D+01-0.473D+01
 Coeff:      0.387D+01
 Gap=     0.443 Goal=   None    Shift=    0.500
 Gap=     0.302 Goal=   None    Shift=    0.500
 RMSDP=1.69D-05 MaxDP=2.43D-04 DE=-1.50D-06 OVMax= 8.78D-04

 Cycle  14  Pass 1  IDiag  1:
 E= -193.473680244454     Delta-E=       -0.000000498919 Rises=F Damp=F
 DIIS: error= 5.92D-05 at cycle  14 NSaved=  14.
 NSaved=14 IEnMin=14 EnMin= -193.473680244454     IErMin=14 ErrMin= 5.92D-05
 ErrMax= 5.92D-05  0.00D+00 EMaxC= 1.00D+00 BMatC= 7.76D-08 BMatP= 2.37D-07
 IDIUse=1 WtCom= 1.00D+00 WtEn= 0.00D+00
 Coeff-Com:  0.532D-03-0.763D-02 0.293D-01-0.315D-01-0.121D-01 0.675D-01
 Coeff-Com: -0.314D-01-0.970D-01 0.148D+00-0.286D-01-0.537D+00 0.172D+01
 Coeff-Com: -0.337D+01 0.316D+01
 Coeff:      0.532D-03-0.763D-02 0.293D-01-0.315D-01-0.121D-01 0.675D-01
 Coeff:     -0.314D-01-0.970D-01 0.148D+00-0.286D-01-0.537D+00 0.172D+01
 Coeff:     -0.337D+01 0.316D+01
 Gap=     0.443 Goal=   None    Shift=    0.500
 Gap=     0.302 Goal=   None    Shift=    0.500
 RMSDP=9.39D-06 MaxDP=1.35D-04 DE=-4.99D-07 OVMax= 4.94D-04

 Cycle  15  Pass 1  IDiag  1:
 E= -193.473680397824     Delta-E=       -0.000000153370 Rises=F Damp=F
 DIIS: error= 3.08D-05 at cycle  15 NSaved=  15.
 NSaved=15 IEnMin=15 EnMin= -193.473680397824     IErMin=15 ErrMin= 3.08D-05
 ErrMax= 3.08D-05  0.00D+00 EMaxC= 1.00D+00 BMatC= 2.40D-08 BMatP= 7.76D-08
 IDIUse=1 WtCom= 1.00D+00 WtEn= 0.00D+00
 Coeff-Com: -0.284D-03 0.345D-02-0.125D-01 0.132D-01 0.618D-02-0.292D-01
 Coeff-Com:  0.149D-01 0.383D-01-0.530D-01-0.106D-01 0.297D+00-0.113D+01
 Coeff-Com:  0.250D+01-0.421D+01 0.357D+01
 Coeff:     -0.284D-03 0.345D-02-0.125D-01 0.132D-01 0.618D-02-0.292D-01
 Coeff:      0.149D-01 0.383D-01-0.530D-01-0.106D-01 0.297D+00-0.113D+01
 Coeff:      0.250D+01-0.421D+01 0.357D+01
 Gap=     0.443 Goal=   None    Shift=    0.500
 Gap=     0.302 Goal=   None    Shift=    0.500
 RMSDP=4.98D-06 MaxDP=6.82D-05 DE=-1.53D-07 OVMax= 2.64D-04

 Cycle  16  Pass 1  IDiag  1:
 E= -193.473680441470     Delta-E=       -0.000000043646 Rises=F Damp=F
 DIIS: error= 1.56D-05 at cycle  16 NSaved=  16.
 NSaved=16 IEnMin=16 EnMin= -193.473680441470     IErMin=16 ErrMin= 1.56D-05
 ErrMax= 1.56D-05  0.00D+00 EMaxC= 1.00D+00 BMatC= 7.47D-09 BMatP= 2.40D-08
 IDIUse=1 WtCom= 1.00D+00 WtEn= 0.00D+00
 Coeff-Com:  0.150D-03-0.138D-02 0.597D-02-0.741D-02 0.126D-02 0.819D-02
 Coeff-Com: -0.505D-02-0.214D-01 0.688D-01-0.129D+00 0.130D+00 0.131D-02
 Coeff-Com: -0.479D+00 0.166D+01-0.360D+01 0.337D+01
 Coeff:      0.150D-03-0.138D-02 0.597D-02-0.741D-02 0.126D-02 0.819D-02
 Coeff:     -0.505D-02-0.214D-01 0.688D-01-0.129D+00 0.130D+00 0.131D-02
 Coeff:     -0.479D+00 0.166D+01-0.360D+01 0.337D+01
 Gap=     0.443 Goal=   None    Shift=    0.500
 Gap=     0.302 Goal=   None    Shift=    0.500
 RMSDP=2.56D-06 MaxDP=3.39D-05 DE=-4.36D-08 OVMax= 1.36D-04

 Cycle  17  Pass 1  IDiag  1:
 E= -193.473680453546     Delta-E=       -0.000000012076 Rises=F Damp=F
 DIIS: error= 7.94D-06 at cycle  17 NSaved=  17.
 NSaved=17 IEnMin=17 EnMin= -193.473680453546     IErMin=17 ErrMin= 7.94D-06
 ErrMax= 7.94D-06  0.00D+00 EMaxC= 1.00D+00 BMatC= 2.22D-09 BMatP= 7.47D-09
 IDIUse=1 WtCom= 1.00D+00 WtEn= 0.00D+00
 Coeff-Com: -0.955D-04 0.106D-02-0.439D-02 0.522D-02 0.152D-03-0.851D-02
 Coeff-Com:  0.788D-02 0.116D-01-0.389D-01 0.629D-01-0.416D-01-0.881D-01
 Coeff-Com:  0.416D+00-0.120D+01 0.264D+01-0.440D+01 0.364D+01
 Coeff:     -0.955D-04 0.106D-02-0.439D-02 0.522D-02 0.152D-03-0.851D-02
 Coeff:      0.788D-02 0.116D-01-0.389D-01 0.629D-01-0.416D-01-0.881D-01
 Coeff:      0.416D+00-0.120D+01 0.264D+01-0.440D+01 0.364D+01
 Gap=     0.443 Goal=   None    Shift=    0.500
 Gap=     0.302 Goal=   None    Shift=    0.500
 RMSDP=1.28D-06 MaxDP=1.67D-05 DE=-1.21D-08 OVMax= 6.84D-05

 Cycle  18  Pass 1  IDiag  1:
 E= -193.473680456826     Delta-E=       -0.000000003280 Rises=F Damp=F
 DIIS: error= 4.12D-06 at cycle  18 NSaved=  18.
 NSaved=18 IEnMin=18 EnMin= -193.473680456826     IErMin=18 ErrMin= 4.12D-06
 ErrMax= 4.12D-06  0.00D+00 EMaxC= 1.00D+00 BMatC= 6.47D-10 BMatP= 2.22D-09
 IDIUse=1 WtCom= 1.00D+00 WtEn= 0.00D+00
 Coeff-Com:  0.277D-04-0.254D-03 0.136D-02-0.187D-02 0.938D-03 0.440D-03
 Coeff-Com:  0.407D-04-0.528D-02 0.192D-01-0.410D-01 0.493D-01-0.212D-01
 Coeff-Com: -0.100D+00 0.497D+00-0.145D+01 0.278D+01-0.415D+01 0.341D+01
 Coeff:      0.277D-04-0.254D-03 0.136D-02-0.187D-02 0.938D-03 0.440D-03
 Coeff:      0.407D-04-0.528D-02 0.192D-01-0.410D-01 0.493D-01-0.212D-01
 Coeff:     -0.100D+00 0.497D+00-0.145D+01 0.278D+01-0.415D+01 0.341D+01
 Gap=     0.443 Goal=   None    Shift=    0.500
 Gap=     0.302 Goal=   None    Shift=    0.500
 RMSDP=6.36D-07 MaxDP=8.53D-06 DE=-3.28D-09 OVMax= 3.43D-05

 SCF Done:  E(ULC-wHPBE) =  -193.473680457     A.U. after   18 cycles
            NFock= 18  Conv=0.64D-06     -V/T= 2.0050
 <Sx>= 0.0000 <Sy>= 0.0000 <Sz>= 0.5000 <S**2>= 0.8112 S= 0.5301
 <L.S>= 0.000000000000E+00
 KE= 1.925084668660D+02 PE=-7.506147940901D+02 EE= 2.091887282387D+02
 Annihilation of the first spin contaminant:
 S**2 before annihilation     0.8112,   after     0.7521
 Leave Link  502 at Tue Feb 25 12:23:04 2020, MaxMem=  6710886400 cpu:              22.0 elap:               1.4
 (Enter /opt/ohpc/pub/libs/gaussian/g16-A.03/haswell/g16/l508.exe)
 QCSCF skips out because SCF is already converged.
 Leave Link  508 at Tue Feb 25 12:23:04 2020, MaxMem=  6710886400 cpu:               0.0 elap:               0.0
 (Enter /opt/ohpc/pub/libs/gaussian/g16-A.03/haswell/g16/l601.exe)
 Copying SCF densities to generalized density rwf, IOpCl= 1 IROHF=0.

 **********************************************************************

            Population analysis using the SCF density.

 **********************************************************************

 Orbital symmetries:
 Alpha Orbitals:
       Occupied  (B2) (A1) (A1) (B2) (A1) (A1) (A1) (B2) (A1) (B2)
                 (A1) (B2) (A1) (A1) (B1) (B2) (A2) (B1)
       Virtual   (B2) (A2) (B1) (A1) (A1) (B2) (A1) (B2) (A1) (A1)
                 (B2) (A1) (B2) (B1) (B2) (B1) (A2) (A1) (A1) (B2)
                 (A1) (A2) (B1) (B2) (B2) (A1) (A1) (B2) (A1) (B2)
                 (A1) (A1) (A1) (B2) (A1) (B2) (A1) (A1) (B2)
 Beta  Orbitals:
       Occupied  (B2) (A1) (B2) (A1) (A1) (A1) (A1) (B2) (A1) (B2)
                 (A1) (B2) (A1) (A1) (B2) (B1) (A2)
       Virtual   (B1) (B2) (A2) (A1) (B1) (A1) (B2) (A1) (B2) (A1)
                 (B2) (A1) (A1) (B2) (B2) (B1) (A2) (A1) (B1) (A1)
                 (B2) (A1) (A2) (B1) (B2) (B2) (A1) (A1) (B2) (A1)
                 (B2) (A1) (A1) (A1) (B2) (A1) (B2) (A1) (A1) (B2)
 The electronic state is 2-B1.
 Alpha  occ. eigenvalues --  -10.39767 -10.39764 -10.34631 -10.33804 -10.33803
 Alpha  occ. eigenvalues --   -1.26720  -1.13565  -1.09125  -0.94836  -0.92679
 Alpha  occ. eigenvalues --   -0.87933  -0.78038  -0.75345  -0.74331  -0.73858
 Alpha  occ. eigenvalues --   -0.72098  -0.58791  -0.57276
 Alpha virt. eigenvalues --   -0.12979  -0.12692  -0.05501  -0.04714   0.00423
 Alpha virt. eigenvalues --    0.05206   0.07178   0.09525   0.09708   0.20869
 Alpha virt. eigenvalues --    0.20921   0.31010   0.32349   0.40217   0.40902
 Alpha virt. eigenvalues --    0.48014   0.48543   0.49017   0.51777   0.52612
 Alpha virt. eigenvalues --    0.52647   0.55891   0.57430   0.65420   0.71917
 Alpha virt. eigenvalues --    0.74162   0.75697   0.77960   0.78173   0.84510
 Alpha virt. eigenvalues --    0.84538   0.88902   0.92915   0.99215   1.07439
 Alpha virt. eigenvalues --    1.08401   1.13754   1.35711   1.37160
  Beta  occ. eigenvalues --  -10.39182 -10.39177 -10.34109 -10.34108 -10.33711
  Beta  occ. eigenvalues --   -1.25495  -1.11587  -1.08880  -0.93796  -0.91936
  Beta  occ. eigenvalues --   -0.87666  -0.77738  -0.75059  -0.73772  -0.71955
  Beta  occ. eigenvalues --   -0.69146  -0.57427
  Beta virt. eigenvalues --   -0.27177  -0.11550  -0.09569  -0.04483  -0.02039
  Beta virt. eigenvalues --    0.00830   0.05476   0.07416   0.09468   0.10255
  Beta virt. eigenvalues --    0.21248   0.21366   0.31403   0.32720   0.41288
  Beta virt. eigenvalues --    0.42440   0.49532   0.49536   0.50746   0.52152
  Beta virt. eigenvalues --    0.53030   0.53784   0.56423   0.58892   0.65976
  Beta virt. eigenvalues --    0.72405   0.75076   0.76270   0.77828   0.78692
  Beta virt. eigenvalues --    0.84815   0.84948   0.89922   0.93537   0.99221
  Beta virt. eigenvalues --    1.07917   1.08904   1.14774   1.36543   1.37945
          Condensed to atoms (all electrons):
               1          2          3          4          5          6
     1  C    5.354348   0.498988  -0.041457  -0.129184   0.182815   0.166462
     2  C    0.498988   4.961468   0.459025  -0.023270  -0.129184  -0.024949
     3  C   -0.041457   0.459025   4.870299   0.459025  -0.041457   0.008227
     4  C   -0.129184  -0.023270   0.459025   4.961468   0.498988  -0.024949
     5  C    0.182815  -0.129184  -0.041457   0.498988   5.354348   0.166462
     6  H    0.166462  -0.024949   0.008227  -0.024949   0.166462   0.357354
     7  H    0.337846   0.004828  -0.000322   0.003208  -0.015263  -0.009288
     8  H   -0.023248   0.362030  -0.011568   0.003981   0.000822   0.000404
     9  H    0.005153  -0.027206   0.366833  -0.027206   0.005153  -0.000033
    10  H    0.000822   0.003981  -0.011568   0.362030  -0.023248   0.000404
    11  H   -0.015263   0.003208  -0.000322   0.004828   0.337846  -0.009288
               7          8          9         10         11
     1  C    0.337846  -0.023248   0.005153   0.000822  -0.015263
     2  C    0.004828   0.362030  -0.027206   0.003981   0.003208
     3  C   -0.000322  -0.011568   0.366833  -0.011568  -0.000322
     4  C    0.003208   0.003981  -0.027206   0.362030   0.004828
     5  C   -0.015263   0.000822   0.005153  -0.023248   0.337846
     6  H   -0.009288   0.000404  -0.000033   0.000404  -0.009288
     7  H    0.338569   0.000074  -0.000052  -0.000016   0.000362
     8  H    0.000074   0.379001  -0.001372  -0.000085  -0.000016
     9  H   -0.000052  -0.001372   0.400289  -0.001372  -0.000052
    10  H   -0.000016  -0.000085  -0.001372   0.379001   0.000074
    11  H    0.000362  -0.000016  -0.000052   0.000074   0.338569
          Atomic-Atomic Spin Densities.
               1          2          3          4          5          6
     1  C    0.509520  -0.040298  -0.023833  -0.009058   0.025521  -0.003919
     2  C   -0.040298  -0.259220   0.028970   0.000508  -0.009058   0.000312
     3  C   -0.023833   0.028970   0.716710   0.028970  -0.023833   0.000202
     4  C   -0.009058   0.000508   0.028970  -0.259220  -0.040298   0.000312
     5  C    0.025521  -0.009058  -0.023833  -0.040298   0.509520  -0.003919
     6  H   -0.003919   0.000312   0.000202   0.000312  -0.003919  -0.014893
     7  H   -0.002931  -0.000518   0.000104  -0.000097   0.000227  -0.000261
     8  H   -0.000269   0.001861  -0.000961  -0.000137   0.000070   0.000025
     9  H   -0.000034  -0.000039  -0.001291  -0.000039  -0.000034  -0.000002
    10  H    0.000070  -0.000137  -0.000961   0.001861  -0.000269   0.000025
    11  H    0.000227  -0.000097   0.000104  -0.000518  -0.002931  -0.000261
               7          8          9         10         11
     1  C   -0.002931  -0.000269  -0.000034   0.000070   0.000227
     2  C   -0.000518   0.001861  -0.000039  -0.000137  -0.000097
     3  C    0.000104  -0.000961  -0.001291  -0.000961   0.000104
     4  C   -0.000097  -0.000137  -0.000039   0.001861  -0.000518
     5  C    0.000227   0.000070  -0.000034  -0.000269  -0.002931
     6  H   -0.000261   0.000025  -0.000002   0.000025  -0.000261
     7  H   -0.017898   0.000051   0.000004  -0.000000  -0.000068
     8  H    0.000051   0.006981   0.000018  -0.000000  -0.000000
     9  H    0.000004   0.000018  -0.027473   0.000018   0.000004
    10  H   -0.000000  -0.000000   0.000018   0.006981   0.000051
    11  H   -0.000068  -0.000000   0.000004   0.000051  -0.017898
 Mulliken charges and spin densities:
               1          2
     1  C   -0.337282   0.454996
     2  C   -0.088919  -0.277715
     3  C   -0.056715   0.724180
     4  C   -0.088919  -0.277715
     5  C   -0.337282   0.454996
     6  H    0.369194  -0.022377
     7  H    0.340053  -0.021387
     8  H    0.289977   0.007639
     9  H    0.279864  -0.028868
    10  H    0.289977   0.007639
    11  H    0.340053  -0.021387
 Sum of Mulliken charges =   1.00000   1.00000
 Mulliken charges and spin densities with hydrogens summed into heavy atoms:
               1          2
     1  C    0.371965   0.411232
     2  C    0.201058  -0.270076
     3  C    0.223149   0.695311
     4  C    0.201058  -0.270076
     5  C    0.002770   0.433609
 Electronic spatial extent (au):  <R**2>=            321.3739
 Charge=              1.0000 electrons
 Dipole moment (field-independent basis, Debye):
    X=             -0.0000    Y=              0.0000    Z=             -2.0171  Tot=              2.0171
 Quadrupole moment (field-independent basis, Debye-Ang):
   XX=            -31.5050   YY=            -17.4388   ZZ=            -13.2672
   XY=              0.0000   XZ=              0.0000   YZ=              0.0000
 Traceless Quadrupole moment (field-independent basis, Debye-Ang):
   XX=            -10.7680   YY=              3.2982   ZZ=              7.4698
   XY=              0.0000   XZ=              0.0000   YZ=              0.0000
 Octapole moment (field-independent basis, Debye-Ang**2):
  XXX=              0.0000  YYY=             -0.0000  ZZZ=             -7.4764  XYY=             -0.0000
  XXY=             -0.0000  XXZ=              0.6994  XZZ=              0.0000  YZZ=             -0.0000
  YYZ=             -2.8328  XYZ=             -0.0000
 Hexadecapole moment (field-independent basis, Debye-Ang**3):
 XXXX=            -31.6305 YYYY=           -147.0470 ZZZZ=           -126.5167 XXXY=             -0.0000
 XXXZ=             -0.0000 YYYX=             -0.0000 YYYZ=              0.0000 ZZZX=              0.0000
 ZZZY=             -0.0000 XXYY=            -43.0303 XXZZ=            -39.1966 YYZZ=            -42.7895
 XXYZ=              0.0000 YYXZ=             -0.0000 ZZXY=             -0.0000
 N-N= 1.554439185285D+02 E-N=-7.506147995515D+02  KE= 1.925084668660D+02
 Symmetry A1   KE= 1.112890071146D+02
 Symmetry A2   KE= 2.503098589893D+00
 Symmetry B1   KE= 3.218922698385D+00
 Symmetry B2   KE= 7.549743846312D+01
 Symmetry A1   SP= 6.282293031835D-15
 Symmetry A2   SP=-6.307548776919D-16
 Symmetry B1   SP= 1.000000000000D+00
 Symmetry B2   SP=-1.988549717808D-14
                          Isotropic Fermi Contact Couplings
        Atom                 a.u.       MegaHertz       Gauss      10(-4) cm-1
     1  C(13)              0.06814      76.60496      27.33455      25.55266
     2  C(13)             -0.04783     -53.76858     -19.18596     -17.93527
     3  C(13)              0.10031     112.77018      40.23920      37.61608
     4  C(13)             -0.04783     -53.76858     -19.18596     -17.93527
     5  C(13)              0.06814      76.60496      27.33455      25.55266
     6  H(1)              -0.00826     -36.90057     -13.16704     -12.30870
     7  H(1)              -0.00879     -39.27977     -14.01600     -13.10232
     8  H(1)               0.00293      13.11384       4.67934       4.37431
     9  H(1)              -0.01240     -55.43393     -19.78020     -18.49077
    10  H(1)               0.00293      13.11384       4.67934       4.37431
    11  H(1)              -0.00879     -39.27977     -14.01600     -13.10232
 --------------------------------------------------------
       Center         ----  Spin Dipole Couplings  ----
                      3XX-RR        3YY-RR        3ZZ-RR
 --------------------------------------------------------
     1   Atom        0.465314     -0.226365     -0.238949
     2   Atom       -0.185371      0.090692      0.094679
     3   Atom        0.684696     -0.350107     -0.334589
     4   Atom       -0.185371      0.090692      0.094679
     5   Atom        0.465314     -0.226365     -0.238949
     6   Atom       -0.006948      0.008816     -0.001867
     7   Atom       -0.005995      0.005861      0.000134
     8   Atom       -0.006395     -0.000475      0.006869
     9   Atom       -0.007747     -0.044972      0.052720
    10   Atom       -0.006395     -0.000475      0.006869
    11   Atom       -0.005995      0.005861      0.000134
 --------------------------------------------------------
                        XY            XZ            YZ
 --------------------------------------------------------
     1   Atom       -0.000000      0.000000     -0.008398
     2   Atom       -0.000000      0.000000     -0.006325
     3   Atom       -0.000000     -0.000000     -0.000000
     4   Atom       -0.000000     -0.000000      0.006325
     5   Atom        0.000000      0.000000      0.008398
     6   Atom       -0.000000      0.000000     -0.000000
     7   Atom        0.000000      0.000000     -0.034091
     8   Atom       -0.000000      0.000000     -0.005974
     9   Atom       -0.000000     -0.000000     -0.000000
    10   Atom        0.000000     -0.000000      0.005974
    11   Atom       -0.000000     -0.000000      0.034091
 --------------------------------------------------------


 ---------------------------------------------------------------------------------
              Anisotropic Spin Dipole Couplings in Principal Axis System
 ---------------------------------------------------------------------------------

       Atom             a.u.   MegaHertz   Gauss  10(-4) cm-1        Axes

              Baa    -0.2432   -32.629   -11.643   -10.884 -0.0000  0.4474  0.8943
     1 C(13)  Bbb    -0.2222   -29.812   -10.638    -9.944 -0.0000  0.8943 -0.4474
              Bcc     0.4653    62.441    22.280    20.828  1.0000  0.0000  0.0000
 
              Baa    -0.1854   -24.875    -8.876    -8.297  1.0000  0.0000  0.0000
     2 C(13)  Bbb     0.0861    11.548     4.120     3.852 -0.0000  0.8064  0.5914
              Bcc     0.0993    13.327     4.756     4.446  0.0000 -0.5914  0.8064
 
              Baa    -0.3501   -46.981   -16.764   -15.671  0.0000  1.0000 -0.0000
     3 C(13)  Bbb    -0.3346   -44.899   -16.021   -14.977  0.0000  0.0000  1.0000
              Bcc     0.6847    91.880    32.785    30.648  1.0000 -0.0000 -0.0000
 
              Baa    -0.1854   -24.875    -8.876    -8.297  1.0000  0.0000  0.0000
     4 C(13)  Bbb     0.0861    11.548     4.120     3.852 -0.0000  0.8064 -0.5914
              Bcc     0.0993    13.327     4.756     4.446 -0.0000  0.5914  0.8064
 
              Baa    -0.2432   -32.629   -11.643   -10.884 -0.0000 -0.4474  0.8943
     5 C(13)  Bbb    -0.2222   -29.812   -10.638    -9.944  0.0000  0.8943  0.4474
              Bcc     0.4653    62.441    22.280    20.828  1.0000 -0.0000  0.0000
 
              Baa    -0.0069    -3.707    -1.323    -1.237  1.0000  0.0000 -0.0000
     6 H(1)   Bbb    -0.0019    -0.996    -0.355    -0.332  0.0000  0.0000  1.0000
              Bcc     0.0088     4.704     1.678     1.569 -0.0000  1.0000 -0.0000
 
              Baa    -0.0312   -16.654    -5.943    -5.555 -0.0000  0.6769  0.7361
     7 H(1)   Bbb    -0.0060    -3.199    -1.141    -1.067  1.0000  0.0000  0.0000
              Bcc     0.0372    19.853     7.084     6.622 -0.0000  0.7361 -0.6769
 
              Baa    -0.0064    -3.412    -1.217    -1.138  1.0000  0.0000  0.0000
     8 H(1)   Bbb    -0.0038    -2.035    -0.726    -0.679 -0.0000  0.8728  0.4880
              Bcc     0.0102     5.447     1.944     1.817  0.0000 -0.4880  0.8728
 
              Baa    -0.0450   -23.995    -8.562    -8.004 -0.0000  1.0000 -0.0000
     9 H(1)   Bbb    -0.0077    -4.134    -1.475    -1.379  1.0000  0.0000 -0.0000
              Bcc     0.0527    28.129    10.037     9.383  0.0000  0.0000  1.0000
 
              Baa    -0.0064    -3.412    -1.217    -1.138  1.0000 -0.0000  0.0000
    10 H(1)   Bbb    -0.0038    -2.035    -0.726    -0.679  0.0000  0.8728 -0.4880
              Bcc     0.0102     5.447     1.944     1.817  0.0000  0.4880  0.8728
 
              Baa    -0.0312   -16.654    -5.943    -5.555  0.0000 -0.6769  0.7361
    11 H(1)   Bbb    -0.0060    -3.199    -1.141    -1.067  1.0000  0.0000  0.0000
              Bcc     0.0372    19.853     7.084     6.622 -0.0000  0.7361  0.6769
 

 ---------------------------------------------------------------------------------

 No NMR shielding tensors so no spin-rotation constants.
 Leave Link  601 at Tue Feb 25 12:23:04 2020, MaxMem=  6710886400 cpu:               5.0 elap:               0.3
 (Enter /opt/ohpc/pub/libs/gaussian/g16-A.03/haswell/g16/l9999.exe)

 Test job not archived.
 1\1\GINC-HASWELL008\SP\ULC-wHPBE\6-31G\C5H6(1+,2)\SMGO234\25-Feb-2020\
 0\\#P uLC-wHPBE/6-31G iop(3/107=0361400000, 3/108=0361400000) scf=(con
 ver=6,fermi,ndamp=35,noincfock,novaracc,vshift=500,xqc)\\H6 C5\\1,2\C,
 0,0.,0.895213,-0.933453\C,0,0.,1.131613,0.424372\C,0,0.,0.,1.240919\C,
 0,0.,-1.131613,0.424372\C,0,0.,-0.895213,-0.933453\H,0,0.,0.,-1.720797
 \H,0,0.,1.620085,-1.742217\H,0,0.,2.160007,0.773055\H,0,0.,0.,2.322589
 \H,0,0.,-2.160007,0.773055\H,0,0.,-1.620085,-1.742217\\Version=ES64L-G
 16RevA.03\State=2-B1\HF=-193.4736805\S2=0.811182\S2-1=0.\S2A=0.75213\R
 MSD=6.358e-07\Dipole=0.,0.,-0.793582\Quadrupole=-8.005753,2.4521082,5.
 5536447,0.,0.,0.\PG=C02V [C2(H1C1H1),SGV(C4H4)]\\@


 EDUCATION DOESN'T COST 
           ... IT PAYS!

 -- POSTMARK, UNIV. OF MISSISSIPPI, DEC 78
 Job cpu time:       0 days  0 hours  0 minutes 48.5 seconds.
 Elapsed time:       0 days  0 hours  0 minutes  3.3 seconds.
 File lengths (MBytes):  RWF=    272 Int=      0 D2E=      0 Chk=     32 Scr=     32
 Normal termination of Gaussian 16 at Tue Feb 25 12:23:04 2020.
