 Entering Gaussian System, Link 0=g16
 Input=1b_tune_c10.gjf
 Output=1b_tune_c10.log
 Initial command:
 /opt/ohpc/pub/libs/gaussian/g16-A.03/haswell/g16/l1.exe "/scratch/smgo234/Ocelot/test/1b/tuning_1b_ocycle2/Gau-46333.inp" -scrdir="/scratch/smgo234/Ocelot/test/1b/tuning_1b_ocycle2/"
 Entering Link 1 = /opt/ohpc/pub/libs/gaussian/g16-A.03/haswell/g16/l1.exe PID=     46334.
  
 Copyright (c) 1988,1990,1992,1993,1995,1998,2003,2009,2016,
            Gaussian, Inc.  All Rights Reserved.
  
 This is part of the Gaussian(R) 16 program.  It is based on
 the Gaussian(R) 09 system (copyright 2009, Gaussian, Inc.),
 the Gaussian(R) 03 system (copyright 2003, Gaussian, Inc.),
 the Gaussian(R) 98 system (copyright 1998, Gaussian, Inc.),
 the Gaussian(R) 94 system (copyright 1995, Gaussian, Inc.),
 the Gaussian 92(TM) system (copyright 1992, Gaussian, Inc.),
 the Gaussian 90(TM) system (copyright 1990, Gaussian, Inc.),
 the Gaussian 88(TM) system (copyright 1988, Gaussian, Inc.),
 the Gaussian 86(TM) system (copyright 1986, Carnegie Mellon
 University), and the Gaussian 82(TM) system (copyright 1983,
 Carnegie Mellon University). Gaussian is a federally registered
 trademark of Gaussian, Inc.
  
 This software contains proprietary and confidential information,
 including trade secrets, belonging to Gaussian, Inc.
  
 This software is provided under written license and may be
 used, copied, transmitted, or stored only in accord with that
 written license.
  
 The following legend is applicable only to US Government
 contracts under FAR:
  
                    RESTRICTED RIGHTS LEGEND
  
 Use, reproduction and disclosure by the US Government is
 subject to restrictions as set forth in subparagraphs (a)
 and (c) of the Commercial Computer Software - Restricted
 Rights clause in FAR 52.227-19.
  
 Gaussian, Inc.
 340 Quinnipiac St., Bldg. 40, Wallingford CT 06492
  
  
 ---------------------------------------------------------------
 Warning -- This program may not be used in any manner that
 competes with the business of Gaussian, Inc. or will provide
 assistance to any competitor of Gaussian, Inc.  The licensee
 of this program is prohibited from giving any competitor of
 Gaussian, Inc. access to this program.  By using this program,
 the user acknowledges that Gaussian, Inc. is engaged in the
 business of creating and licensing software in the field of
 computational chemistry and represents and warrants to the
 licensee that it is not a competitor of Gaussian, Inc. and that
 it will not use this program in any manner prohibited above.
 ---------------------------------------------------------------
  

 Cite this work as:
 Gaussian 16, Revision A.03,
 M. J. Frisch, G. W. Trucks, H. B. Schlegel, G. E. Scuseria, 
 M. A. Robb, J. R. Cheeseman, G. Scalmani, V. Barone, 
 G. A. Petersson, H. Nakatsuji, X. Li, M. Caricato, A. V. Marenich, 
 J. Bloino, B. G. Janesko, R. Gomperts, B. Mennucci, H. P. Hratchian, 
 J. V. Ortiz, A. F. Izmaylov, J. L. Sonnenberg, D. Williams-Young, 
 F. Ding, F. Lipparini, F. Egidi, J. Goings, B. Peng, A. Petrone, 
 T. Henderson, D. Ranasinghe, V. G. Zakrzewski, J. Gao, N. Rega, 
 G. Zheng, W. Liang, M. Hada, M. Ehara, K. Toyota, R. Fukuda, 
 J. Hasegawa, M. Ishida, T. Nakajima, Y. Honda, O. Kitao, H. Nakai, 
 T. Vreven, K. Throssell, J. A. Montgomery, Jr., J. E. Peralta, 
 F. Ogliaro, M. J. Bearpark, J. J. Heyd, E. N. Brothers, K. N. Kudin, 
 V. N. Staroverov, T. A. Keith, R. Kobayashi, J. Normand, 
 K. Raghavachari, A. P. Rendell, J. C. Burant, S. S. Iyengar, 
 J. Tomasi, M. Cossi, J. M. Millam, M. Klene, C. Adamo, R. Cammi, 
 J. W. Ochterski, R. L. Martin, K. Morokuma, O. Farkas, 
 J. B. Foresman, and D. J. Fox, Gaussian, Inc., Wallingford CT, 2016.
 
 ******************************************
 Gaussian 16:  ES64L-G16RevA.03 25-Dec-2016
                25-Feb-2020 
 ******************************************
 %mem=50GB
 %nproc=16
 Will use up to   16 processors via shared memory.
 ----------------------------------------------------------------------
 #P uLC-wHPBE/6-31G iop(3/107=0314400000, 3/108=0314400000) scf=(conver
 =6,fermi,ndamp=35,noincfock,novaracc,vshift=500,xqc)
 ----------------------------------------------------------------------
 1/38=1,172=1/1;
 2/12=2,17=6,18=5,40=1/2;
 3/5=1,6=6,11=2,25=1,30=1,74=-71,107=314400000,108=314400000,116=2/1,2,3;
 4//1;
 5/5=100002,6=6,8=3,10=500,13=1,18=-1,22=13,38=1,93=35/2,8;
 6/7=2,8=2,9=2,10=2,28=1/1;
 99/5=1,9=1/99;
 Leave Link    1 at Tue Feb 25 12:24:04 2020, MaxMem=  6710886400 cpu:               9.6 elap:               0.6
 (Enter /opt/ohpc/pub/libs/gaussian/g16-A.03/haswell/g16/l101.exe)
 -----
 H6 C5
 -----
 Symbolic Z-matrix:
 Charge =  1 Multiplicity = 2
 C                     0.        0.89521  -0.93345 
 C                     0.        1.13161   0.42437 
 C                     0.        0.        1.24092 
 C                     0.       -1.13161   0.42437 
 C                     0.       -0.89521  -0.93345 
 H                     0.        0.       -1.7208 
 H                     0.        1.62009  -1.74222 
 H                     0.        2.16001   0.77306 
 H                     0.        0.        2.32259 
 H                     0.       -2.16001   0.77306 
 H                     0.       -1.62009  -1.74222 
 
 ITRead=  0  0  0  0  0  0  0  0  0  0  0
 MicOpt= -1 -1 -1 -1 -1 -1 -1 -1 -1 -1 -1
 NAtoms=     11 NQM=       11 NQMF=       0 NMMI=      0 NMMIF=      0
                NMic=       0 NMicF=      0.
                    Isotopes and Nuclear Properties:
 (Nuclear quadrupole moments (NQMom) in fm**2, nuclear magnetic moments (NMagM)
  in nuclear magnetons)

  Atom         1           2           3           4           5           6           7           8           9          10
 IAtWgt=          12          12          12          12          12           1           1           1           1           1
 AtmWgt=  12.0000000  12.0000000  12.0000000  12.0000000  12.0000000   1.0078250   1.0078250   1.0078250   1.0078250   1.0078250
 NucSpn=           0           0           0           0           0           1           1           1           1           1
 AtZEff=  -0.0000000  -0.0000000  -0.0000000  -0.0000000  -0.0000000  -0.0000000  -0.0000000  -0.0000000  -0.0000000  -0.0000000
 NQMom=    0.0000000   0.0000000   0.0000000   0.0000000   0.0000000   0.0000000   0.0000000   0.0000000   0.0000000   0.0000000
 NMagM=    0.0000000   0.0000000   0.0000000   0.0000000   0.0000000   2.7928460   2.7928460   2.7928460   2.7928460   2.7928460
 AtZNuc=   6.0000000   6.0000000   6.0000000   6.0000000   6.0000000   1.0000000   1.0000000   1.0000000   1.0000000   1.0000000

  Atom        11
 IAtWgt=           1
 AtmWgt=   1.0078250
 NucSpn=           1
 AtZEff=  -0.0000000
 NQMom=    0.0000000
 NMagM=    2.7928460
 AtZNuc=   1.0000000
 Leave Link  101 at Tue Feb 25 12:24:05 2020, MaxMem=  6710886400 cpu:               2.4 elap:               0.2
 (Enter /opt/ohpc/pub/libs/gaussian/g16-A.03/haswell/g16/l202.exe)
                          Input orientation:                          
 ---------------------------------------------------------------------
 Center     Atomic      Atomic             Coordinates (Angstroms)
 Number     Number       Type             X           Y           Z
 ---------------------------------------------------------------------
      1          6           0        0.000000    0.895213   -0.933453
      2          6           0        0.000000    1.131613    0.424372
      3          6           0        0.000000    0.000000    1.240919
      4          6           0        0.000000   -1.131613    0.424372
      5          6           0        0.000000   -0.895213   -0.933453
      6          1           0        0.000000    0.000000   -1.720797
      7          1           0        0.000000    1.620085   -1.742217
      8          1           0        0.000000    2.160007    0.773055
      9          1           0        0.000000    0.000000    2.322589
     10          1           0        0.000000   -2.160007    0.773055
     11          1           0        0.000000   -1.620085   -1.742217
 ---------------------------------------------------------------------
                    Distance matrix (angstroms):
                    1          2          3          4          5
     1  C    0.000000
     2  C    1.378250   0.000000
     3  C    2.351446   1.395456   0.000000
     4  C    2.439613   2.263226   1.395456   0.000000
     5  C    1.790426   2.439613   2.351446   1.378250   0.000000
     6  H    1.192190   2.425345   2.961716   2.425345   1.192190
     7  H    1.086066   2.220971   3.394669   3.502278   2.642125
     8  H    2.124117   1.085898   2.210097   3.310037   3.499506
     9  H    3.376865   2.209927   1.081670   2.209927   3.376865
    10  H    3.499506   3.310037   2.210097   1.085898   2.124117
    11  H    2.642125   3.502278   3.394669   2.220971   1.086066
                    6          7          8          9         10
     6  H    0.000000
     7  H    1.620227   0.000000
     8  H    3.299231   2.572569   0.000000
     9  H    4.043386   4.375765   2.658324   0.000000
    10  H    3.299231   4.540450   4.320014   2.658324   0.000000
    11  H    1.620227   3.240170   4.540450   4.375765   2.572569
                   11
    11  H    0.000000
 Stoichiometry    C5H6(1+,2)
 Framework group  C2V[C2(HCH),SGV(C4H4)]
 Deg. of freedom    10
 Full point group                 C2V     NOp   4
 Largest Abelian subgroup         C2V     NOp   4
 Largest concise Abelian subgroup C2      NOp   2
                         Standard orientation:                         
 ---------------------------------------------------------------------
 Center     Atomic      Atomic             Coordinates (Angstroms)
 Number     Number       Type             X           Y           Z
 ---------------------------------------------------------------------
      1          6           0        0.000000    0.895213   -0.933453
      2          6           0        0.000000    1.131613    0.424372
      3          6           0        0.000000   -0.000000    1.240919
      4          6           0       -0.000000   -1.131613    0.424372
      5          6           0       -0.000000   -0.895213   -0.933453
      6          1           0       -0.000000    0.000000   -1.720797
      7          1           0        0.000000    1.620085   -1.742217
      8          1           0        0.000000    2.160007    0.773055
      9          1           0        0.000000   -0.000000    2.322589
     10          1           0       -0.000000   -2.160007    0.773055
     11          1           0       -0.000000   -1.620085   -1.742217
 ---------------------------------------------------------------------
 Rotational constants (GHZ):           8.5037938           7.8157507           4.0726340
 Leave Link  202 at Tue Feb 25 12:24:05 2020, MaxMem=  6710886400 cpu:               0.2 elap:               0.0
 (Enter /opt/ohpc/pub/libs/gaussian/g16-A.03/haswell/g16/l301.exe)
 Standard basis: 6-31G (6D, 7F)
 Ernie: Thresh=  0.10000D-02 Tol=  0.10000D-05 Strict=F.
 There are    27 symmetry adapted cartesian basis functions of A1  symmetry.
 There are     4 symmetry adapted cartesian basis functions of A2  symmetry.
 There are     6 symmetry adapted cartesian basis functions of B1  symmetry.
 There are    20 symmetry adapted cartesian basis functions of B2  symmetry.
 There are    27 symmetry adapted basis functions of A1  symmetry.
 There are     4 symmetry adapted basis functions of A2  symmetry.
 There are     6 symmetry adapted basis functions of B1  symmetry.
 There are    20 symmetry adapted basis functions of B2  symmetry.
    57 basis functions,   134 primitive gaussians,    57 cartesian basis functions
    18 alpha electrons       17 beta electrons
       nuclear repulsion energy       155.4439185285 Hartrees.
 IExCor=33909 DFT=T Ex+Corr=LC-wHPBE ExCW=0 ScaHFX=  1.000000
 ScaDFX=  1.000000  1.000000  1.000000  1.000000 ScalE2=  1.000000  1.000000
 IRadAn=      5 IRanWt=     -1 IRanGd=            0 ICorTp=0 IEmpDi=  4
 HFx  wShort=  0.000000 wLong=  0.314400 cFull=  0.000000 cShort=  0.000000 cLong=  1.000000
 DFx  wShort=  0.000000 wLong=  0.314400 cFull=  0.000000 cShort=  1.000000 cLong=  0.000000
 NAtoms=   11 NActive=   11 NUniq=    7 SFac= 2.47D+00 NAtFMM=   60 NAOKFM=F Big=F
 Integral buffers will be    131072 words long.
 Raffenetti 2 integral format.
 Two-electron integral symmetry is turned on.
 Leave Link  301 at Tue Feb 25 12:24:05 2020, MaxMem=  6710886400 cpu:               0.8 elap:               0.1
 (Enter /opt/ohpc/pub/libs/gaussian/g16-A.03/haswell/g16/l302.exe)
 NPDir=0 NMtPBC=     1 NCelOv=     1 NCel=       1 NClECP=     1 NCelD=      1
         NCelK=      1 NCelE2=     1 NClLst=     1 CellRange=     0.0.
 One-electron integrals computed using PRISM.
 One-electron integral symmetry used in STVInt
 NBasis=    57 RedAO= T EigKep=  1.90D-03  NBF=    27     4     6    20
 NBsUse=    57 1.00D-06 EigRej= -1.00D+00 NBFU=    27     4     6    20
 Precomputing XC quadrature grid using
 IXCGrd= 4 IRadAn=           5 IRanWt=          -1 IRanGd=           0 AccXCQ= 0.00D+00.
 Generated NRdTot=       0 NPtTot=           0 NUsed=           0 NTot=          32
 NSgBfM=    57    57    57    57    57 MxSgAt=    11 MxSgA2=    11.
 Leave Link  302 at Tue Feb 25 12:24:05 2020, MaxMem=  6710886400 cpu:               3.1 elap:               0.2
 (Enter /opt/ohpc/pub/libs/gaussian/g16-A.03/haswell/g16/l303.exe)
 DipDrv:  MaxL=1.
 Leave Link  303 at Tue Feb 25 12:24:05 2020, MaxMem=  6710886400 cpu:               0.4 elap:               0.0
 (Enter /opt/ohpc/pub/libs/gaussian/g16-A.03/haswell/g16/l401.exe)
 ExpMin= 1.61D-01 ExpMax= 3.05D+03 ExpMxC= 4.57D+02 IAcc=3 IRadAn=         5 AccDes= 0.00D+00
 Harris functional with IExCor=33909 and IRadAn=       5 diagonalized for initial guess.
 HarFok:  IExCor=33909 AccDes= 0.00D+00 IRadAn=         5 IDoV= 1 UseB2=F ITyADJ=14
 ICtDFT=  3500011 ScaDFX=  1.000000  1.000000  1.000000  1.000000
 FoFCou: FMM=F IPFlag=           0 FMFlag=      100000 FMFlg1=           0
         NFxFlg=           0 DoJE=T BraDBF=F KetDBF=T FulRan=T
         wScrn=  0.000000 ICntrl=       500 IOpCl=  0 I1Cent=   200000004 NGrid=           0
         NMat0=    1 NMatS0=      1 NMatT0=    0 NMatD0=    1 NMtDS0=    0 NMtDT0=    0
 Petite list used in FoFCou.
 Harris En= -187.894837763472    
 JPrj=0 DoOrth=F DoCkMO=F.
 Initial guess orbital symmetries:
 Alpha Orbitals:
       Occupied  (A1) (B2) (A1) (B2) (A1) (A1) (B2) (A1) (A1) (B2)
                 (A1) (B2) (A1) (B2) (A1) (B1) (A2) (B1)
       Virtual   (A2) (B2) (B1) (A1) (A1) (B2) (A1) (B2) (A1) (B2)
                 (A1) (A1) (B2) (B2) (B1) (A1) (A2) (B1) (B2) (A1)
                 (A1) (A2) (B1) (B2) (B2) (A1) (B2) (A1) (A1) (B2)
                 (A1) (A1) (A1) (B2) (A1) (B2) (A1) (A1) (B2)
 Beta  Orbitals:
       Occupied  (A1) (B2) (A1) (B2) (A1) (A1) (B2) (A1) (A1) (B2)
                 (A1) (B2) (A1) (B2) (A1) (B1) (A2)
       Virtual   (B1) (A2) (B2) (B1) (A1) (A1) (B2) (A1) (B2) (A1)
                 (B2) (A1) (A1) (B2) (B2) (B1) (A1) (A2) (B1) (B2)
                 (A1) (A1) (A2) (B1) (B2) (B2) (A1) (B2) (A1) (A1)
                 (B2) (A1) (A1) (A1) (B2) (A1) (B2) (A1) (A1) (B2)
 The electronic state of the initial guess is 2-B1.
 Initial guess <Sx>= 0.0000 <Sy>= 0.0000 <Sz>= 0.5000 <S**2>= 0.7500 S= 0.5000
 Leave Link  401 at Tue Feb 25 12:24:05 2020, MaxMem=  6710886400 cpu:               4.4 elap:               0.3
 (Enter /opt/ohpc/pub/libs/gaussian/g16-A.03/haswell/g16/l502.exe)
 Keep R1 and R2 ints in memory in symmetry-blocked form, NReq=16815681.
 FoFCou: FMM=F IPFlag=           0 FMFlag=           0 FMFlg1=           0
         NFxFlg=           0 DoJE=F BraDBF=F KetDBF=F FulRan=T
         wScrn=  0.000000 ICntrl=       600 IOpCl=  0 I1Cent=           0 NGrid=           0
         NMat0=    1 NMatS0=   1653 NMatT0=    0 NMatD0=    1 NMtDS0=    0 NMtDT0=    0
 Petite list used in FoFCou.
 UHF open shell SCF:
 Using DIIS extrapolation, IDIIS=    10.
 NGot=  6710886400 LenX=  6710059561 LenY=  6710055871
 Requested convergence on RMS density matrix=1.00D-06 within  32 cycles.
 Requested convergence on MAX density matrix=1.00D-04.
 Requested convergence on             energy=1.00D-04.
 Virtual orbitals will be shifted by   0.500 hartree.
 No special actions if energy rises.
 Dynamic level shift is on during FON iterations.

 Cycle   1  Pass 1  IDiag  1:
 E= -193.407410391438    
 DIIS: error= 4.75D-02 at cycle   1 NSaved=   1.
 NSaved= 1 IEnMin= 1 EnMin= -193.407410391438     IErMin= 1 ErrMin= 4.75D-02
 ErrMax= 4.75D-02  0.00D+00 EMaxC= 1.00D+00 BMatC= 1.82D-01 BMatP= 1.82D-01
 IDIUse=1 WtCom= 1.00D+00 WtEn= 0.00D+00
 Coeff-Com:  0.100D+01
 Coeff:      0.100D+01
 Gap=     0.356 Goal=   None    Shift=    0.500
 T= 1772. Gap= 0.826 NK=0 IS=   19 IE=   57 IFin=   18
          NO(<0.9)=   0  NV(>0.1)=   0     18.00e < EF      0.00e >EF  Err=0.0D+00
 Gap=     0.245 Goal=   None    Shift=    0.500
 T= 1772. Gap= 0.748 NK=0 IS=   18 IE=   57 IFin=   17
          NO(<0.9)=   0  NV(>0.1)=   0     17.00e < EF      0.00e >EF  Err=0.0D+00
 GapD=    0.245 DampG=1.000 DampE=0.500 DampFc=0.5000 IDamp=-1.
 Damping current iteration by 5.00D-01
 RMSDP=6.62D-03 MaxDP=5.00D-02              OVMax= 9.88D-02

 Cycle   2  Pass 1  IDiag  1:
 E= -193.442169857488     Delta-E=       -0.034759466050 Rises=F Damp=T
 DIIS: error= 2.28D-02 at cycle   2 NSaved=   2.
 NSaved= 2 IEnMin= 2 EnMin= -193.442169857488     IErMin= 2 ErrMin= 2.28D-02
 ErrMax= 2.28D-02  0.00D+00 EMaxC= 1.00D+00 BMatC= 3.17D-02 BMatP= 1.82D-01
 IDIUse=1 WtCom= 1.00D+00 WtEn= 0.00D+00
 Coeff-Com: -0.547D+00 0.155D+01
 Coeff:     -0.547D+00 0.155D+01
 Gap=     0.426 Goal=   None    Shift=    0.500
 T= 1657. Gap= 0.912 NK=4 IS=   19 IE=   23 IFin=   18
          NO(<0.9)=   0  NV(>0.1)=   0     18.00e < EF      0.00e >EF  Err=0.0D+00
 Gap=     0.273 Goal=   None    Shift=    0.500
 T= 1657. Gap= 0.771 NK=4 IS=   18 IE=   23 IFin=   17
          NO(<0.9)=   0  NV(>0.1)=   0     17.00e < EF      0.00e >EF  Err=0.0D+00
 GapD=    0.273 DampG=1.000 DampE=0.500 DampFc=0.5000 IDamp=-1.
 Damping current iteration by 5.00D-01
 RMSDP=4.00D-03 MaxDP=3.11D-02 DE=-3.48D-02 OVMax= 1.55D-02

 Cycle   3  Pass 1  IDiag  1:
 E= -193.454532757462     Delta-E=       -0.012362899974 Rises=F Damp=T
 DIIS: error= 1.29D-02 at cycle   3 NSaved=   3.
 NSaved= 3 IEnMin= 3 EnMin= -193.454532757462     IErMin= 3 ErrMin= 1.29D-02
 ErrMax= 1.29D-02  0.00D+00 EMaxC= 1.00D+00 BMatC= 7.38D-03 BMatP= 3.17D-02
 IDIUse=1 WtCom= 1.00D+00 WtEn= 0.00D+00
 Coeff-Com:  0.337D+00-0.186D+01 0.253D+01
 Coeff:      0.337D+00-0.186D+01 0.253D+01
 Gap=     0.418 Goal=   None    Shift=    0.500
 T= 1449. Gap= 0.918 NK=0 IS=   19 IE=   57 IFin=   18
          NO(<0.9)=   0  NV(>0.1)=   0     18.00e < EF      0.00e >EF  Err=0.0D+00
 Gap=     0.276 Goal=   None    Shift=    0.500
 T= 1449. Gap= 0.776 NK=0 IS=   18 IE=   57 IFin=   17
          NO(<0.9)=   0  NV(>0.1)=   0     17.00e < EF      0.00e >EF  Err=0.0D+00
 GapD=    0.276 DampG=1.000 DampE=0.500 DampFc=0.5000 IDamp=-1.
 Damping current iteration by 5.00D-01
 RMSDP=2.20D-03 MaxDP=1.64D-02 DE=-1.24D-02 OVMax= 1.45D-02

 Cycle   4  Pass 1  IDiag  1:
 E= -193.460372690679     Delta-E=       -0.005839933217 Rises=F Damp=T
 DIIS: error= 8.20D-03 at cycle   4 NSaved=   4.
 NSaved= 4 IEnMin= 4 EnMin= -193.460372690679     IErMin= 4 ErrMin= 8.20D-03
 ErrMax= 8.20D-03  0.00D+00 EMaxC= 1.00D+00 BMatC= 2.49D-03 BMatP= 7.38D-03
 IDIUse=1 WtCom= 1.00D+00 WtEn= 0.00D+00
 Coeff-Com:  0.124D-02 0.815D+00-0.365D+01 0.384D+01
 Coeff:      0.124D-02 0.815D+00-0.365D+01 0.384D+01
 Gap=     0.423 Goal=   None    Shift=    0.500
 T= 1066. Gap= 0.923 NK=0 IS=   19 IE=   57 IFin=   18
          NO(<0.9)=   0  NV(>0.1)=   0     18.00e < EF      0.00e >EF  Err=0.0D+00
 Gap=     0.280 Goal=   None    Shift=    0.500
 T= 1066. Gap= 0.780 NK=0 IS=   18 IE=   57 IFin=   17
          NO(<0.9)=   0  NV(>0.1)=   0     17.00e < EF      0.00e >EF  Err=0.0D+00
 GapD=    0.280 DampG=1.000 DampE=1.000 DampFc=1.0000 IDamp=-1.
 RMSDP=1.35D-03 MaxDP=1.35D-02 DE=-5.84D-03 OVMax= 1.38D-02

 Cycle   5  Pass 1  IDiag  1:
 E= -193.467090296805     Delta-E=       -0.006717606126 Rises=F Damp=F
 DIIS: error= 3.56D-03 at cycle   5 NSaved=   5.
 NSaved= 5 IEnMin= 5 EnMin= -193.467090296805     IErMin= 5 ErrMin= 3.56D-03
 ErrMax= 3.56D-03  0.00D+00 EMaxC= 1.00D+00 BMatC= 3.59D-04 BMatP= 2.49D-03
 IDIUse=1 WtCom= 1.00D+00 WtEn= 0.00D+00
 Coeff-Com: -0.171D+00 0.870D+00-0.718D+00-0.855D+00 0.187D+01
 Coeff:     -0.171D+00 0.870D+00-0.718D+00-0.855D+00 0.187D+01
 Gap=     0.423 Goal=   None    Shift=    0.500
 T=  720. Gap= 0.923 NK=0 IS=   19 IE=   57 IFin=   18
          NO(<0.9)=   0  NV(>0.1)=   0     18.00e < EF      0.00e >EF  Err=0.0D+00
 Gap=     0.283 Goal=   None    Shift=    0.500
 T=  720. Gap= 0.784 NK=0 IS=   18 IE=   57 IFin=   17
          NO(<0.9)=   0  NV(>0.1)=   0     17.00e < EF      0.00e >EF  Err=0.0D+00
 GapD=    0.283 DampG=1.000 DampE=1.000 DampFc=1.0000 IDamp=-1.
 RMSDP=3.88D-04 MaxDP=5.99D-03 DE=-6.72D-03 OVMax= 1.30D-02

 Cycle   6  Pass 1  IDiag  1:
 E= -193.467589663196     Delta-E=       -0.000499366391 Rises=F Damp=F
 DIIS: error= 2.72D-03 at cycle   6 NSaved=   6.
 NSaved= 6 IEnMin= 6 EnMin= -193.467589663196     IErMin= 6 ErrMin= 2.72D-03
 ErrMax= 2.72D-03  0.00D+00 EMaxC= 1.00D+00 BMatC= 1.59D-04 BMatP= 3.59D-04
 IDIUse=1 WtCom= 1.00D+00 WtEn= 0.00D+00
 Coeff-Com:  0.654D-02-0.306D+00 0.916D+00-0.661D+00-0.163D+01 0.267D+01
 Coeff:      0.654D-02-0.306D+00 0.916D+00-0.661D+00-0.163D+01 0.267D+01
 Gap=     0.425 Goal=   None    Shift=    0.500
 T=  400. Gap= 0.925 NK=0 IS=   19 IE=   57 IFin=   18
          NO(<0.9)=   0  NV(>0.1)=   0     18.00e < EF      0.00e >EF  Err=0.0D+00
 Gap=     0.285 Goal=   None    Shift=    0.500
 T=  400. Gap= 0.785 NK=0 IS=   18 IE=   57 IFin=   17
          NO(<0.9)=   0  NV(>0.1)=   0     17.00e < EF      0.00e >EF  Err=0.0D+00
 GapD=    0.285 DampG=1.000 DampE=1.000 DampFc=1.0000 IDamp=-1.
 RMSDP=3.01D-04 MaxDP=4.86D-03 DE=-4.99D-04 OVMax= 1.15D-02

 Cycle   7  Pass 1  IDiag  1:
 E= -193.467866913716     Delta-E=       -0.000277250521 Rises=F Damp=F
 DIIS: error= 1.92D-03 at cycle   7 NSaved=   7.
 NSaved= 7 IEnMin= 7 EnMin= -193.467866913716     IErMin= 7 ErrMin= 1.92D-03
 ErrMax= 1.92D-03  0.00D+00 EMaxC= 1.00D+00 BMatC= 6.78D-05 BMatP= 1.59D-04
 IDIUse=1 WtCom= 1.00D+00 WtEn= 0.00D+00
 Coeff-Com:  0.157D-01-0.688D-01-0.112D+00 0.383D+00-0.389D+00-0.105D+01
 Coeff-Com:  0.222D+01
 Coeff:      0.157D-01-0.688D-01-0.112D+00 0.383D+00-0.389D+00-0.105D+01
 Coeff:      0.222D+01
 Gap=     0.424 Goal=   None    Shift=    0.500
 T=   59. Gap= 0.924 NK=0 IS=   19 IE=   57 IFin=   18
          NO(<0.9)=   0  NV(>0.1)=   0     18.00e < EF      0.00e >EF  Err=0.0D+00
 Gap=     0.286 Goal=   None    Shift=    0.500
 T=   59. Gap= 0.786 NK=0 IS=   18 IE=   57 IFin=   17
          NO(<0.9)=   0  NV(>0.1)=   0     17.00e < EF      0.00e >EF  Err=0.0D+00
 GapD=    0.286 DampG=1.000 DampE=1.000 DampFc=1.0000 IDamp=-1.
 RMSDP=1.97D-04 MaxDP=2.81D-03 DE=-2.77D-04 OVMax= 8.23D-03

 Cycle   8  Pass 1  IDiag  1:
 E= -193.467984373994     Delta-E=       -0.000117460278 Rises=F Damp=F
 DIIS: error= 1.33D-03 at cycle   8 NSaved=   8.
 NSaved= 8 IEnMin= 8 EnMin= -193.467984373994     IErMin= 8 ErrMin= 1.33D-03
 ErrMax= 1.33D-03  0.00D+00 EMaxC= 1.00D+00 BMatC= 3.07D-05 BMatP= 6.78D-05
 IDIUse=1 WtCom= 1.00D+00 WtEn= 0.00D+00
 Coeff-Com: -0.108D-01 0.239D+00-0.732D+00 0.582D+00 0.101D+01-0.228D+01
 Coeff-Com: -0.264D-01 0.222D+01
 Coeff:     -0.108D-01 0.239D+00-0.732D+00 0.582D+00 0.101D+01-0.228D+01
 Coeff:     -0.264D-01 0.222D+01
 Gap=     0.425 Goal=   None    Shift=    0.500
 Gap=     0.286 Goal=   None    Shift=    0.500
 GapD=    0.286 DampG=1.000 DampE=1.000 DampFc=1.0000 IDamp=-1.
 RMSDP=1.50D-04 MaxDP=2.09D-03 DE=-1.17D-04 OVMax= 6.59D-03

 Cycle   9  Pass 1  IDiag  1:
 E= -193.468040254139     Delta-E=       -0.000055880145 Rises=F Damp=F
 DIIS: error= 8.64D-04 at cycle   9 NSaved=   9.
 NSaved= 9 IEnMin= 9 EnMin= -193.468040254139     IErMin= 9 ErrMin= 8.64D-04
 ErrMax= 8.64D-04  0.00D+00 EMaxC= 1.00D+00 BMatC= 1.22D-05 BMatP= 3.07D-05
 IDIUse=1 WtCom= 1.00D+00 WtEn= 0.00D+00
 Coeff-Com:  0.801D-03-0.136D+00 0.557D+00-0.578D+00-0.429D+00 0.184D+01
 Coeff-Com: -0.984D+00-0.311D+01 0.384D+01
 Coeff:      0.801D-03-0.136D+00 0.557D+00-0.578D+00-0.429D+00 0.184D+01
 Coeff:     -0.984D+00-0.311D+01 0.384D+01
 Gap=     0.425 Goal=   None    Shift=    0.500
 Gap=     0.287 Goal=   None    Shift=    0.500
 RMSDP=1.06D-04 MaxDP=1.44D-03 DE=-5.59D-05 OVMax= 5.09D-03

 Cycle  10  Pass 1  IDiag  1:
 E= -193.468064432322     Delta-E=       -0.000024178184 Rises=F Damp=F
 DIIS: error= 5.17D-04 at cycle  10 NSaved=  10.
 NSaved=10 IEnMin=10 EnMin= -193.468064432322     IErMin=10 ErrMin= 5.17D-04
 ErrMax= 5.17D-04  0.00D+00 EMaxC= 1.00D+00 BMatC= 4.14D-06 BMatP= 1.22D-05
 IDIUse=1 WtCom= 1.00D+00 WtEn= 0.00D+00
 Coeff-Com:  0.606D-03 0.352D-01-0.168D+00 0.190D+00 0.900D-01-0.536D+00
 Coeff-Com:  0.438D+00 0.833D+00-0.283D+01 0.294D+01
 Coeff:      0.606D-03 0.352D-01-0.168D+00 0.190D+00 0.900D-01-0.536D+00
 Coeff:      0.438D+00 0.833D+00-0.283D+01 0.294D+01
 Gap=     0.425 Goal=   None    Shift=    0.500
 Gap=     0.287 Goal=   None    Shift=    0.500
 RMSDP=6.10D-05 MaxDP=8.75D-04 DE=-2.42D-05 OVMax= 3.06D-03

 Cycle  11  Pass 1  IDiag  1:
 E= -193.468072462945     Delta-E=       -0.000008030622 Rises=F Damp=F
 DIIS: error= 3.05D-04 at cycle  11 NSaved=  11.
 NSaved=11 IEnMin=11 EnMin= -193.468072462945     IErMin=11 ErrMin= 3.05D-04
 ErrMax= 3.05D-04  0.00D+00 EMaxC= 1.00D+00 BMatC= 1.47D-06 BMatP= 4.14D-06
 IDIUse=1 WtCom= 1.00D+00 WtEn= 0.00D+00
 Coeff-Com: -0.522D-03-0.267D-01 0.140D+00-0.169D+00-0.394D-01 0.450D+00
 Coeff-Com: -0.400D+00-0.900D+00 0.295D+01-0.526D+01 0.425D+01
 Coeff:     -0.522D-03-0.267D-01 0.140D+00-0.169D+00-0.394D-01 0.450D+00
 Coeff:     -0.400D+00-0.900D+00 0.295D+01-0.526D+01 0.425D+01
 Gap=     0.425 Goal=   None    Shift=    0.500
 Gap=     0.287 Goal=   None    Shift=    0.500
 RMSDP=3.74D-05 MaxDP=5.23D-04 DE=-8.03D-06 OVMax= 1.93D-03

 Cycle  12  Pass 1  IDiag  1:
 E= -193.468075321360     Delta-E=       -0.000002858416 Rises=F Damp=F
 DIIS: error= 1.74D-04 at cycle  12 NSaved=  12.
 NSaved=12 IEnMin=12 EnMin= -193.468075321360     IErMin=12 ErrMin= 1.74D-04
 ErrMax= 1.74D-04  0.00D+00 EMaxC= 1.00D+00 BMatC= 4.78D-07 BMatP= 1.47D-06
 IDIUse=1 WtCom= 1.00D+00 WtEn= 0.00D+00
 Coeff-Com:  0.282D-03-0.111D-01 0.373D-01-0.321D-01-0.461D-01 0.126D+00
 Coeff-Com: -0.792D-02-0.193D+00-0.223D+00 0.152D+01-0.328D+01 0.310D+01
 Coeff:      0.282D-03-0.111D-01 0.373D-01-0.321D-01-0.461D-01 0.126D+00
 Coeff:     -0.792D-02-0.193D+00-0.223D+00 0.152D+01-0.328D+01 0.310D+01
 Gap=     0.425 Goal=   None    Shift=    0.500
 Gap=     0.287 Goal=   None    Shift=    0.500
 RMSDP=2.15D-05 MaxDP=2.94D-04 DE=-2.86D-06 OVMax= 1.12D-03

 Cycle  13  Pass 1  IDiag  1:
 E= -193.468076252306     Delta-E=       -0.000000930946 Rises=F Damp=F
 DIIS: error= 9.87D-05 at cycle  13 NSaved=  13.
 NSaved=13 IEnMin=13 EnMin= -193.468076252306     IErMin=13 ErrMin= 9.87D-05
 ErrMax= 9.87D-05  0.00D+00 EMaxC= 1.00D+00 BMatC= 1.52D-07 BMatP= 4.78D-07
 IDIUse=1 WtCom= 1.00D+00 WtEn= 0.00D+00
 Coeff-Com: -0.744D-04 0.612D-02-0.204D-01 0.169D-01 0.313D-01-0.683D-01
 Coeff-Com:  0.318D-02 0.850D-01 0.124D+00-0.905D+00 0.219D+01-0.409D+01
 Coeff-Com:  0.363D+01
 Coeff:     -0.744D-04 0.612D-02-0.204D-01 0.169D-01 0.313D-01-0.683D-01
 Coeff:      0.318D-02 0.850D-01 0.124D+00-0.905D+00 0.219D+01-0.409D+01
 Coeff:      0.363D+01
 Gap=     0.425 Goal=   None    Shift=    0.500
 Gap=     0.287 Goal=   None    Shift=    0.500
 RMSDP=1.25D-05 MaxDP=1.74D-04 DE=-9.31D-07 OVMax= 6.57D-04

 Cycle  14  Pass 1  IDiag  1:
 E= -193.468076555164     Delta-E=       -0.000000302858 Rises=F Damp=F
 DIIS: error= 5.39D-05 at cycle  14 NSaved=  14.
 NSaved=14 IEnMin=14 EnMin= -193.468076555164     IErMin=14 ErrMin= 5.39D-05
 ErrMax= 5.39D-05  0.00D+00 EMaxC= 1.00D+00 BMatC= 4.75D-08 BMatP= 1.52D-07
 IDIUse=1 WtCom= 1.00D+00 WtEn= 0.00D+00
 Coeff-Com:  0.203D-03-0.483D-02 0.195D-01-0.210D-01-0.128D-01 0.567D-01
 Coeff-Com: -0.176D-01-0.108D+00 0.184D+00-0.134D+00-0.362D+00 0.155D+01
 Coeff-Com: -0.333D+01 0.318D+01
 Coeff:      0.203D-03-0.483D-02 0.195D-01-0.210D-01-0.128D-01 0.567D-01
 Coeff:     -0.176D-01-0.108D+00 0.184D+00-0.134D+00-0.362D+00 0.155D+01
 Coeff:     -0.333D+01 0.318D+01
 Gap=     0.425 Goal=   None    Shift=    0.500
 Gap=     0.287 Goal=   None    Shift=    0.500
 RMSDP=7.06D-06 MaxDP=9.96D-05 DE=-3.03D-07 OVMax= 3.77D-04

 Cycle  15  Pass 1  IDiag  1:
 E= -193.468076650326     Delta-E=       -0.000000095162 Rises=F Damp=F
 DIIS: error= 2.95D-05 at cycle  15 NSaved=  15.
 NSaved=15 IEnMin=15 EnMin= -193.468076650326     IErMin=15 ErrMin= 2.95D-05
 ErrMax= 2.95D-05  0.00D+00 EMaxC= 1.00D+00 BMatC= 1.45D-08 BMatP= 4.75D-08
 IDIUse=1 WtCom= 1.00D+00 WtEn= 0.00D+00
 Coeff-Com: -0.116D-03 0.219D-02-0.922D-02 0.105D-01 0.405D-02-0.238D-01
 Coeff-Com:  0.114D-01 0.484D-01-0.103D+00 0.127D+00 0.719D-03-0.577D+00
 Coeff-Com:  0.172D+01-0.353D+01 0.331D+01
 Coeff:     -0.116D-03 0.219D-02-0.922D-02 0.105D-01 0.405D-02-0.238D-01
 Coeff:      0.114D-01 0.484D-01-0.103D+00 0.127D+00 0.719D-03-0.577D+00
 Coeff:      0.172D+01-0.353D+01 0.331D+01
 Gap=     0.425 Goal=   None    Shift=    0.500
 Gap=     0.287 Goal=   None    Shift=    0.500
 RMSDP=3.91D-06 MaxDP=5.49D-05 DE=-9.52D-08 OVMax= 2.10D-04

 Cycle  16  Pass 1  IDiag  1:
 E= -193.468076679115     Delta-E=       -0.000000028789 Rises=F Damp=F
 DIIS: error= 1.57D-05 at cycle  16 NSaved=  16.
 NSaved=16 IEnMin=16 EnMin= -193.468076679115     IErMin=16 ErrMin= 1.57D-05
 ErrMax= 1.57D-05  0.00D+00 EMaxC= 1.00D+00 BMatC= 4.46D-09 BMatP= 1.45D-08
 IDIUse=1 WtCom= 1.00D+00 WtEn= 0.00D+00
 Coeff-Com:  0.266D-04-0.903D-04 0.130D-02-0.237D-02 0.268D-02-0.180D-02
 Coeff-Com:  0.214D-02-0.837D-02 0.393D-01-0.109D+00 0.162D+00-0.130D+00
 Coeff-Com: -0.238D+00 0.140D+01-0.355D+01 0.343D+01
 Coeff:      0.266D-04-0.903D-04 0.130D-02-0.237D-02 0.268D-02-0.180D-02
 Coeff:      0.214D-02-0.837D-02 0.393D-01-0.109D+00 0.162D+00-0.130D+00
 Coeff:     -0.238D+00 0.140D+01-0.355D+01 0.343D+01
 Gap=     0.425 Goal=   None    Shift=    0.500
 Gap=     0.287 Goal=   None    Shift=    0.500
 RMSDP=2.14D-06 MaxDP=2.95D-05 DE=-2.88D-08 OVMax= 1.16D-04

 Cycle  17  Pass 1  IDiag  1:
 E= -193.468076687678     Delta-E=       -0.000000008563 Rises=F Damp=F
 DIIS: error= 8.23D-06 at cycle  17 NSaved=  17.
 NSaved=17 IEnMin=17 EnMin= -193.468076687678     IErMin=17 ErrMin= 8.23D-06
 ErrMax= 8.23D-06  0.00D+00 EMaxC= 1.00D+00 BMatC= 1.37D-09 BMatP= 4.46D-09
 IDIUse=1 WtCom= 1.00D+00 WtEn= 0.00D+00
 Coeff-Com: -0.944D-05 0.288D-03-0.177D-02 0.245D-02-0.695D-03-0.285D-02
 Coeff-Com:  0.286D-02 0.810D-02-0.292D-01 0.611D-01-0.759D-01 0.136D-01
 Coeff-Com:  0.253D+00-0.112D+01 0.298D+01-0.513D+01 0.404D+01
 Coeff:     -0.944D-05 0.288D-03-0.177D-02 0.245D-02-0.695D-03-0.285D-02
 Coeff:      0.286D-02 0.810D-02-0.292D-01 0.611D-01-0.759D-01 0.136D-01
 Coeff:      0.253D+00-0.112D+01 0.298D+01-0.513D+01 0.404D+01
 Gap=     0.425 Goal=   None    Shift=    0.500
 Gap=     0.287 Goal=   None    Shift=    0.500
 RMSDP=1.15D-06 MaxDP=1.56D-05 DE=-8.56D-09 OVMax= 6.24D-05

 Cycle  18  Pass 1  IDiag  1:
 E= -193.468076690160     Delta-E=       -0.000000002482 Rises=F Damp=F
 DIIS: error= 4.26D-06 at cycle  18 NSaved=  18.
 NSaved=18 IEnMin=18 EnMin= -193.468076690160     IErMin=18 ErrMin= 4.26D-06
 ErrMax= 4.26D-06  0.00D+00 EMaxC= 1.00D+00 BMatC= 4.20D-10 BMatP= 1.37D-09
 IDIUse=1 WtCom= 1.00D+00 WtEn= 0.00D+00
 Coeff-Com: -0.181D-05 0.257D-04 0.339D-03-0.756D-03 0.127D-02-0.153D-02
 Coeff-Com:  0.914D-03-0.237D-02 0.154D-01-0.455D-01 0.822D-01-0.111D+00
 Coeff-Com:  0.532D-01 0.369D+00-0.155D+01 0.332D+01-0.504D+01 0.391D+01
 Coeff:     -0.181D-05 0.257D-04 0.339D-03-0.756D-03 0.127D-02-0.153D-02
 Coeff:      0.914D-03-0.237D-02 0.154D-01-0.455D-01 0.822D-01-0.111D+00
 Coeff:      0.532D-01 0.369D+00-0.155D+01 0.332D+01-0.504D+01 0.391D+01
 Gap=     0.425 Goal=   None    Shift=    0.500
 Gap=     0.287 Goal=   None    Shift=    0.500
 RMSDP=5.95D-07 MaxDP=7.91D-06 DE=-2.48D-09 OVMax= 3.26D-05

 SCF Done:  E(ULC-wHPBE) =  -193.468076690     A.U. after   18 cycles
            NFock= 18  Conv=0.60D-06     -V/T= 2.0049
 <Sx>= 0.0000 <Sy>= 0.0000 <Sz>= 0.5000 <S**2>= 0.7965 S= 0.5230
 <L.S>= 0.000000000000E+00
 KE= 1.925282552556D+02 PE=-7.506539051170D+02 EE= 2.092136546428D+02
 Annihilation of the first spin contaminant:
 S**2 before annihilation     0.7965,   after     0.7512
 Leave Link  502 at Tue Feb 25 12:24:07 2020, MaxMem=  6710886400 cpu:              24.5 elap:               1.6
 (Enter /opt/ohpc/pub/libs/gaussian/g16-A.03/haswell/g16/l508.exe)
 QCSCF skips out because SCF is already converged.
 Leave Link  508 at Tue Feb 25 12:24:07 2020, MaxMem=  6710886400 cpu:               0.1 elap:               0.0
 (Enter /opt/ohpc/pub/libs/gaussian/g16-A.03/haswell/g16/l601.exe)
 Copying SCF densities to generalized density rwf, IOpCl= 1 IROHF=0.

 **********************************************************************

            Population analysis using the SCF density.

 **********************************************************************

 Orbital symmetries:
 Alpha Orbitals:
       Occupied  (B2) (A1) (A1) (B2) (A1) (A1) (A1) (B2) (A1) (B2)
                 (A1) (B2) (A1) (A1) (B1) (B2) (A2) (B1)
       Virtual   (B2) (A2) (B1) (A1) (A1) (B2) (A1) (B2) (A1) (B2)
                 (A1) (A1) (B2) (B1) (B2) (B1) (A2) (A1) (A1) (B2)
                 (A1) (A2) (B1) (B2) (B2) (A1) (A1) (B2) (A1) (A1)
                 (B2) (A1) (A1) (B2) (A1) (B2) (A1) (A1) (B2)
 Beta  Orbitals:
       Occupied  (B2) (A1) (A1) (B2) (A1) (A1) (A1) (B2) (A1) (B2)
                 (A1) (B2) (A1) (A1) (B2) (B1) (A2)
       Virtual   (B1) (B2) (A2) (A1) (B1) (A1) (B2) (A1) (B2) (A1)
                 (B2) (A1) (A1) (B2) (B2) (B1) (A2) (A1) (B1) (A1)
                 (B2) (A1) (A2) (B1) (B2) (B2) (A1) (A1) (B2) (A1)
                 (B2) (A1) (A1) (A1) (B2) (A1) (B2) (A1) (A1) (B2)
 The electronic state is 2-B1.
 Alpha  occ. eigenvalues --  -10.37054 -10.37049 -10.32051 -10.31146 -10.31145
 Alpha  occ. eigenvalues --   -1.24111  -1.11318  -1.06876  -0.93062  -0.90917
 Alpha  occ. eigenvalues --   -0.86311  -0.76640  -0.74082  -0.72968  -0.72408
 Alpha  occ. eigenvalues --   -0.70773  -0.57818  -0.56259
 Alpha virt. eigenvalues --   -0.13803  -0.13257  -0.06323  -0.05456  -0.00258
 Alpha virt. eigenvalues --    0.04440   0.06432   0.08753   0.08889   0.20045
 Alpha virt. eigenvalues --    0.20079   0.30018   0.31298   0.39153   0.39810
 Alpha virt. eigenvalues --    0.46864   0.47455   0.47998   0.50525   0.51268
 Alpha virt. eigenvalues --    0.51447   0.54612   0.56119   0.64054   0.70557
 Alpha virt. eigenvalues --    0.72884   0.74175   0.76567   0.76758   0.83077
 Alpha virt. eigenvalues --    0.83092   0.87500   0.91542   0.97863   1.06036
 Alpha virt. eigenvalues --    1.07084   1.12312   1.34262   1.35722
  Beta  occ. eigenvalues --  -10.36503 -10.36496 -10.31408 -10.31408 -10.31157
  Beta  occ. eigenvalues --   -1.22967  -1.09510  -1.06595  -0.92069  -0.90214
  Beta  occ. eigenvalues --   -0.86032  -0.76335  -0.73802  -0.72422  -0.70611
  Beta  occ. eigenvalues --   -0.68158  -0.56535
  Beta virt. eigenvalues --   -0.27868  -0.12460  -0.10391  -0.05225  -0.03016
  Beta virt. eigenvalues --    0.00129   0.04701   0.06664   0.08724   0.09453
  Beta virt. eigenvalues --    0.20386   0.20567   0.30420   0.31672   0.40183
  Beta virt. eigenvalues --    0.41273   0.48440   0.48527   0.49490   0.50930
  Beta virt. eigenvalues --    0.51715   0.52539   0.55195   0.57609   0.64581
  Beta virt. eigenvalues --    0.71017   0.73719   0.74740   0.76472   0.77252
  Beta virt. eigenvalues --    0.83420   0.83525   0.88523   0.92176   0.97919
  Beta virt. eigenvalues --    1.06552   1.07584   1.13358   1.35145   1.36551
          Condensed to atoms (all electrons):
               1          2          3          4          5          6
     1  C    5.346698   0.500070  -0.041340  -0.128145   0.182200   0.165902
     2  C    0.500070   4.949756   0.465437  -0.024468  -0.128145  -0.024016
     3  C   -0.041340   0.465437   4.852301   0.465437  -0.041340   0.007589
     4  C   -0.128145  -0.024468   0.465437   4.949756   0.500070  -0.024016
     5  C    0.182200  -0.128145  -0.041340   0.500070   5.346698   0.165902
     6  H    0.165902  -0.024016   0.007589  -0.024016   0.165902   0.360955
     7  H    0.337554   0.004042  -0.000157   0.003258  -0.016011  -0.008829
     8  H   -0.024157   0.361931  -0.012135   0.004053   0.000968   0.000461
     9  H    0.005373  -0.028259   0.366972  -0.028259   0.005373  -0.000044
    10  H    0.000968   0.004053  -0.012135   0.361931  -0.024157   0.000461
    11  H   -0.016011   0.003258  -0.000157   0.004042   0.337554  -0.008829
               7          8          9         10         11
     1  C    0.337554  -0.024157   0.005373   0.000968  -0.016011
     2  C    0.004042   0.361931  -0.028259   0.004053   0.003258
     3  C   -0.000157  -0.012135   0.366972  -0.012135  -0.000157
     4  C    0.003258   0.004053  -0.028259   0.361931   0.004042
     5  C   -0.016011   0.000968   0.005373  -0.024157   0.337554
     6  H   -0.008829   0.000461  -0.000044   0.000461  -0.008829
     7  H    0.345358  -0.000043  -0.000054  -0.000018   0.000369
     8  H   -0.000043   0.386127  -0.001524  -0.000091  -0.000018
     9  H   -0.000054  -0.001524   0.408366  -0.001524  -0.000054
    10  H   -0.000018  -0.000091  -0.001524   0.386127  -0.000043
    11  H    0.000369  -0.000018  -0.000054  -0.000043   0.345358
          Atomic-Atomic Spin Densities.
               1          2          3          4          5          6
     1  C    0.480581  -0.040000  -0.023682  -0.008949   0.029102  -0.003560
     2  C   -0.040000  -0.222576   0.028496  -0.000341  -0.008949   0.000274
     3  C   -0.023682   0.028496   0.691321   0.028496  -0.023682   0.000210
     4  C   -0.008949  -0.000341   0.028496  -0.222576  -0.040000   0.000274
     5  C    0.029102  -0.008949  -0.023682  -0.040000   0.480581  -0.003560
     6  H   -0.003560   0.000274   0.000210   0.000274  -0.003560  -0.014221
     7  H   -0.002536  -0.000463   0.000093  -0.000088   0.000250  -0.000253
     8  H   -0.000282   0.001770  -0.001022  -0.000117   0.000055   0.000020
     9  H   -0.000036  -0.000066  -0.000868  -0.000066  -0.000036  -0.000002
    10  H    0.000055  -0.000117  -0.001022   0.001770  -0.000282   0.000020
    11  H    0.000250  -0.000088   0.000093  -0.000463  -0.002536  -0.000253
               7          8          9         10         11
     1  C   -0.002536  -0.000282  -0.000036   0.000055   0.000250
     2  C   -0.000463   0.001770  -0.000066  -0.000117  -0.000088
     3  C    0.000093  -0.001022  -0.000868  -0.001022   0.000093
     4  C   -0.000088  -0.000117  -0.000066   0.001770  -0.000463
     5  C    0.000250   0.000055  -0.000036  -0.000282  -0.002536
     6  H   -0.000253   0.000020  -0.000002   0.000020  -0.000253
     7  H   -0.016956   0.000057   0.000004  -0.000000  -0.000064
     8  H    0.000057   0.005748   0.000020   0.000000  -0.000000
     9  H    0.000004   0.000020  -0.026710   0.000020   0.000004
    10  H   -0.000000   0.000000   0.000020   0.005748   0.000057
    11  H   -0.000064  -0.000000   0.000004   0.000057  -0.016956
 Mulliken charges and spin densities:
               1          2
     1  C   -0.329112   0.430944
     2  C   -0.083661  -0.242060
     3  C   -0.050472   0.698433
     4  C   -0.083661  -0.242060
     5  C   -0.329112   0.430944
     6  H    0.364463  -0.021051
     7  H    0.334531  -0.019955
     8  H    0.284429   0.006249
     9  H    0.273634  -0.027739
    10  H    0.284429   0.006249
    11  H    0.334531  -0.019955
 Sum of Mulliken charges =   1.00000   1.00000
 Mulliken charges and spin densities with hydrogens summed into heavy atoms:
               1          2
     1  C    0.369882   0.389938
     2  C    0.200769  -0.235811
     3  C    0.223163   0.670694
     4  C    0.200769  -0.235811
     5  C    0.005419   0.410989
 Electronic spatial extent (au):  <R**2>=            321.3811
 Charge=              1.0000 electrons
 Dipole moment (field-independent basis, Debye):
    X=             -0.0000    Y=              0.0000    Z=             -1.9992  Tot=              1.9992
 Quadrupole moment (field-independent basis, Debye-Ang):
   XX=            -31.4677   YY=            -17.4505   ZZ=            -13.3023
   XY=              0.0000   XZ=              0.0000   YZ=              0.0000
 Traceless Quadrupole moment (field-independent basis, Debye-Ang):
   XX=            -10.7275   YY=              3.2897   ZZ=              7.4379
   XY=              0.0000   XZ=              0.0000   YZ=              0.0000
 Octapole moment (field-independent basis, Debye-Ang**2):
  XXX=              0.0000  YYY=             -0.0000  ZZZ=             -7.4022  XYY=             -0.0000
  XXY=              0.0000  XXZ=              0.7053  XZZ=              0.0000  YZZ=              0.0000
  YYZ=             -2.8615  XYZ=             -0.0000
 Hexadecapole moment (field-independent basis, Debye-Ang**3):
 XXXX=            -31.5523 YYYY=           -147.4195 ZZZZ=           -126.9901 XXXY=             -0.0000
 XXXZ=             -0.0000 YYYX=             -0.0000 YYYZ=             -0.0000 ZZZX=              0.0000
 ZZZY=             -0.0000 XXYY=            -42.9861 XXZZ=            -39.1636 YYZZ=            -42.9018
 XXYZ=              0.0000 YYXZ=             -0.0000 ZZXY=             -0.0000
 N-N= 1.554439185285D+02 E-N=-7.506539080293D+02  KE= 1.925282552556D+02
 Symmetry A1   KE= 1.112969524880D+02
 Symmetry A2   KE= 2.506168348707D+00
 Symmetry B1   KE= 3.221135458170D+00
 Symmetry B2   KE= 7.550399896071D+01
 Symmetry A1   SP= 8.218713018286D-15
 Symmetry A2   SP=-7.699254863782D-16
 Symmetry B1   SP= 1.000000000000D+00
 Symmetry B2   SP= 1.499536740098D-14
                          Isotropic Fermi Contact Couplings
        Atom                 a.u.       MegaHertz       Gauss      10(-4) cm-1
     1  C(13)              0.06263      70.40865      25.12356      23.48580
     2  C(13)             -0.04229     -47.54709     -16.96598     -15.86000
     3  C(13)              0.09549     107.34948      38.30496      35.80793
     4  C(13)             -0.04229     -47.54709     -16.96598     -15.86000
     5  C(13)              0.06263      70.40865      25.12356      23.48580
     6  H(1)              -0.00771     -34.47278     -12.30074     -11.49888
     7  H(1)              -0.00813     -36.32139     -12.96038     -12.11551
     8  H(1)               0.00234      10.44758       3.72796       3.48494
     9  H(1)              -0.01179     -52.71247     -18.80912     -17.58299
    10  H(1)               0.00234      10.44758       3.72796       3.48494
    11  H(1)              -0.00813     -36.32139     -12.96038     -12.11551
 --------------------------------------------------------
       Center         ----  Spin Dipole Couplings  ----
                      3XX-RR        3YY-RR        3ZZ-RR
 --------------------------------------------------------
     1   Atom        0.441054     -0.214608     -0.226446
     2   Atom       -0.156706      0.076608      0.080098
     3   Atom        0.669537     -0.342020     -0.327516
     4   Atom       -0.156706      0.076608      0.080098
     5   Atom        0.441054     -0.214608     -0.226446
     6   Atom       -0.006269      0.007703     -0.001434
     7   Atom       -0.005835      0.005500      0.000335
     8   Atom       -0.006484      0.001231      0.005252
     9   Atom       -0.007838     -0.043864      0.051702
    10   Atom       -0.006484      0.001231      0.005252
    11   Atom       -0.005835      0.005500      0.000335
 --------------------------------------------------------
                        XY            XZ            YZ
 --------------------------------------------------------
     1   Atom       -0.000000     -0.000000     -0.007886
     2   Atom       -0.000000      0.000000     -0.006602
     3   Atom       -0.000000     -0.000000      0.000000
     4   Atom       -0.000000     -0.000000      0.006602
     5   Atom        0.000000      0.000000      0.007886
     6   Atom       -0.000000      0.000000     -0.000000
     7   Atom        0.000000      0.000000     -0.032538
     8   Atom       -0.000000      0.000000     -0.004970
     9   Atom       -0.000000     -0.000000      0.000000
    10   Atom        0.000000     -0.000000      0.004970
    11   Atom       -0.000000     -0.000000      0.032538
 --------------------------------------------------------


 ---------------------------------------------------------------------------------
              Anisotropic Spin Dipole Couplings in Principal Axis System
 ---------------------------------------------------------------------------------

       Atom             a.u.   MegaHertz   Gauss  10(-4) cm-1        Axes

              Baa    -0.2304   -30.916   -11.032   -10.312  0.0000  0.4470  0.8945
     1 C(13)  Bbb    -0.2107   -28.269   -10.087    -9.430  0.0000  0.8945 -0.4470
              Bcc     0.4411    59.185    21.119    19.742  1.0000 -0.0000  0.0000
 
              Baa    -0.1567   -21.028    -7.503    -7.014  1.0000  0.0000  0.0000
     2 C(13)  Bbb     0.0715     9.598     3.425     3.202 -0.0000  0.7923  0.6101
              Bcc     0.0852    11.431     4.079     3.813  0.0000 -0.6101  0.7923
 
              Baa    -0.3420   -45.896   -16.377   -15.309  0.0000  1.0000  0.0000
     3 C(13)  Bbb    -0.3275   -43.950   -15.682   -14.660  0.0000  0.0000  1.0000
              Bcc     0.6695    89.845    32.059    29.969  1.0000 -0.0000  0.0000
 
              Baa    -0.1567   -21.028    -7.503    -7.014  1.0000  0.0000  0.0000
     4 C(13)  Bbb     0.0715     9.598     3.425     3.202 -0.0000  0.7923 -0.6101
              Bcc     0.0852    11.431     4.079     3.813 -0.0000  0.6101  0.7923
 
              Baa    -0.2304   -30.916   -11.032   -10.312 -0.0000 -0.4470  0.8945
     5 C(13)  Bbb    -0.2107   -28.269   -10.087    -9.430  0.0000  0.8945  0.4470
              Bcc     0.4411    59.185    21.119    19.742  1.0000 -0.0000  0.0000
 
              Baa    -0.0063    -3.345    -1.193    -1.116  1.0000 -0.0000 -0.0000
     6 H(1)   Bbb    -0.0014    -0.765    -0.273    -0.255  0.0000  0.0000  1.0000
              Bcc     0.0077     4.110     1.466     1.371  0.0000  1.0000 -0.0000
 
              Baa    -0.0297   -15.859    -5.659    -5.290 -0.0000  0.6786  0.7345
     7 H(1)   Bbb    -0.0058    -3.113    -1.111    -1.039  1.0000  0.0000  0.0000
              Bcc     0.0356    18.972     6.770     6.328 -0.0000  0.7345 -0.6786
 
              Baa    -0.0065    -3.459    -1.234    -1.154  1.0000  0.0000  0.0000
     8 H(1)   Bbb    -0.0021    -1.131    -0.404    -0.377 -0.0000  0.8292  0.5590
              Bcc     0.0086     4.591     1.638     1.531  0.0000 -0.5590  0.8292
 
              Baa    -0.0439   -23.404    -8.351    -7.807 -0.0000  1.0000 -0.0000
     9 H(1)   Bbb    -0.0078    -4.182    -1.492    -1.395  1.0000 -0.0000  0.0000
              Bcc     0.0517    27.586     9.843     9.202  0.0000  0.0000  1.0000
 
              Baa    -0.0065    -3.459    -1.234    -1.154  1.0000 -0.0000  0.0000
    10 H(1)   Bbb    -0.0021    -1.131    -0.404    -0.377  0.0000  0.8292 -0.5590
              Bcc     0.0086     4.591     1.638     1.531  0.0000  0.5590  0.8292
 
              Baa    -0.0297   -15.859    -5.659    -5.290  0.0000 -0.6786  0.7345
    11 H(1)   Bbb    -0.0058    -3.113    -1.111    -1.039  1.0000  0.0000  0.0000
              Bcc     0.0356    18.972     6.770     6.328 -0.0000  0.7345  0.6786
 

 ---------------------------------------------------------------------------------

 No NMR shielding tensors so no spin-rotation constants.
 Leave Link  601 at Tue Feb 25 12:24:07 2020, MaxMem=  6710886400 cpu:               5.1 elap:               0.3
 (Enter /opt/ohpc/pub/libs/gaussian/g16-A.03/haswell/g16/l9999.exe)

 Test job not archived.
 1\1\GINC-HASWELL008\SP\ULC-wHPBE\6-31G\C5H6(1+,2)\SMGO234\25-Feb-2020\
 0\\#P uLC-wHPBE/6-31G iop(3/107=0314400000, 3/108=0314400000) scf=(con
 ver=6,fermi,ndamp=35,noincfock,novaracc,vshift=500,xqc)\\H6 C5\\1,2\C,
 0,0.,0.895213,-0.933453\C,0,0.,1.131613,0.424372\C,0,0.,0.,1.240919\C,
 0,0.,-1.131613,0.424372\C,0,0.,-0.895213,-0.933453\H,0,0.,0.,-1.720797
 \H,0,0.,1.620085,-1.742217\H,0,0.,2.160007,0.773055\H,0,0.,0.,2.322589
 \H,0,0.,-2.160007,0.773055\H,0,0.,-1.620085,-1.742217\\Version=ES64L-G
 16RevA.03\State=2-B1\HF=-193.4680767\S2=0.79646\S2-1=0.\S2A=0.751249\R
 MSD=5.952e-07\Dipole=0.,0.,-0.7865556\Quadrupole=-7.9756678,2.4458009,
 5.5298668,0.,0.,0.\PG=C02V [C2(H1C1H1),SGV(C4H4)]\\@


 O WAD SOME POWER THE GIFTIE GIE US       
 TO SEE OURSELS AS OTHERS SEE US.....     
 IT WOULD FRAE MONIE A BLUNDER FREE US,   
                     AND FOOLISH NOTION...
 WHAT AIRS IN DRESS AND GAIT WAD LEA'E US,
                     AND EV'N DEVOTION....
                                          
              (ROBERT BURNS 'TO A LOUSE') 
 Job cpu time:       0 days  0 hours  0 minutes 51.1 seconds.
 Elapsed time:       0 days  0 hours  0 minutes  3.5 seconds.
 File lengths (MBytes):  RWF=    272 Int=      0 D2E=      0 Chk=     32 Scr=     32
 Normal termination of Gaussian 16 at Tue Feb 25 12:24:07 2020.
