 Entering Gaussian System, Link 0=g16
 Input=1b_tune_c2.gjf
 Output=1b_tune_c2.log
 Initial command:
 /opt/ohpc/pub/libs/gaussian/g16-A.03/haswell/g16/l1.exe "/scratch/smgo234/Ocelot/test/1b/tuning_1b_ocycle2/Gau-43615.inp" -scrdir="/scratch/smgo234/Ocelot/test/1b/tuning_1b_ocycle2/"
 Entering Link 1 = /opt/ohpc/pub/libs/gaussian/g16-A.03/haswell/g16/l1.exe PID=     43616.
  
 Copyright (c) 1988,1990,1992,1993,1995,1998,2003,2009,2016,
            Gaussian, Inc.  All Rights Reserved.
  
 This is part of the Gaussian(R) 16 program.  It is based on
 the Gaussian(R) 09 system (copyright 2009, Gaussian, Inc.),
 the Gaussian(R) 03 system (copyright 2003, Gaussian, Inc.),
 the Gaussian(R) 98 system (copyright 1998, Gaussian, Inc.),
 the Gaussian(R) 94 system (copyright 1995, Gaussian, Inc.),
 the Gaussian 92(TM) system (copyright 1992, Gaussian, Inc.),
 the Gaussian 90(TM) system (copyright 1990, Gaussian, Inc.),
 the Gaussian 88(TM) system (copyright 1988, Gaussian, Inc.),
 the Gaussian 86(TM) system (copyright 1986, Carnegie Mellon
 University), and the Gaussian 82(TM) system (copyright 1983,
 Carnegie Mellon University). Gaussian is a federally registered
 trademark of Gaussian, Inc.
  
 This software contains proprietary and confidential information,
 including trade secrets, belonging to Gaussian, Inc.
  
 This software is provided under written license and may be
 used, copied, transmitted, or stored only in accord with that
 written license.
  
 The following legend is applicable only to US Government
 contracts under FAR:
  
                    RESTRICTED RIGHTS LEGEND
  
 Use, reproduction and disclosure by the US Government is
 subject to restrictions as set forth in subparagraphs (a)
 and (c) of the Commercial Computer Software - Restricted
 Rights clause in FAR 52.227-19.
  
 Gaussian, Inc.
 340 Quinnipiac St., Bldg. 40, Wallingford CT 06492
  
  
 ---------------------------------------------------------------
 Warning -- This program may not be used in any manner that
 competes with the business of Gaussian, Inc. or will provide
 assistance to any competitor of Gaussian, Inc.  The licensee
 of this program is prohibited from giving any competitor of
 Gaussian, Inc. access to this program.  By using this program,
 the user acknowledges that Gaussian, Inc. is engaged in the
 business of creating and licensing software in the field of
 computational chemistry and represents and warrants to the
 licensee that it is not a competitor of Gaussian, Inc. and that
 it will not use this program in any manner prohibited above.
 ---------------------------------------------------------------
  

 Cite this work as:
 Gaussian 16, Revision A.03,
 M. J. Frisch, G. W. Trucks, H. B. Schlegel, G. E. Scuseria, 
 M. A. Robb, J. R. Cheeseman, G. Scalmani, V. Barone, 
 G. A. Petersson, H. Nakatsuji, X. Li, M. Caricato, A. V. Marenich, 
 J. Bloino, B. G. Janesko, R. Gomperts, B. Mennucci, H. P. Hratchian, 
 J. V. Ortiz, A. F. Izmaylov, J. L. Sonnenberg, D. Williams-Young, 
 F. Ding, F. Lipparini, F. Egidi, J. Goings, B. Peng, A. Petrone, 
 T. Henderson, D. Ranasinghe, V. G. Zakrzewski, J. Gao, N. Rega, 
 G. Zheng, W. Liang, M. Hada, M. Ehara, K. Toyota, R. Fukuda, 
 J. Hasegawa, M. Ishida, T. Nakajima, Y. Honda, O. Kitao, H. Nakai, 
 T. Vreven, K. Throssell, J. A. Montgomery, Jr., J. E. Peralta, 
 F. Ogliaro, M. J. Bearpark, J. J. Heyd, E. N. Brothers, K. N. Kudin, 
 V. N. Staroverov, T. A. Keith, R. Kobayashi, J. Normand, 
 K. Raghavachari, A. P. Rendell, J. C. Burant, S. S. Iyengar, 
 J. Tomasi, M. Cossi, J. M. Millam, M. Klene, C. Adamo, R. Cammi, 
 J. W. Ochterski, R. L. Martin, K. Morokuma, O. Farkas, 
 J. B. Foresman, and D. J. Fox, Gaussian, Inc., Wallingford CT, 2016.
 
 ******************************************
 Gaussian 16:  ES64L-G16RevA.03 25-Dec-2016
                25-Feb-2020 
 ******************************************
 %mem=50GB
 %nproc=16
 Will use up to   16 processors via shared memory.
 ----------------------------------------------------------------------
 #P uLC-wHPBE/6-31G iop(3/107=0419700000, 3/108=0419700000) scf=(conver
 =6,fermi,ndamp=35,noincfock,novaracc,vshift=500,xqc)
 ----------------------------------------------------------------------
 1/38=1,172=1/1;
 2/12=2,17=6,18=5,40=1/2;
 3/5=1,6=6,11=2,25=1,30=1,74=-71,107=419700000,108=419700000,116=2/1,2,3;
 4//1;
 5/5=100002,6=6,8=3,10=500,13=1,18=-1,22=13,38=1,93=35/2,8;
 6/7=2,8=2,9=2,10=2,28=1/1;
 99/5=1,9=1/99;
 Leave Link    1 at Tue Feb 25 12:23:08 2020, MaxMem=  6710886400 cpu:               9.8 elap:               0.6
 (Enter /opt/ohpc/pub/libs/gaussian/g16-A.03/haswell/g16/l101.exe)
 -----
 H6 C5
 -----
 Symbolic Z-matrix:
 Charge =  1 Multiplicity = 2
 C                     0.        0.89521  -0.93345 
 C                     0.        1.13161   0.42437 
 C                     0.        0.        1.24092 
 C                     0.       -1.13161   0.42437 
 C                     0.       -0.89521  -0.93345 
 H                     0.        0.       -1.7208 
 H                     0.        1.62009  -1.74222 
 H                     0.        2.16001   0.77306 
 H                     0.        0.        2.32259 
 H                     0.       -2.16001   0.77306 
 H                     0.       -1.62009  -1.74222 
 
 ITRead=  0  0  0  0  0  0  0  0  0  0  0
 MicOpt= -1 -1 -1 -1 -1 -1 -1 -1 -1 -1 -1
 NAtoms=     11 NQM=       11 NQMF=       0 NMMI=      0 NMMIF=      0
                NMic=       0 NMicF=      0.
                    Isotopes and Nuclear Properties:
 (Nuclear quadrupole moments (NQMom) in fm**2, nuclear magnetic moments (NMagM)
  in nuclear magnetons)

  Atom         1           2           3           4           5           6           7           8           9          10
 IAtWgt=          12          12          12          12          12           1           1           1           1           1
 AtmWgt=  12.0000000  12.0000000  12.0000000  12.0000000  12.0000000   1.0078250   1.0078250   1.0078250   1.0078250   1.0078250
 NucSpn=           0           0           0           0           0           1           1           1           1           1
 AtZEff=  -0.0000000  -0.0000000  -0.0000000  -0.0000000  -0.0000000  -0.0000000  -0.0000000  -0.0000000  -0.0000000  -0.0000000
 NQMom=    0.0000000   0.0000000   0.0000000   0.0000000   0.0000000   0.0000000   0.0000000   0.0000000   0.0000000   0.0000000
 NMagM=    0.0000000   0.0000000   0.0000000   0.0000000   0.0000000   2.7928460   2.7928460   2.7928460   2.7928460   2.7928460
 AtZNuc=   6.0000000   6.0000000   6.0000000   6.0000000   6.0000000   1.0000000   1.0000000   1.0000000   1.0000000   1.0000000

  Atom        11
 IAtWgt=           1
 AtmWgt=   1.0078250
 NucSpn=           1
 AtZEff=  -0.0000000
 NQMom=    0.0000000
 NMagM=    2.7928460
 AtZNuc=   1.0000000
 Leave Link  101 at Tue Feb 25 12:23:09 2020, MaxMem=  6710886400 cpu:               2.8 elap:               0.2
 (Enter /opt/ohpc/pub/libs/gaussian/g16-A.03/haswell/g16/l202.exe)
                          Input orientation:                          
 ---------------------------------------------------------------------
 Center     Atomic      Atomic             Coordinates (Angstroms)
 Number     Number       Type             X           Y           Z
 ---------------------------------------------------------------------
      1          6           0        0.000000    0.895213   -0.933453
      2          6           0        0.000000    1.131613    0.424372
      3          6           0        0.000000    0.000000    1.240919
      4          6           0        0.000000   -1.131613    0.424372
      5          6           0        0.000000   -0.895213   -0.933453
      6          1           0        0.000000    0.000000   -1.720797
      7          1           0        0.000000    1.620085   -1.742217
      8          1           0        0.000000    2.160007    0.773055
      9          1           0        0.000000    0.000000    2.322589
     10          1           0        0.000000   -2.160007    0.773055
     11          1           0        0.000000   -1.620085   -1.742217
 ---------------------------------------------------------------------
                    Distance matrix (angstroms):
                    1          2          3          4          5
     1  C    0.000000
     2  C    1.378250   0.000000
     3  C    2.351446   1.395456   0.000000
     4  C    2.439613   2.263226   1.395456   0.000000
     5  C    1.790426   2.439613   2.351446   1.378250   0.000000
     6  H    1.192190   2.425345   2.961716   2.425345   1.192190
     7  H    1.086066   2.220971   3.394669   3.502278   2.642125
     8  H    2.124117   1.085898   2.210097   3.310037   3.499506
     9  H    3.376865   2.209927   1.081670   2.209927   3.376865
    10  H    3.499506   3.310037   2.210097   1.085898   2.124117
    11  H    2.642125   3.502278   3.394669   2.220971   1.086066
                    6          7          8          9         10
     6  H    0.000000
     7  H    1.620227   0.000000
     8  H    3.299231   2.572569   0.000000
     9  H    4.043386   4.375765   2.658324   0.000000
    10  H    3.299231   4.540450   4.320014   2.658324   0.000000
    11  H    1.620227   3.240170   4.540450   4.375765   2.572569
                   11
    11  H    0.000000
 Stoichiometry    C5H6(1+,2)
 Framework group  C2V[C2(HCH),SGV(C4H4)]
 Deg. of freedom    10
 Full point group                 C2V     NOp   4
 Largest Abelian subgroup         C2V     NOp   4
 Largest concise Abelian subgroup C2      NOp   2
                         Standard orientation:                         
 ---------------------------------------------------------------------
 Center     Atomic      Atomic             Coordinates (Angstroms)
 Number     Number       Type             X           Y           Z
 ---------------------------------------------------------------------
      1          6           0        0.000000    0.895213   -0.933453
      2          6           0        0.000000    1.131613    0.424372
      3          6           0        0.000000   -0.000000    1.240919
      4          6           0       -0.000000   -1.131613    0.424372
      5          6           0       -0.000000   -0.895213   -0.933453
      6          1           0       -0.000000    0.000000   -1.720797
      7          1           0        0.000000    1.620085   -1.742217
      8          1           0        0.000000    2.160007    0.773055
      9          1           0        0.000000   -0.000000    2.322589
     10          1           0       -0.000000   -2.160007    0.773055
     11          1           0       -0.000000   -1.620085   -1.742217
 ---------------------------------------------------------------------
 Rotational constants (GHZ):           8.5037938           7.8157507           4.0726340
 Leave Link  202 at Tue Feb 25 12:23:09 2020, MaxMem=  6710886400 cpu:               0.2 elap:               0.0
 (Enter /opt/ohpc/pub/libs/gaussian/g16-A.03/haswell/g16/l301.exe)
 Standard basis: 6-31G (6D, 7F)
 Ernie: Thresh=  0.10000D-02 Tol=  0.10000D-05 Strict=F.
 There are    27 symmetry adapted cartesian basis functions of A1  symmetry.
 There are     4 symmetry adapted cartesian basis functions of A2  symmetry.
 There are     6 symmetry adapted cartesian basis functions of B1  symmetry.
 There are    20 symmetry adapted cartesian basis functions of B2  symmetry.
 There are    27 symmetry adapted basis functions of A1  symmetry.
 There are     4 symmetry adapted basis functions of A2  symmetry.
 There are     6 symmetry adapted basis functions of B1  symmetry.
 There are    20 symmetry adapted basis functions of B2  symmetry.
    57 basis functions,   134 primitive gaussians,    57 cartesian basis functions
    18 alpha electrons       17 beta electrons
       nuclear repulsion energy       155.4439185285 Hartrees.
 IExCor=33909 DFT=T Ex+Corr=LC-wHPBE ExCW=0 ScaHFX=  1.000000
 ScaDFX=  1.000000  1.000000  1.000000  1.000000 ScalE2=  1.000000  1.000000
 IRadAn=      5 IRanWt=     -1 IRanGd=            0 ICorTp=0 IEmpDi=  4
 HFx  wShort=  0.000000 wLong=  0.419700 cFull=  0.000000 cShort=  0.000000 cLong=  1.000000
 DFx  wShort=  0.000000 wLong=  0.419700 cFull=  0.000000 cShort=  1.000000 cLong=  0.000000
 NAtoms=   11 NActive=   11 NUniq=    7 SFac= 2.47D+00 NAtFMM=   60 NAOKFM=F Big=F
 Integral buffers will be    131072 words long.
 Raffenetti 2 integral format.
 Two-electron integral symmetry is turned on.
 Leave Link  301 at Tue Feb 25 12:23:09 2020, MaxMem=  6710886400 cpu:               1.0 elap:               0.1
 (Enter /opt/ohpc/pub/libs/gaussian/g16-A.03/haswell/g16/l302.exe)
 NPDir=0 NMtPBC=     1 NCelOv=     1 NCel=       1 NClECP=     1 NCelD=      1
         NCelK=      1 NCelE2=     1 NClLst=     1 CellRange=     0.0.
 One-electron integrals computed using PRISM.
 One-electron integral symmetry used in STVInt
 NBasis=    57 RedAO= T EigKep=  1.90D-03  NBF=    27     4     6    20
 NBsUse=    57 1.00D-06 EigRej= -1.00D+00 NBFU=    27     4     6    20
 Precomputing XC quadrature grid using
 IXCGrd= 4 IRadAn=           5 IRanWt=          -1 IRanGd=           0 AccXCQ= 0.00D+00.
 Generated NRdTot=       0 NPtTot=           0 NUsed=           0 NTot=          32
 NSgBfM=    57    57    57    57    57 MxSgAt=    11 MxSgA2=    11.
 Leave Link  302 at Tue Feb 25 12:23:09 2020, MaxMem=  6710886400 cpu:               2.8 elap:               0.2
 (Enter /opt/ohpc/pub/libs/gaussian/g16-A.03/haswell/g16/l303.exe)
 DipDrv:  MaxL=1.
 Leave Link  303 at Tue Feb 25 12:23:09 2020, MaxMem=  6710886400 cpu:               0.5 elap:               0.1
 (Enter /opt/ohpc/pub/libs/gaussian/g16-A.03/haswell/g16/l401.exe)
 ExpMin= 1.61D-01 ExpMax= 3.05D+03 ExpMxC= 4.57D+02 IAcc=3 IRadAn=         5 AccDes= 0.00D+00
 Harris functional with IExCor=33909 and IRadAn=       5 diagonalized for initial guess.
 HarFok:  IExCor=33909 AccDes= 0.00D+00 IRadAn=         5 IDoV= 1 UseB2=F ITyADJ=14
 ICtDFT=  3500011 ScaDFX=  1.000000  1.000000  1.000000  1.000000
 FoFCou: FMM=F IPFlag=           0 FMFlag=      100000 FMFlg1=           0
         NFxFlg=           0 DoJE=T BraDBF=F KetDBF=T FulRan=T
         wScrn=  0.000000 ICntrl=       500 IOpCl=  0 I1Cent=   200000004 NGrid=           0
         NMat0=    1 NMatS0=      1 NMatT0=    0 NMatD0=    1 NMtDS0=    0 NMtDT0=    0
 Petite list used in FoFCou.
 Harris En= -186.387425292317    
 JPrj=0 DoOrth=F DoCkMO=F.
 Initial guess orbital symmetries:
 Alpha Orbitals:
       Occupied  (A1) (B2) (A1) (B2) (A1) (A1) (B2) (A1) (A1) (B2)
                 (A1) (B2) (A1) (B2) (A1) (B1) (A2) (B1)
       Virtual   (A2) (B2) (B1) (A1) (A1) (B2) (A1) (B2) (A1) (B2)
                 (A1) (A1) (B2) (B2) (B1) (A2) (B1) (A1) (B2) (A1)
                 (A1) (A2) (B1) (B2) (B2) (A1) (B2) (A1) (A1) (B2)
                 (A1) (A1) (A1) (B2) (A1) (B2) (A1) (A1) (B2)
 Beta  Orbitals:
       Occupied  (A1) (B2) (A1) (B2) (A1) (A1) (B2) (A1) (A1) (B2)
                 (A1) (B2) (A1) (B2) (A1) (B1) (A2)
       Virtual   (B1) (A2) (B2) (B1) (A1) (A1) (B2) (A1) (B2) (A1)
                 (B2) (A1) (A1) (B2) (B2) (B1) (A2) (B1) (A1) (B2)
                 (A1) (A1) (A2) (B1) (B2) (B2) (A1) (B2) (A1) (A1)
                 (B2) (A1) (A1) (A1) (B2) (A1) (B2) (A1) (A1) (B2)
 The electronic state of the initial guess is 2-B1.
 Initial guess <Sx>= 0.0000 <Sy>= 0.0000 <Sz>= 0.5000 <S**2>= 0.7500 S= 0.5000
 Leave Link  401 at Tue Feb 25 12:23:09 2020, MaxMem=  6710886400 cpu:               4.2 elap:               0.3
 (Enter /opt/ohpc/pub/libs/gaussian/g16-A.03/haswell/g16/l502.exe)
 Keep R1 and R2 ints in memory in symmetry-blocked form, NReq=16815681.
 FoFCou: FMM=F IPFlag=           0 FMFlag=           0 FMFlg1=           0
         NFxFlg=           0 DoJE=F BraDBF=F KetDBF=F FulRan=T
         wScrn=  0.000000 ICntrl=       600 IOpCl=  0 I1Cent=           0 NGrid=           0
         NMat0=    1 NMatS0=   1653 NMatT0=    0 NMatD0=    1 NMtDS0=    0 NMtDT0=    0
 Petite list used in FoFCou.
 UHF open shell SCF:
 Using DIIS extrapolation, IDIIS=    10.
 NGot=  6710886400 LenX=  6710059561 LenY=  6710055871
 Requested convergence on RMS density matrix=1.00D-06 within  32 cycles.
 Requested convergence on MAX density matrix=1.00D-04.
 Requested convergence on             energy=1.00D-04.
 Virtual orbitals will be shifted by   0.500 hartree.
 No special actions if energy rises.
 Dynamic level shift is on during FON iterations.

 Cycle   1  Pass 1  IDiag  1:
 E= -193.417628915465    
 DIIS: error= 4.74D-02 at cycle   1 NSaved=   1.
 NSaved= 1 IEnMin= 1 EnMin= -193.417628915465     IErMin= 1 ErrMin= 4.74D-02
 ErrMax= 4.74D-02  0.00D+00 EMaxC= 1.00D+00 BMatC= 1.62D-01 BMatP= 1.62D-01
 IDIUse=1 WtCom= 1.00D+00 WtEn= 0.00D+00
 Coeff-Com:  0.100D+01
 Coeff:      0.100D+01
 Gap=     0.394 Goal=   None    Shift=    0.500
 T= 1771. Gap= 0.862 NK=0 IS=   19 IE=   57 IFin=   18
          NO(<0.9)=   0  NV(>0.1)=   0     18.00e < EF      0.00e >EF  Err=0.0D+00
 Gap=     0.270 Goal=   None    Shift=    0.500
 T= 1771. Gap= 0.773 NK=0 IS=   18 IE=   57 IFin=   17
          NO(<0.9)=   0  NV(>0.1)=   0     17.00e < EF      0.00e >EF  Err=0.0D+00
 GapD=    0.270 DampG=1.000 DampE=0.500 DampFc=0.5000 IDamp=-1.
 Damping current iteration by 5.00D-01
 RMSDP=6.89D-03 MaxDP=5.48D-02              OVMax= 9.54D-02

 Cycle   2  Pass 1  IDiag  1:
 E= -193.448470902027     Delta-E=       -0.030841986562 Rises=F Damp=T
 DIIS: error= 2.49D-02 at cycle   2 NSaved=   2.
 NSaved= 2 IEnMin= 2 EnMin= -193.448470902027     IErMin= 2 ErrMin= 2.49D-02
 ErrMax= 2.49D-02  0.00D+00 EMaxC= 1.00D+00 BMatC= 3.36D-02 BMatP= 1.62D-01
 IDIUse=1 WtCom= 1.00D+00 WtEn= 0.00D+00
 Coeff-Com: -0.614D+00 0.161D+01
 Coeff:     -0.614D+00 0.161D+01
 Gap=     0.454 Goal=   None    Shift=    0.500
 T= 1667. Gap= 0.943 NK=4 IS=   19 IE=   23 IFin=   18
          NO(<0.9)=   0  NV(>0.1)=   0     18.00e < EF      0.00e >EF  Err=0.0D+00
 Gap=     0.296 Goal=   None    Shift=    0.500
 T= 1667. Gap= 0.795 NK=4 IS=   18 IE=   23 IFin=   17
          NO(<0.9)=   0  NV(>0.1)=   0     17.00e < EF      0.00e >EF  Err=0.0D+00
 GapD=    0.296 DampG=1.000 DampE=0.500 DampFc=0.5000 IDamp=-1.
 Damping current iteration by 5.00D-01
 RMSDP=4.68D-03 MaxDP=3.64D-02 DE=-3.08D-02 OVMax= 1.85D-02

 Cycle   3  Pass 1  IDiag  1:
 E= -193.460785625623     Delta-E=       -0.012314723596 Rises=F Damp=T
 DIIS: error= 1.53D-02 at cycle   3 NSaved=   3.
 NSaved= 3 IEnMin= 3 EnMin= -193.460785625623     IErMin= 3 ErrMin= 1.53D-02
 ErrMax= 1.53D-02  0.00D+00 EMaxC= 1.00D+00 BMatC= 9.70D-03 BMatP= 3.36D-02
 IDIUse=1 WtCom= 1.00D+00 WtEn= 0.00D+00
 Coeff-Com:  0.421D+00-0.227D+01 0.285D+01
 Coeff:      0.421D+00-0.227D+01 0.285D+01
 Gap=     0.447 Goal=   None    Shift=    0.500
 T= 1480. Gap= 0.948 NK=0 IS=   19 IE=   57 IFin=   18
          NO(<0.9)=   0  NV(>0.1)=   0     18.00e < EF      0.00e >EF  Err=0.0D+00
 Gap=     0.303 Goal=   None    Shift=    0.500
 T= 1480. Gap= 0.803 NK=0 IS=   18 IE=   57 IFin=   17
          NO(<0.9)=   0  NV(>0.1)=   0     17.00e < EF      0.00e >EF  Err=0.0D+00
 GapD=    0.303 DampG=1.000 DampE=0.500 DampFc=0.5000 IDamp=-1.
 Damping current iteration by 5.00D-01
 RMSDP=2.94D-03 MaxDP=2.08D-02 DE=-1.23D-02 OVMax= 1.86D-02

 Cycle   4  Pass 1  IDiag  1:
 E= -193.467158319564     Delta-E=       -0.006372693942 Rises=F Damp=T
 DIIS: error= 1.05D-02 at cycle   4 NSaved=   4.
 NSaved= 4 IEnMin= 4 EnMin= -193.467158319564     IErMin= 4 ErrMin= 1.05D-02
 ErrMax= 1.05D-02  0.00D+00 EMaxC= 1.00D+00 BMatC= 3.63D-03 BMatP= 9.70D-03
 IDIUse=1 WtCom= 1.00D+00 WtEn= 0.00D+00
 Coeff-Com: -0.133D+00 0.159D+01-0.501D+01 0.455D+01
 Coeff:     -0.133D+00 0.159D+01-0.501D+01 0.455D+01
 Gap=     0.453 Goal=   None    Shift=    0.500
 T= 1151. Gap= 0.954 NK=0 IS=   19 IE=   57 IFin=   18
          NO(<0.9)=   0  NV(>0.1)=   0     18.00e < EF      0.00e >EF  Err=0.0D+00
 Gap=     0.308 Goal=   None    Shift=    0.500
 T= 1151. Gap= 0.809 NK=0 IS=   18 IE=   57 IFin=   17
          NO(<0.9)=   0  NV(>0.1)=   0     17.00e < EF      0.00e >EF  Err=0.0D+00
 GapD=    0.308 DampG=1.000 DampE=0.500 DampFc=0.5000 IDamp=-1.
 Damping current iteration by 5.00D-01
 RMSDP=1.94D-03 MaxDP=1.80D-02 DE=-6.37D-03 OVMax= 2.00D-02

 Cycle   5  Pass 1  IDiag  1:
 E= -193.470871166258     Delta-E=       -0.003712846694 Rises=F Damp=T
 DIIS: error= 7.67D-03 at cycle   5 NSaved=   5.
 NSaved= 5 IEnMin= 5 EnMin= -193.470871166258     IErMin= 5 ErrMin= 7.67D-03
 ErrMax= 7.67D-03  0.00D+00 EMaxC= 1.00D+00 BMatC= 1.52D-03 BMatP= 3.63D-03
 IDIUse=1 WtCom= 1.00D+00 WtEn= 0.00D+00
 Coeff-Com: -0.185D+00 0.825D+00-0.229D+00-0.344D+01 0.403D+01
 Coeff:     -0.185D+00 0.825D+00-0.229D+00-0.344D+01 0.403D+01
 Gap=     0.456 Goal=   None    Shift=    0.500
 T=  902. Gap= 0.957 NK=0 IS=   19 IE=   57 IFin=   18
          NO(<0.9)=   0  NV(>0.1)=   0     18.00e < EF      0.00e >EF  Err=0.0D+00
 Gap=     0.313 Goal=   None    Shift=    0.500
 T=  902. Gap= 0.813 NK=0 IS=   18 IE=   57 IFin=   17
          NO(<0.9)=   0  NV(>0.1)=   0     17.00e < EF      0.00e >EF  Err=0.0D+00
 GapD=    0.313 DampG=1.000 DampE=1.000 DampFc=1.0000 IDamp=-1.
 RMSDP=1.31D-03 MaxDP=1.60D-02 DE=-3.71D-03 OVMax= 1.81D-02

 Cycle   6  Pass 1  IDiag  1:
 E= -193.476147821205     Delta-E=       -0.005276654947 Rises=F Damp=F
 DIIS: error= 3.64D-03 at cycle   6 NSaved=   6.
 NSaved= 6 IEnMin= 6 EnMin= -193.476147821205     IErMin= 6 ErrMin= 3.64D-03
 ErrMax= 3.64D-03  0.00D+00 EMaxC= 1.00D+00 BMatC= 2.45D-04 BMatP= 1.52D-03
 IDIUse=1 WtCom= 1.00D+00 WtEn= 0.00D+00
 Coeff-Com:  0.251D-01-0.507D+00 0.173D+01-0.687D+00-0.190D+01 0.234D+01
 Coeff:      0.251D-01-0.507D+00 0.173D+01-0.687D+00-0.190D+01 0.234D+01
 Gap=     0.460 Goal=   None    Shift=    0.500
 T=  645. Gap= 0.960 NK=0 IS=   19 IE=   57 IFin=   18
          NO(<0.9)=   0  NV(>0.1)=   0     18.00e < EF      0.00e >EF  Err=0.0D+00
 Gap=     0.315 Goal=   None    Shift=    0.500
 T=  645. Gap= 0.816 NK=0 IS=   18 IE=   57 IFin=   17
          NO(<0.9)=   0  NV(>0.1)=   0     17.00e < EF      0.00e >EF  Err=0.0D+00
 GapD=    0.315 DampG=1.000 DampE=1.000 DampFc=1.0000 IDamp=-1.
 RMSDP=3.90D-04 MaxDP=5.98D-03 DE=-5.28D-03 OVMax= 1.61D-02

 Cycle   7  Pass 1  IDiag  1:
 E= -193.476595577180     Delta-E=       -0.000447755974 Rises=F Damp=F
 DIIS: error= 2.64D-03 at cycle   7 NSaved=   7.
 NSaved= 7 IEnMin= 7 EnMin= -193.476595577180     IErMin= 7 ErrMin= 2.64D-03
 ErrMax= 2.64D-03  0.00D+00 EMaxC= 1.00D+00 BMatC= 1.10D-04 BMatP= 2.45D-04
 IDIUse=1 WtCom= 1.00D+00 WtEn= 0.00D+00
 Coeff-Com: -0.848D-03 0.163D+00-0.993D+00 0.154D+01-0.458D+00-0.219D+01
 Coeff-Com:  0.294D+01
 Coeff:     -0.848D-03 0.163D+00-0.993D+00 0.154D+01-0.458D+00-0.219D+01
 Coeff:      0.294D+01
 Gap=     0.461 Goal=   None    Shift=    0.500
 T=  377. Gap= 0.961 NK=0 IS=   19 IE=   57 IFin=   18
          NO(<0.9)=   0  NV(>0.1)=   0     18.00e < EF      0.00e >EF  Err=0.0D+00
 Gap=     0.317 Goal=   None    Shift=    0.500
 T=  377. Gap= 0.817 NK=0 IS=   18 IE=   57 IFin=   17
          NO(<0.9)=   0  NV(>0.1)=   0     17.00e < EF      0.00e >EF  Err=0.0D+00
 GapD=    0.317 DampG=1.000 DampE=1.000 DampFc=1.0000 IDamp=-1.
 RMSDP=2.86D-04 MaxDP=4.12D-03 DE=-4.48D-04 OVMax= 1.27D-02

 Cycle   8  Pass 1  IDiag  1:
 E= -193.476808234648     Delta-E=       -0.000212657468 Rises=F Damp=F
 DIIS: error= 1.85D-03 at cycle   8 NSaved=   8.
 NSaved= 8 IEnMin= 8 EnMin= -193.476808234648     IErMin= 8 ErrMin= 1.85D-03
 ErrMax= 1.85D-03  0.00D+00 EMaxC= 1.00D+00 BMatC= 5.20D-05 BMatP= 1.10D-04
 IDIUse=1 WtCom= 1.00D+00 WtEn= 0.00D+00
 Coeff-Com: -0.225D-01 0.334D+00-0.119D+01 0.736D+00 0.938D+00-0.198D+01
 Coeff-Com:  0.180D+00 0.201D+01
 Coeff:     -0.225D-01 0.334D+00-0.119D+01 0.736D+00 0.938D+00-0.198D+01
 Coeff:      0.180D+00 0.201D+01
 Gap=     0.462 Goal=   None    Shift=    0.500
 T=   53. Gap= 0.962 NK=0 IS=   19 IE=   57 IFin=   18
          NO(<0.9)=   0  NV(>0.1)=   0     18.00e < EF      0.00e >EF  Err=0.0D+00
 Gap=     0.317 Goal=   None    Shift=    0.500
 T=   53. Gap= 0.817 NK=0 IS=   18 IE=   57 IFin=   17
          NO(<0.9)=   0  NV(>0.1)=   0     17.00e < EF      0.00e >EF  Err=0.0D+00
 GapD=    0.317 DampG=1.000 DampE=1.000 DampFc=1.0000 IDamp=-1.
 RMSDP=2.08D-04 MaxDP=2.86D-03 DE=-2.13D-04 OVMax= 9.66D-03

 Cycle   9  Pass 1  IDiag  1:
 E= -193.476909047630     Delta-E=       -0.000100812982 Rises=F Damp=F
 DIIS: error= 1.23D-03 at cycle   9 NSaved=   9.
 NSaved= 9 IEnMin= 9 EnMin= -193.476909047630     IErMin= 9 ErrMin= 1.23D-03
 ErrMax= 1.23D-03  0.00D+00 EMaxC= 1.00D+00 BMatC= 2.25D-05 BMatP= 5.20D-05
 IDIUse=1 WtCom= 1.00D+00 WtEn= 0.00D+00
 Coeff-Com:  0.127D-01-0.222D+00 0.998D+00-0.124D+01 0.119D+00 0.180D+01
 Coeff-Com: -0.174D+01-0.228D+01 0.356D+01
 Coeff:      0.127D-01-0.222D+00 0.998D+00-0.124D+01 0.119D+00 0.180D+01
 Coeff:     -0.174D+01-0.228D+01 0.356D+01
 Gap=     0.462 Goal=   None    Shift=    0.500
 Gap=     0.318 Goal=   None    Shift=    0.500
 GapD=    0.318 DampG=1.000 DampE=1.000 DampFc=1.0000 IDamp=-1.
 RMSDP=1.66D-04 MaxDP=2.54D-03 DE=-1.01D-04 OVMax= 8.12D-03

 Cycle  10  Pass 1  IDiag  1:
 E= -193.476961050515     Delta-E=       -0.000052002885 Rises=F Damp=F
 DIIS: error= 7.36D-04 at cycle  10 NSaved=  10.
 NSaved=10 IEnMin=10 EnMin= -193.476961050515     IErMin=10 ErrMin= 7.36D-04
 ErrMax= 7.36D-04  0.00D+00 EMaxC= 1.00D+00 BMatC= 8.66D-06 BMatP= 2.25D-05
 IDIUse=1 WtCom= 1.00D+00 WtEn= 0.00D+00
 Coeff-Com:  0.804D-03 0.624D-01-0.334D+00 0.467D+00-0.103D+00-0.636D+00
 Coeff-Com:  0.976D+00 0.284D+00-0.278D+01 0.307D+01
 Coeff:      0.804D-03 0.624D-01-0.334D+00 0.467D+00-0.103D+00-0.636D+00
 Coeff:      0.976D+00 0.284D+00-0.278D+01 0.307D+01
 Gap=     0.462 Goal=   None    Shift=    0.500
 Gap=     0.318 Goal=   None    Shift=    0.500
 RMSDP=1.02D-04 MaxDP=1.65D-03 DE=-5.20D-05 OVMax= 5.17D-03

 Cycle  11  Pass 1  IDiag  1:
 E= -193.476980812709     Delta-E=       -0.000019762194 Rises=F Damp=F
 DIIS: error= 4.31D-04 at cycle  11 NSaved=  11.
 NSaved=11 IEnMin=11 EnMin= -193.476980812709     IErMin=11 ErrMin= 4.31D-04
 ErrMax= 4.31D-04  0.00D+00 EMaxC= 1.00D+00 BMatC= 3.49D-06 BMatP= 8.66D-06
 IDIUse=1 WtCom= 1.00D+00 WtEn= 0.00D+00
 Coeff-Com:  0.367D-02-0.123D+00 0.626D+00-0.937D+00 0.309D+00 0.111D+01
 Coeff-Com: -0.163D+01-0.950D+00 0.497D+01-0.742D+01 0.504D+01
 Coeff:      0.367D-02-0.123D+00 0.626D+00-0.937D+00 0.309D+00 0.111D+01
 Coeff:     -0.163D+01-0.950D+00 0.497D+01-0.742D+01 0.504D+01
 Gap=     0.462 Goal=   None    Shift=    0.500
 Gap=     0.318 Goal=   None    Shift=    0.500
 RMSDP=6.66D-05 MaxDP=1.02D-03 DE=-1.98D-05 OVMax= 3.40D-03

 Cycle  12  Pass 1  IDiag  1:
 E= -193.476988595271     Delta-E=       -0.000007782562 Rises=F Damp=F
 DIIS: error= 2.39D-04 at cycle  12 NSaved=  12.
 NSaved=12 IEnMin=12 EnMin= -193.476988595271     IErMin=12 ErrMin= 2.39D-04
 ErrMax= 2.39D-04  0.00D+00 EMaxC= 1.00D+00 BMatC= 1.25D-06 BMatP= 3.49D-06
 IDIUse=1 WtCom= 1.00D+00 WtEn= 0.00D+00
 Coeff-Com:  0.672D-03 0.422D-02-0.338D-01 0.733D-01-0.506D-01-0.660D-01
 Coeff-Com:  0.251D+00-0.637D-01-0.100D+01 0.255D+01-0.393D+01 0.328D+01
 Coeff:      0.672D-03 0.422D-02-0.338D-01 0.733D-01-0.506D-01-0.660D-01
 Coeff:      0.251D+00-0.637D-01-0.100D+01 0.255D+01-0.393D+01 0.328D+01
 Gap=     0.462 Goal=   None    Shift=    0.500
 Gap=     0.318 Goal=   None    Shift=    0.500
 RMSDP=3.96D-05 MaxDP=5.78D-04 DE=-7.78D-06 OVMax= 2.01D-03

 Cycle  13  Pass 1  IDiag  1:
 E= -193.476991256846     Delta-E=       -0.000002661575 Rises=F Damp=F
 DIIS: error= 1.28D-04 at cycle  13 NSaved=  13.
 NSaved=13 IEnMin=13 EnMin= -193.476991256846     IErMin=13 ErrMin= 1.28D-04
 ErrMax= 1.28D-04  0.00D+00 EMaxC= 1.00D+00 BMatC= 4.37D-07 BMatP= 1.25D-06
 IDIUse=1 WtCom= 1.00D+00 WtEn= 0.00D+00
 Coeff-Com:  0.140D-02-0.254D-01 0.130D+00-0.223D+00 0.111D+00 0.223D+00
 Coeff-Com: -0.421D+00-0.178D+00 0.153D+01-0.297D+01 0.405D+01-0.523D+01
 Coeff-Com:  0.401D+01
 Coeff:      0.140D-02-0.254D-01 0.130D+00-0.223D+00 0.111D+00 0.223D+00
 Coeff:     -0.421D+00-0.178D+00 0.153D+01-0.297D+01 0.405D+01-0.523D+01
 Coeff:      0.401D+01
 Gap=     0.462 Goal=   None    Shift=    0.500
 Gap=     0.318 Goal=   None    Shift=    0.500
 RMSDP=2.32D-05 MaxDP=3.33D-04 DE=-2.66D-06 OVMax= 1.18D-03

 Cycle  14  Pass 1  IDiag  1:
 E= -193.476992123148     Delta-E=       -0.000000866303 Rises=F Damp=F
 DIIS: error= 6.42D-05 at cycle  14 NSaved=  14.
 NSaved=14 IEnMin=14 EnMin= -193.476992123148     IErMin=14 ErrMin= 6.42D-05
 ErrMax= 6.42D-05  0.00D+00 EMaxC= 1.00D+00 BMatC= 1.49D-07 BMatP= 4.37D-07
 IDIUse=1 WtCom= 1.00D+00 WtEn= 0.00D+00
 Coeff-Com:  0.660D-03-0.889D-02 0.370D-01-0.413D-01-0.233D-02 0.559D-01
 Coeff-Com: -0.153D-01-0.769D-01-0.123D-01 0.346D+00-0.109D+01 0.231D+01
 Coeff-Com: -0.372D+01 0.322D+01
 Coeff:      0.660D-03-0.889D-02 0.370D-01-0.413D-01-0.233D-02 0.559D-01
 Coeff:     -0.153D-01-0.769D-01-0.123D-01 0.346D+00-0.109D+01 0.231D+01
 Coeff:     -0.372D+01 0.322D+01
 Gap=     0.462 Goal=   None    Shift=    0.500
 Gap=     0.318 Goal=   None    Shift=    0.500
 RMSDP=1.23D-05 MaxDP=1.72D-04 DE=-8.66D-07 OVMax= 6.35D-04

 Cycle  15  Pass 1  IDiag  1:
 E= -193.476992375017     Delta-E=       -0.000000251869 Rises=F Damp=F
 DIIS: error= 3.19D-05 at cycle  15 NSaved=  15.
 NSaved=15 IEnMin=15 EnMin= -193.476992375017     IErMin=15 ErrMin= 3.19D-05
 ErrMax= 3.19D-05  0.00D+00 EMaxC= 1.00D+00 BMatC= 4.58D-08 BMatP= 1.49D-07
 IDIUse=1 WtCom= 1.00D+00 WtEn= 0.00D+00
 Coeff-Com: -0.278D-03 0.343D-02-0.126D-01 0.105D-01 0.573D-02-0.188D-01
 Coeff-Com: -0.246D-03 0.182D-01 0.570D-01-0.233D+00 0.641D+00-0.160D+01
 Coeff-Com:  0.301D+01-0.454D+01 0.367D+01
 Coeff:     -0.278D-03 0.343D-02-0.126D-01 0.105D-01 0.573D-02-0.188D-01
 Coeff:     -0.246D-03 0.182D-01 0.570D-01-0.233D+00 0.641D+00-0.160D+01
 Coeff:      0.301D+01-0.454D+01 0.367D+01
 Gap=     0.462 Goal=   None    Shift=    0.500
 Gap=     0.318 Goal=   None    Shift=    0.500
 RMSDP=6.10D-06 MaxDP=8.12D-05 DE=-2.52D-07 OVMax= 3.17D-04

 Cycle  16  Pass 1  IDiag  1:
 E= -193.476992441687     Delta-E=       -0.000000066669 Rises=F Damp=F
 DIIS: error= 1.81D-05 at cycle  16 NSaved=  16.
 NSaved=16 IEnMin=16 EnMin= -193.476992441687     IErMin=16 ErrMin= 1.81D-05
 ErrMax= 1.81D-05  0.00D+00 EMaxC= 1.00D+00 BMatC= 1.33D-08 BMatP= 4.58D-08
 IDIUse=1 WtCom= 1.00D+00 WtEn= 0.00D+00
 Coeff-Com:  0.112D-03-0.147D-02 0.693D-02-0.113D-01 0.540D-02 0.538D-02
 Coeff-Com:  0.142D-03-0.166D-01 0.194D-01 0.378D-02-0.129D+00 0.452D+00
 Coeff-Com: -0.111D+01 0.223D+01-0.369D+01 0.323D+01
 Coeff:      0.112D-03-0.147D-02 0.693D-02-0.113D-01 0.540D-02 0.538D-02
 Coeff:      0.142D-03-0.166D-01 0.194D-01 0.378D-02-0.129D+00 0.452D+00
 Coeff:     -0.111D+01 0.223D+01-0.369D+01 0.323D+01
 Gap=     0.462 Goal=   None    Shift=    0.500
 Gap=     0.318 Goal=   None    Shift=    0.500
 RMSDP=2.95D-06 MaxDP=3.89D-05 DE=-6.67D-08 OVMax= 1.54D-04

 Cycle  17  Pass 1  IDiag  1:
 E= -193.476992459255     Delta-E=       -0.000000017568 Rises=F Damp=F
 DIIS: error= 1.03D-05 at cycle  17 NSaved=  17.
 NSaved=17 IEnMin=17 EnMin= -193.476992459255     IErMin=17 ErrMin= 1.03D-05
 ErrMax= 1.03D-05  0.00D+00 EMaxC= 1.00D+00 BMatC= 3.66D-09 BMatP= 1.33D-08
 IDIUse=1 WtCom= 1.00D+00 WtEn= 0.00D+00
 Coeff-Com: -0.990D-04 0.133D-02-0.586D-02 0.803D-02-0.201D-02-0.747D-02
 Coeff-Com:  0.430D-02 0.933D-02-0.428D-02-0.308D-01 0.142D+00-0.417D+00
 Coeff-Com:  0.917D+00-0.176D+01 0.292D+01-0.423D+01 0.347D+01
 Coeff:     -0.990D-04 0.133D-02-0.586D-02 0.803D-02-0.201D-02-0.747D-02
 Coeff:      0.430D-02 0.933D-02-0.428D-02-0.308D-01 0.142D+00-0.417D+00
 Coeff:      0.917D+00-0.176D+01 0.292D+01-0.423D+01 0.347D+01
 Gap=     0.462 Goal=   None    Shift=    0.500
 Gap=     0.318 Goal=   None    Shift=    0.500
 RMSDP=1.44D-06 MaxDP=1.90D-05 DE=-1.76D-08 OVMax= 7.60D-05

 Cycle  18  Pass 1  IDiag  1:
 E= -193.476992464038     Delta-E=       -0.000000004783 Rises=F Damp=F
 DIIS: error= 6.00D-06 at cycle  18 NSaved=  18.
 NSaved=18 IEnMin=18 EnMin= -193.476992464038     IErMin=18 ErrMin= 6.00D-06
 ErrMax= 6.00D-06  0.00D+00 EMaxC= 1.00D+00 BMatC= 1.02D-09 BMatP= 3.66D-09
 IDIUse=1 WtCom= 1.00D+00 WtEn= 0.00D+00
 Coeff-Com:  0.256D-05-0.133D-03 0.110D-02-0.297D-02 0.265D-02-0.219D-02
 Coeff-Com:  0.670D-02-0.524D-02-0.110D-01 0.390D-01-0.115D+00 0.305D+00
 Coeff-Com: -0.674D+00 0.134D+01-0.244D+01 0.399D+01-0.541D+01 0.397D+01
 Coeff:      0.256D-05-0.133D-03 0.110D-02-0.297D-02 0.265D-02-0.219D-02
 Coeff:      0.670D-02-0.524D-02-0.110D-01 0.390D-01-0.115D+00 0.305D+00
 Coeff:     -0.674D+00 0.134D+01-0.244D+01 0.399D+01-0.541D+01 0.397D+01
 Gap=     0.462 Goal=   None    Shift=    0.500
 Gap=     0.318 Goal=   None    Shift=    0.500
 RMSDP=7.44D-07 MaxDP=1.00D-05 DE=-4.78D-09 OVMax= 3.97D-05

 SCF Done:  E(ULC-wHPBE) =  -193.476992464     A.U. after   18 cycles
            NFock= 18  Conv=0.74D-06     -V/T= 2.0051
 <Sx>= 0.0000 <Sy>= 0.0000 <Sz>= 0.5000 <S**2>= 0.8335 S= 0.5409
 <L.S>= 0.000000000000E+00
 KE= 1.924883318552D+02 PE=-7.505693493233D+02 EE= 2.091601064756D+02
 Annihilation of the first spin contaminant:
 S**2 before annihilation     0.8335,   after     0.7539
 Leave Link  502 at Tue Feb 25 12:23:11 2020, MaxMem=  6710886400 cpu:              23.5 elap:               1.5
 (Enter /opt/ohpc/pub/libs/gaussian/g16-A.03/haswell/g16/l508.exe)
 QCSCF skips out because SCF is already converged.
 Leave Link  508 at Tue Feb 25 12:23:11 2020, MaxMem=  6710886400 cpu:               0.1 elap:               0.0
 (Enter /opt/ohpc/pub/libs/gaussian/g16-A.03/haswell/g16/l601.exe)
 Copying SCF densities to generalized density rwf, IOpCl= 1 IROHF=0.

 **********************************************************************

            Population analysis using the SCF density.

 **********************************************************************

 Orbital symmetries:
 Alpha Orbitals:
       Occupied  (A1) (B2) (A1) (B2) (A1) (A1) (A1) (B2) (A1) (B2)
                 (A1) (B2) (A1) (A1) (B1) (B2) (A2) (B1)
       Virtual   (B2) (A2) (B1) (A1) (A1) (B2) (A1) (B2) (A1) (A1)
                 (B2) (A1) (B2) (B1) (B2) (B1) (A2) (A1) (A1) (A1)
                 (B2) (A2) (B1) (B2) (B2) (A1) (A1) (B2) (A1) (B2)
                 (A1) (A1) (A1) (B2) (A1) (B2) (A1) (A1) (B2)
 Beta  Orbitals:
       Occupied  (B2) (A1) (B2) (A1) (A1) (A1) (A1) (B2) (A1) (B2)
                 (A1) (B2) (A1) (A1) (B2) (B1) (A2)
       Virtual   (B1) (B2) (A2) (A1) (B1) (A1) (B2) (A1) (B2) (A1)
                 (B2) (A1) (A1) (B2) (B2) (B1) (A1) (A2) (B1) (A1)
                 (B2) (A1) (A2) (B1) (B2) (B2) (A1) (A1) (B2) (A1)
                 (B2) (A1) (A1) (A1) (B2) (A1) (B2) (A1) (A1) (B2)
 The electronic state is 2-B1.
 Alpha  occ. eigenvalues --  -10.43125 -10.43125 -10.37789 -10.37079 -10.37077
 Alpha  occ. eigenvalues --   -1.29694  -1.16071  -1.11647  -0.96759  -0.94600
 Alpha  occ. eigenvalues --   -0.89654  -0.79532  -0.76685  -0.75769  -0.75312
 Alpha  occ. eigenvalues --   -0.73493  -0.59785  -0.58349
 Alpha virt. eigenvalues --   -0.12184  -0.12151  -0.04659  -0.04015   0.01035
 Alpha virt. eigenvalues --    0.05915   0.07878   0.10249   0.10490   0.21614
 Alpha virt. eigenvalues --    0.21769   0.32001   0.33393   0.41279   0.42013
 Alpha virt. eigenvalues --    0.49210   0.49639   0.50044   0.53080   0.53930
 Alpha virt. eigenvalues --    0.54043   0.57253   0.58843   0.66874   0.73395
 Alpha virt. eigenvalues --    0.75521   0.77391   0.79494   0.79738   0.86057
 Alpha virt. eigenvalues --    0.86157   0.90442   0.94407   1.00652   1.08944
 Alpha virt. eigenvalues --    1.09796   1.15319   1.37294   1.38722
  Beta  occ. eigenvalues --  -10.42491 -10.42488 -10.37439 -10.37438 -10.36840
  Beta  occ. eigenvalues --   -1.28354  -1.13878  -1.11448  -0.95663  -0.93799
  Beta  occ. eigenvalues --   -0.89406  -0.79235  -0.76391  -0.75191  -0.73375
  Beta  occ. eigenvalues --   -0.70108  -0.58289
  Beta virt. eigenvalues --   -0.26485  -0.10625  -0.08753  -0.03786  -0.01087
  Beta virt. eigenvalues --    0.01473   0.06199   0.08123   0.10154   0.11017
  Beta virt. eigenvalues --    0.22078   0.22121   0.32378   0.33763   0.42418
  Beta virt. eigenvalues --    0.43676   0.50547   0.50662   0.52090   0.53413
  Beta virt. eigenvalues --    0.54418   0.55103   0.57723   0.60279   0.67471
  Beta virt. eigenvalues --    0.73922   0.76530   0.77977   0.79311   0.80287
  Beta virt. eigenvalues --    0.86332   0.86512   0.91449   0.95004   1.00596
  Beta virt. eigenvalues --    1.09371   1.10302   1.16307   1.38058   1.39448
          Condensed to atoms (all electrons):
               1          2          3          4          5          6
     1  C    5.367162   0.496229  -0.041693  -0.130356   0.182452   0.166762
     2  C    0.496229   4.978821   0.450842  -0.021830  -0.130356  -0.026059
     3  C   -0.041693   0.450842   4.894658   0.450842  -0.041693   0.008995
     4  C   -0.130356  -0.021830   0.450842   4.978821   0.496229  -0.026059
     5  C    0.182452  -0.130356  -0.041693   0.496229   5.367162   0.166762
     6  H    0.166762  -0.026059   0.008995  -0.026059   0.166762   0.353472
     7  H    0.337778   0.005586  -0.000487   0.003157  -0.014422  -0.009868
     8  H   -0.022337   0.361770  -0.010990   0.003929   0.000668   0.000343
     9  H    0.004924  -0.026098   0.366355  -0.026098   0.004924  -0.000021
    10  H    0.000668   0.003929  -0.010990   0.361770  -0.022337   0.000343
    11  H   -0.014422   0.003157  -0.000487   0.005586   0.337778  -0.009868
               7          8          9         10         11
     1  C    0.337778  -0.022337   0.004924   0.000668  -0.014422
     2  C    0.005586   0.361770  -0.026098   0.003929   0.003157
     3  C   -0.000487  -0.010990   0.366355  -0.010990  -0.000487
     4  C    0.003157   0.003929  -0.026098   0.361770   0.005586
     5  C   -0.014422   0.000668   0.004924  -0.022337   0.337778
     6  H   -0.009868   0.000343  -0.000021   0.000343  -0.009868
     7  H    0.330582   0.000213  -0.000050  -0.000015   0.000358
     8  H    0.000213   0.370513  -0.001204  -0.000078  -0.000015
     9  H   -0.000050  -0.001204   0.390767  -0.001204  -0.000050
    10  H   -0.000015  -0.000078  -0.001204   0.370513   0.000213
    11  H    0.000358  -0.000015  -0.000050   0.000213   0.330582
          Atomic-Atomic Spin Densities.
               1          2          3          4          5          6
     1  C    0.550267  -0.040824  -0.023929  -0.009245   0.020600  -0.004451
     2  C   -0.040824  -0.307555   0.029349   0.001907  -0.009245   0.000371
     3  C   -0.023929   0.029349   0.746592   0.029349  -0.023929   0.000198
     4  C   -0.009245   0.001907   0.029349  -0.307555  -0.040824   0.000371
     5  C    0.020600  -0.009245  -0.023929  -0.040824   0.550267  -0.004451
     6  H   -0.004451   0.000371   0.000198   0.000371  -0.004451  -0.015860
     7  H   -0.003509  -0.000588   0.000118  -0.000111   0.000197  -0.000259
     8  H   -0.000264   0.002052  -0.000892  -0.000162   0.000091   0.000032
     9  H   -0.000029   0.000003  -0.001850   0.000003  -0.000029  -0.000003
    10  H    0.000091  -0.000162  -0.000892   0.002052  -0.000264   0.000032
    11  H    0.000197  -0.000111   0.000118  -0.000588  -0.003509  -0.000259
               7          8          9         10         11
     1  C   -0.003509  -0.000264  -0.000029   0.000091   0.000197
     2  C   -0.000588   0.002052   0.000003  -0.000162  -0.000111
     3  C    0.000118  -0.000892  -0.001850  -0.000892   0.000118
     4  C   -0.000111  -0.000162   0.000003   0.002052  -0.000588
     5  C    0.000197   0.000091  -0.000029  -0.000264  -0.003509
     6  H   -0.000259   0.000032  -0.000003   0.000032  -0.000259
     7  H   -0.019316   0.000045   0.000004  -0.000000  -0.000074
     8  H    0.000045   0.008644   0.000017  -0.000000  -0.000000
     9  H    0.000004   0.000017  -0.028433   0.000017   0.000004
    10  H   -0.000000  -0.000000   0.000017   0.008644   0.000045
    11  H   -0.000074  -0.000000   0.000004   0.000045  -0.019316
 Mulliken charges and spin densities:
               1          2
     1  C   -0.347166   0.488904
     2  C   -0.095991  -0.324803
     3  C   -0.065349   0.754232
     4  C   -0.095991  -0.324803
     5  C   -0.347166   0.488904
     6  H    0.375197  -0.024278
     7  H    0.347168  -0.023492
     8  H    0.297188   0.009563
     9  H    0.287755  -0.030298
    10  H    0.297188   0.009563
    11  H    0.347168  -0.023492
 Sum of Mulliken charges =   1.00000   1.00000
 Mulliken charges and spin densities with hydrogens summed into heavy atoms:
               1          2
     1  C    0.375198   0.441134
     2  C    0.201197  -0.315240
     3  C    0.222406   0.723934
     4  C    0.201197  -0.315240
     5  C    0.000002   0.465412
 Electronic spatial extent (au):  <R**2>=            321.3632
 Charge=              1.0000 electrons
 Dipole moment (field-independent basis, Debye):
    X=             -0.0000    Y=              0.0000    Z=             -2.0456  Tot=              2.0456
 Quadrupole moment (field-independent basis, Debye-Ang):
   XX=            -31.5553   YY=            -17.4122   ZZ=            -13.2292
   XY=              0.0000   XZ=              0.0000   YZ=             -0.0000
 Traceless Quadrupole moment (field-independent basis, Debye-Ang):
   XX=            -10.8230   YY=              3.3200   ZZ=              7.5030
   XY=              0.0000   XZ=              0.0000   YZ=             -0.0000
 Octapole moment (field-independent basis, Debye-Ang**2):
  XXX=              0.0000  YYY=             -0.0000  ZZZ=             -7.5715  XYY=             -0.0000
  XXY=             -0.0000  XXZ=              0.6816  XZZ=              0.0000  YZZ=             -0.0000
  YYZ=             -2.8035  XYZ=             -0.0000
 Hexadecapole moment (field-independent basis, Debye-Ang**3):
 XXXX=            -31.7383 YYYY=           -146.5399 ZZZZ=           -125.9508 XXXY=             -0.0000
 XXXZ=             -0.0000 YYYX=             -0.0000 YYYZ=              0.0000 ZZZX=              0.0000
 ZZZY=             -0.0000 XXYY=            -43.0841 XXZZ=            -39.2445 YYZZ=            -42.6317
 XXYZ=              0.0000 YYXZ=             -0.0000 ZZXY=             -0.0000
 N-N= 1.554439185285D+02 E-N=-7.505693566917D+02  KE= 1.924883318552D+02
 Symmetry A1   KE= 1.112826743951D+02
 Symmetry A2   KE= 2.498872900011D+00
 Symmetry B1   KE= 3.214826661200D+00
 Symmetry B2   KE= 7.549195789888D+01
 Symmetry A1   SP= 1.203725910565D-14
 Symmetry A2   SP= 4.724145139395D-15
 Symmetry B1   SP= 1.000000000000D+00
 Symmetry B2   SP= 7.211276023011D-15
                          Isotropic Fermi Contact Couplings
        Atom                 a.u.       MegaHertz       Gauss      10(-4) cm-1
     1  C(13)              0.07640      85.88725      30.64671      28.64890
     2  C(13)             -0.05558     -62.48338     -22.29562     -20.84221
     3  C(13)              0.10686     120.13016      42.86543      40.07111
     4  C(13)             -0.05558     -62.48338     -22.29562     -20.84221
     5  C(13)              0.07640      85.88725      30.64671      28.64890
     6  H(1)              -0.00901     -40.27050     -14.36952     -13.43279
     7  H(1)              -0.00976     -43.64078     -15.57212     -14.55700
     8  H(1)               0.00376      16.79533       5.99299       5.60232
     9  H(1)              -0.01318     -58.91634     -21.02282     -19.65238
    10  H(1)               0.00376      16.79533       5.99299       5.60232
    11  H(1)              -0.00976     -43.64078     -15.57212     -14.55700
 --------------------------------------------------------
       Center         ----  Spin Dipole Couplings  ----
                      3XX-RR        3YY-RR        3ZZ-RR
 --------------------------------------------------------
     1   Atom        0.499253     -0.242890     -0.256364
     2   Atom       -0.222548      0.108835      0.113713
     3   Atom        0.700012     -0.358422     -0.341590
     4   Atom       -0.222548      0.108835      0.113713
     5   Atom        0.499253     -0.242890     -0.256364
     6   Atom       -0.007926      0.010388     -0.002462
     7   Atom       -0.006261      0.006391     -0.000129
     8   Atom       -0.006249     -0.002791      0.009040
     9   Atom       -0.007623     -0.046196      0.053818
    10   Atom       -0.006249     -0.002791      0.009040
    11   Atom       -0.006261      0.006391     -0.000129
 --------------------------------------------------------
                        XY            XZ            YZ
 --------------------------------------------------------
     1   Atom       -0.000000      0.000000     -0.009053
     2   Atom       -0.000000      0.000000     -0.005878
     3   Atom       -0.000000     -0.000000      0.000000
     4   Atom       -0.000000     -0.000000      0.005878
     5   Atom        0.000000      0.000000      0.009053
     6   Atom       -0.000000      0.000000     -0.000000
     7   Atom        0.000000      0.000000     -0.036306
     8   Atom       -0.000000      0.000000     -0.007236
     9   Atom       -0.000000     -0.000000      0.000000
    10   Atom        0.000000     -0.000000      0.007236
    11   Atom       -0.000000     -0.000000      0.036306
 --------------------------------------------------------


 ---------------------------------------------------------------------------------
              Anisotropic Spin Dipole Couplings in Principal Axis System
 ---------------------------------------------------------------------------------

       Atom             a.u.   MegaHertz   Gauss  10(-4) cm-1        Axes

              Baa    -0.2609   -35.012   -12.493   -11.679 -0.0000  0.4489  0.8936
     1 C(13)  Bbb    -0.2383   -31.983   -11.412   -10.668 -0.0000  0.8936 -0.4489
              Bcc     0.4993    66.995    23.905    22.347  1.0000  0.0000  0.0000
 
              Baa    -0.2225   -29.864   -10.656    -9.961  1.0000  0.0000  0.0000
     2 C(13)  Bbb     0.1049    14.078     5.023     4.696 -0.0000  0.8316  0.5553
              Bcc     0.1176    15.786     5.633     5.266  0.0000 -0.5553  0.8316
 
              Baa    -0.3584   -48.097   -17.162   -16.043 -0.0000  1.0000  0.0000
     3 C(13)  Bbb    -0.3416   -45.838   -16.356   -15.290  0.0000  0.0000  1.0000
              Bcc     0.7000    93.935    33.518    31.333  1.0000  0.0000  0.0000
 
              Baa    -0.2225   -29.864   -10.656    -9.961  1.0000  0.0000  0.0000
     4 C(13)  Bbb     0.1049    14.078     5.023     4.696 -0.0000  0.8316 -0.5553
              Bcc     0.1176    15.786     5.633     5.266 -0.0000  0.5553  0.8316
 
              Baa    -0.2609   -35.012   -12.493   -11.679 -0.0000 -0.4489  0.8936
     5 C(13)  Bbb    -0.2383   -31.983   -11.412   -10.668  0.0000  0.8936  0.4489
              Bcc     0.4993    66.995    23.905    22.347  1.0000 -0.0000  0.0000
 
              Baa    -0.0079    -4.229    -1.509    -1.411  1.0000  0.0000 -0.0000
     6 H(1)   Bbb    -0.0025    -1.314    -0.469    -0.438  0.0000  0.0000  1.0000
              Bcc     0.0104     5.542     1.978     1.849 -0.0000  1.0000 -0.0000
 
              Baa    -0.0333   -17.779    -6.344    -5.930 -0.0000  0.6747  0.7381
     7 H(1)   Bbb    -0.0063    -3.341    -1.192    -1.114  1.0000  0.0000  0.0000
              Bcc     0.0396    21.120     7.536     7.045 -0.0000  0.7381 -0.6747
 
              Baa    -0.0062    -3.334    -1.190    -1.112  1.0000  0.0000  0.0000
     8 H(1)   Bbb    -0.0062    -3.320    -1.185    -1.107 -0.0000  0.9036  0.4284
              Bcc     0.0125     6.654     2.374     2.220  0.0000 -0.4284  0.9036
 
              Baa    -0.0462   -24.648    -8.795    -8.222 -0.0000  1.0000 -0.0000
     9 H(1)   Bbb    -0.0076    -4.067    -1.451    -1.357  1.0000  0.0000  0.0000
              Bcc     0.0538    28.715    10.246     9.578  0.0000  0.0000  1.0000
 
              Baa    -0.0062    -3.334    -1.190    -1.112  1.0000 -0.0000  0.0000
    10 H(1)   Bbb    -0.0062    -3.320    -1.185    -1.107  0.0000  0.9036 -0.4284
              Bcc     0.0125     6.654     2.374     2.220  0.0000  0.4284  0.9036
 
              Baa    -0.0333   -17.779    -6.344    -5.930  0.0000 -0.6747  0.7381
    11 H(1)   Bbb    -0.0063    -3.341    -1.192    -1.114  1.0000  0.0000  0.0000
              Bcc     0.0396    21.120     7.536     7.045 -0.0000  0.7381  0.6747
 

 ---------------------------------------------------------------------------------

 No NMR shielding tensors so no spin-rotation constants.
 Leave Link  601 at Tue Feb 25 12:23:11 2020, MaxMem=  6710886400 cpu:               5.1 elap:               0.3
 (Enter /opt/ohpc/pub/libs/gaussian/g16-A.03/haswell/g16/l9999.exe)

 Test job not archived.
 1\1\GINC-HASWELL008\SP\ULC-wHPBE\6-31G\C5H6(1+,2)\SMGO234\25-Feb-2020\
 0\\#P uLC-wHPBE/6-31G iop(3/107=0419700000, 3/108=0419700000) scf=(con
 ver=6,fermi,ndamp=35,noincfock,novaracc,vshift=500,xqc)\\H6 C5\\1,2\C,
 0,0.,0.895213,-0.933453\C,0,0.,1.131613,0.424372\C,0,0.,0.,1.240919\C,
 0,0.,-1.131613,0.424372\C,0,0.,-0.895213,-0.933453\H,0,0.,0.,-1.720797
 \H,0,0.,1.620085,-1.742217\H,0,0.,2.160007,0.773055\H,0,0.,0.,2.322589
 \H,0,0.,-2.160007,0.773055\H,0,0.,-1.620085,-1.742217\\Version=ES64L-G
 16RevA.03\State=2-B1\HF=-193.4769925\S2=0.833518\S2-1=0.\S2A=0.753896\
 RMSD=7.438e-07\Dipole=0.,0.,-0.8047922\Quadrupole=-8.0466704,2.4683644
 ,5.578306,0.,0.,0.\PG=C02V [C2(H1C1H1),SGV(C4H4)]\\@


 NOTHING WILL BE ATTEMPTED IF ALL POSSIBLE OBJECTIONS
 MUST FIRST BE OVERCOME.

                               -- THE GOLDEN PRINCIPLE,
                    PAUL DICKSON'S "THE OFFICIAL RULES"
 Job cpu time:       0 days  0 hours  0 minutes 50.6 seconds.
 Elapsed time:       0 days  0 hours  0 minutes  3.4 seconds.
 File lengths (MBytes):  RWF=    272 Int=      0 D2E=      0 Chk=     32 Scr=     32
 Normal termination of Gaussian 16 at Tue Feb 25 12:23:11 2020.
