 Entering Gaussian System, Link 0=g16
 Input=1b_tune_n3.gjf
 Output=1b_tune_n3.log
 Initial command:
 /opt/ohpc/pub/libs/gaussian/g16-A.03/haswell/g16/l1.exe "/scratch/smgo234/Ocelot/test/1b/tuning_1b_ocycle2/Gau-43785.inp" -scrdir="/scratch/smgo234/Ocelot/test/1b/tuning_1b_ocycle2/"
 Entering Link 1 = /opt/ohpc/pub/libs/gaussian/g16-A.03/haswell/g16/l1.exe PID=     43786.
  
 Copyright (c) 1988,1990,1992,1993,1995,1998,2003,2009,2016,
            Gaussian, Inc.  All Rights Reserved.
  
 This is part of the Gaussian(R) 16 program.  It is based on
 the Gaussian(R) 09 system (copyright 2009, Gaussian, Inc.),
 the Gaussian(R) 03 system (copyright 2003, Gaussian, Inc.),
 the Gaussian(R) 98 system (copyright 1998, Gaussian, Inc.),
 the Gaussian(R) 94 system (copyright 1995, Gaussian, Inc.),
 the Gaussian 92(TM) system (copyright 1992, Gaussian, Inc.),
 the Gaussian 90(TM) system (copyright 1990, Gaussian, Inc.),
 the Gaussian 88(TM) system (copyright 1988, Gaussian, Inc.),
 the Gaussian 86(TM) system (copyright 1986, Carnegie Mellon
 University), and the Gaussian 82(TM) system (copyright 1983,
 Carnegie Mellon University). Gaussian is a federally registered
 trademark of Gaussian, Inc.
  
 This software contains proprietary and confidential information,
 including trade secrets, belonging to Gaussian, Inc.
  
 This software is provided under written license and may be
 used, copied, transmitted, or stored only in accord with that
 written license.
  
 The following legend is applicable only to US Government
 contracts under FAR:
  
                    RESTRICTED RIGHTS LEGEND
  
 Use, reproduction and disclosure by the US Government is
 subject to restrictions as set forth in subparagraphs (a)
 and (c) of the Commercial Computer Software - Restricted
 Rights clause in FAR 52.227-19.
  
 Gaussian, Inc.
 340 Quinnipiac St., Bldg. 40, Wallingford CT 06492
  
  
 ---------------------------------------------------------------
 Warning -- This program may not be used in any manner that
 competes with the business of Gaussian, Inc. or will provide
 assistance to any competitor of Gaussian, Inc.  The licensee
 of this program is prohibited from giving any competitor of
 Gaussian, Inc. access to this program.  By using this program,
 the user acknowledges that Gaussian, Inc. is engaged in the
 business of creating and licensing software in the field of
 computational chemistry and represents and warrants to the
 licensee that it is not a competitor of Gaussian, Inc. and that
 it will not use this program in any manner prohibited above.
 ---------------------------------------------------------------
  

 Cite this work as:
 Gaussian 16, Revision A.03,
 M. J. Frisch, G. W. Trucks, H. B. Schlegel, G. E. Scuseria, 
 M. A. Robb, J. R. Cheeseman, G. Scalmani, V. Barone, 
 G. A. Petersson, H. Nakatsuji, X. Li, M. Caricato, A. V. Marenich, 
 J. Bloino, B. G. Janesko, R. Gomperts, B. Mennucci, H. P. Hratchian, 
 J. V. Ortiz, A. F. Izmaylov, J. L. Sonnenberg, D. Williams-Young, 
 F. Ding, F. Lipparini, F. Egidi, J. Goings, B. Peng, A. Petrone, 
 T. Henderson, D. Ranasinghe, V. G. Zakrzewski, J. Gao, N. Rega, 
 G. Zheng, W. Liang, M. Hada, M. Ehara, K. Toyota, R. Fukuda, 
 J. Hasegawa, M. Ishida, T. Nakajima, Y. Honda, O. Kitao, H. Nakai, 
 T. Vreven, K. Throssell, J. A. Montgomery, Jr., J. E. Peralta, 
 F. Ogliaro, M. J. Bearpark, J. J. Heyd, E. N. Brothers, K. N. Kudin, 
 V. N. Staroverov, T. A. Keith, R. Kobayashi, J. Normand, 
 K. Raghavachari, A. P. Rendell, J. C. Burant, S. S. Iyengar, 
 J. Tomasi, M. Cossi, J. M. Millam, M. Klene, C. Adamo, R. Cammi, 
 J. W. Ochterski, R. L. Martin, K. Morokuma, O. Farkas, 
 J. B. Foresman, and D. J. Fox, Gaussian, Inc., Wallingford CT, 2016.
 
 ******************************************
 Gaussian 16:  ES64L-G16RevA.03 25-Dec-2016
                25-Feb-2020 
 ******************************************
 %mem=50GB
 %nproc=16
 Will use up to   16 processors via shared memory.
 ----------------------------------------------------------------------
 #P uLC-wHPBE/6-31G iop(3/107=0325300000, 3/108=0325300000) scf=(conver
 =6,fermi,ndamp=35,noincfock,novaracc,vshift=500,xqc)
 ----------------------------------------------------------------------
 1/38=1,172=1/1;
 2/12=2,17=6,18=5,40=1/2;
 3/5=1,6=6,11=2,25=1,30=1,74=-71,107=325300000,108=325300000,116=2/1,2,3;
 4//1;
 5/5=100002,6=6,8=3,10=500,13=1,18=-1,22=13,38=1,93=35/2,8;
 6/7=2,8=2,9=2,10=2,28=1/1;
 99/5=1,9=1/99;
 Leave Link    1 at Tue Feb 25 12:23:12 2020, MaxMem=  6710886400 cpu:              10.4 elap:               0.7
 (Enter /opt/ohpc/pub/libs/gaussian/g16-A.03/haswell/g16/l101.exe)
 -----
 H6 C5
 -----
 Symbolic Z-matrix:
 Charge =  0 Multiplicity = 1
 C                     0.        0.89521  -0.93345 
 C                     0.        1.13161   0.42437 
 C                     0.        0.        1.24092 
 C                     0.       -1.13161   0.42437 
 C                     0.       -0.89521  -0.93345 
 H                     0.        0.       -1.7208 
 H                     0.        1.62009  -1.74222 
 H                     0.        2.16001   0.77306 
 H                     0.        0.        2.32259 
 H                     0.       -2.16001   0.77306 
 H                     0.       -1.62009  -1.74222 
 
 ITRead=  0  0  0  0  0  0  0  0  0  0  0
 MicOpt= -1 -1 -1 -1 -1 -1 -1 -1 -1 -1 -1
 NAtoms=     11 NQM=       11 NQMF=       0 NMMI=      0 NMMIF=      0
                NMic=       0 NMicF=      0.
                    Isotopes and Nuclear Properties:
 (Nuclear quadrupole moments (NQMom) in fm**2, nuclear magnetic moments (NMagM)
  in nuclear magnetons)

  Atom         1           2           3           4           5           6           7           8           9          10
 IAtWgt=          12          12          12          12          12           1           1           1           1           1
 AtmWgt=  12.0000000  12.0000000  12.0000000  12.0000000  12.0000000   1.0078250   1.0078250   1.0078250   1.0078250   1.0078250
 NucSpn=           0           0           0           0           0           1           1           1           1           1
 AtZEff=  -0.0000000  -0.0000000  -0.0000000  -0.0000000  -0.0000000  -0.0000000  -0.0000000  -0.0000000  -0.0000000  -0.0000000
 NQMom=    0.0000000   0.0000000   0.0000000   0.0000000   0.0000000   0.0000000   0.0000000   0.0000000   0.0000000   0.0000000
 NMagM=    0.0000000   0.0000000   0.0000000   0.0000000   0.0000000   2.7928460   2.7928460   2.7928460   2.7928460   2.7928460
 AtZNuc=   6.0000000   6.0000000   6.0000000   6.0000000   6.0000000   1.0000000   1.0000000   1.0000000   1.0000000   1.0000000

  Atom        11
 IAtWgt=           1
 AtmWgt=   1.0078250
 NucSpn=           1
 AtZEff=  -0.0000000
 NQMom=    0.0000000
 NMagM=    2.7928460
 AtZNuc=   1.0000000
 Leave Link  101 at Tue Feb 25 12:23:12 2020, MaxMem=  6710886400 cpu:               2.3 elap:               0.2
 (Enter /opt/ohpc/pub/libs/gaussian/g16-A.03/haswell/g16/l202.exe)
                          Input orientation:                          
 ---------------------------------------------------------------------
 Center     Atomic      Atomic             Coordinates (Angstroms)
 Number     Number       Type             X           Y           Z
 ---------------------------------------------------------------------
      1          6           0        0.000000    0.895213   -0.933453
      2          6           0        0.000000    1.131613    0.424372
      3          6           0        0.000000    0.000000    1.240919
      4          6           0        0.000000   -1.131613    0.424372
      5          6           0        0.000000   -0.895213   -0.933453
      6          1           0        0.000000    0.000000   -1.720797
      7          1           0        0.000000    1.620085   -1.742217
      8          1           0        0.000000    2.160007    0.773055
      9          1           0        0.000000    0.000000    2.322589
     10          1           0        0.000000   -2.160007    0.773055
     11          1           0        0.000000   -1.620085   -1.742217
 ---------------------------------------------------------------------
                    Distance matrix (angstroms):
                    1          2          3          4          5
     1  C    0.000000
     2  C    1.378250   0.000000
     3  C    2.351446   1.395456   0.000000
     4  C    2.439613   2.263226   1.395456   0.000000
     5  C    1.790426   2.439613   2.351446   1.378250   0.000000
     6  H    1.192190   2.425345   2.961716   2.425345   1.192190
     7  H    1.086066   2.220971   3.394669   3.502278   2.642125
     8  H    2.124117   1.085898   2.210097   3.310037   3.499506
     9  H    3.376865   2.209927   1.081670   2.209927   3.376865
    10  H    3.499506   3.310037   2.210097   1.085898   2.124117
    11  H    2.642125   3.502278   3.394669   2.220971   1.086066
                    6          7          8          9         10
     6  H    0.000000
     7  H    1.620227   0.000000
     8  H    3.299231   2.572569   0.000000
     9  H    4.043386   4.375765   2.658324   0.000000
    10  H    3.299231   4.540450   4.320014   2.658324   0.000000
    11  H    1.620227   3.240170   4.540450   4.375765   2.572569
                   11
    11  H    0.000000
 Stoichiometry    C5H6
 Framework group  C2V[C2(HCH),SGV(C4H4)]
 Deg. of freedom    10
 Full point group                 C2V     NOp   4
 Largest Abelian subgroup         C2V     NOp   4
 Largest concise Abelian subgroup C2      NOp   2
                         Standard orientation:                         
 ---------------------------------------------------------------------
 Center     Atomic      Atomic             Coordinates (Angstroms)
 Number     Number       Type             X           Y           Z
 ---------------------------------------------------------------------
      1          6           0        0.000000    0.895213   -0.933453
      2          6           0        0.000000    1.131613    0.424372
      3          6           0        0.000000   -0.000000    1.240919
      4          6           0       -0.000000   -1.131613    0.424372
      5          6           0       -0.000000   -0.895213   -0.933453
      6          1           0       -0.000000    0.000000   -1.720797
      7          1           0        0.000000    1.620085   -1.742217
      8          1           0        0.000000    2.160007    0.773055
      9          1           0        0.000000   -0.000000    2.322589
     10          1           0       -0.000000   -2.160007    0.773055
     11          1           0       -0.000000   -1.620085   -1.742217
 ---------------------------------------------------------------------
 Rotational constants (GHZ):           8.5037938           7.8157507           4.0726340
 Leave Link  202 at Tue Feb 25 12:23:12 2020, MaxMem=  6710886400 cpu:               0.2 elap:               0.0
 (Enter /opt/ohpc/pub/libs/gaussian/g16-A.03/haswell/g16/l301.exe)
 Standard basis: 6-31G (6D, 7F)
 Ernie: Thresh=  0.10000D-02 Tol=  0.10000D-05 Strict=F.
 There are    27 symmetry adapted cartesian basis functions of A1  symmetry.
 There are     4 symmetry adapted cartesian basis functions of A2  symmetry.
 There are     6 symmetry adapted cartesian basis functions of B1  symmetry.
 There are    20 symmetry adapted cartesian basis functions of B2  symmetry.
 There are    27 symmetry adapted basis functions of A1  symmetry.
 There are     4 symmetry adapted basis functions of A2  symmetry.
 There are     6 symmetry adapted basis functions of B1  symmetry.
 There are    20 symmetry adapted basis functions of B2  symmetry.
    57 basis functions,   134 primitive gaussians,    57 cartesian basis functions
    18 alpha electrons       18 beta electrons
       nuclear repulsion energy       155.4439185285 Hartrees.
 IExCor=33909 DFT=T Ex+Corr=LC-wHPBE ExCW=0 ScaHFX=  1.000000
 ScaDFX=  1.000000  1.000000  1.000000  1.000000 ScalE2=  1.000000  1.000000
 IRadAn=      5 IRanWt=     -1 IRanGd=            0 ICorTp=0 IEmpDi=  4
 HFx  wShort=  0.000000 wLong=  0.325300 cFull=  0.000000 cShort=  0.000000 cLong=  1.000000
 DFx  wShort=  0.000000 wLong=  0.325300 cFull=  0.000000 cShort=  1.000000 cLong=  0.000000
 NAtoms=   11 NActive=   11 NUniq=    7 SFac= 2.47D+00 NAtFMM=   60 NAOKFM=F Big=F
 Integral buffers will be    131072 words long.
 Raffenetti 2 integral format.
 Two-electron integral symmetry is turned on.
 Leave Link  301 at Tue Feb 25 12:23:12 2020, MaxMem=  6710886400 cpu:               0.8 elap:               0.1
 (Enter /opt/ohpc/pub/libs/gaussian/g16-A.03/haswell/g16/l302.exe)
 NPDir=0 NMtPBC=     1 NCelOv=     1 NCel=       1 NClECP=     1 NCelD=      1
         NCelK=      1 NCelE2=     1 NClLst=     1 CellRange=     0.0.
 One-electron integrals computed using PRISM.
 One-electron integral symmetry used in STVInt
 NBasis=    57 RedAO= T EigKep=  1.90D-03  NBF=    27     4     6    20
 NBsUse=    57 1.00D-06 EigRej= -1.00D+00 NBFU=    27     4     6    20
 Precomputing XC quadrature grid using
 IXCGrd= 4 IRadAn=           5 IRanWt=          -1 IRanGd=           0 AccXCQ= 0.00D+00.
 Generated NRdTot=       0 NPtTot=           0 NUsed=           0 NTot=          32
 NSgBfM=    57    57    57    57    57 MxSgAt=    11 MxSgA2=    11.
 Leave Link  302 at Tue Feb 25 12:23:12 2020, MaxMem=  6710886400 cpu:               3.1 elap:               0.2
 (Enter /opt/ohpc/pub/libs/gaussian/g16-A.03/haswell/g16/l303.exe)
 DipDrv:  MaxL=1.
 Leave Link  303 at Tue Feb 25 12:23:12 2020, MaxMem=  6710886400 cpu:               0.4 elap:               0.0
 (Enter /opt/ohpc/pub/libs/gaussian/g16-A.03/haswell/g16/l401.exe)
 ExpMin= 1.61D-01 ExpMax= 3.05D+03 ExpMxC= 4.57D+02 IAcc=3 IRadAn=         5 AccDes= 0.00D+00
 Harris functional with IExCor=33909 and IRadAn=       5 diagonalized for initial guess.
 HarFok:  IExCor=33909 AccDes= 0.00D+00 IRadAn=         5 IDoV= 1 UseB2=F ITyADJ=14
 ICtDFT=  3500011 ScaDFX=  1.000000  1.000000  1.000000  1.000000
 FoFCou: FMM=F IPFlag=           0 FMFlag=      100000 FMFlg1=           0
         NFxFlg=           0 DoJE=T BraDBF=F KetDBF=T FulRan=T
         wScrn=  0.000000 ICntrl=       500 IOpCl=  0 I1Cent=   200000004 NGrid=           0
         NMat0=    1 NMatS0=      1 NMatT0=    0 NMatD0=    1 NMtDS0=    0 NMtDT0=    0
 Petite list used in FoFCou.
 Harris En= -187.858338079050    
 JPrj=0 DoOrth=F DoCkMO=F.
 Initial guess orbital symmetries:
 Alpha Orbitals:
       Occupied  (A1) (B2) (A1) (B2) (A1) (A1) (B2) (A1) (A1) (B2)
                 (A1) (B2) (A1) (B2) (A1) (B1) (A2) (B1)
       Virtual   (A2) (B2) (B1) (A1) (A1) (B2) (A1) (B2) (A1) (B2)
                 (A1) (A1) (B2) (B2) (B1) (A1) (A2) (B1) (B2) (A1)
                 (A1) (A2) (B1) (B2) (B2) (A1) (B2) (A1) (A1) (B2)
                 (A1) (A1) (A1) (B2) (A1) (B2) (A1) (A1) (B2)
 Beta  Orbitals:
       Occupied  (A1) (B2) (A1) (B2) (A1) (A1) (B2) (A1) (A1) (B2)
                 (A1) (B2) (A1) (B2) (A1) (B1) (A2) (B1)
       Virtual   (A2) (B2) (B1) (A1) (A1) (B2) (A1) (B2) (A1) (B2)
                 (A1) (A1) (B2) (B2) (B1) (A1) (A2) (B1) (B2) (A1)
                 (A1) (A2) (B1) (B2) (B2) (A1) (B2) (A1) (A1) (B2)
                 (A1) (A1) (A1) (B2) (A1) (B2) (A1) (A1) (B2)
 The electronic state of the initial guess is 1-A1.
 Initial guess <Sx>= 0.0000 <Sy>= 0.0000 <Sz>= 0.0000 <S**2>=-0.0000 S=-0.0000
 Leave Link  401 at Tue Feb 25 12:23:13 2020, MaxMem=  6710886400 cpu:               4.5 elap:               0.3
 (Enter /opt/ohpc/pub/libs/gaussian/g16-A.03/haswell/g16/l502.exe)
 Keep R1 and R2 ints in memory in symmetry-blocked form, NReq=16815681.
 FoFCou: FMM=F IPFlag=           0 FMFlag=           0 FMFlg1=           0
         NFxFlg=           0 DoJE=F BraDBF=F KetDBF=F FulRan=T
         wScrn=  0.000000 ICntrl=       600 IOpCl=  0 I1Cent=           0 NGrid=           0
         NMat0=    1 NMatS0=   1653 NMatT0=    0 NMatD0=    1 NMtDS0=    0 NMtDT0=    0
 Petite list used in FoFCou.
 UHF open shell SCF:
 Using DIIS extrapolation, IDIIS=    10.
 NGot=  6710886400 LenX=  6710059561 LenY=  6710055871
 Requested convergence on RMS density matrix=1.00D-06 within  32 cycles.
 Requested convergence on MAX density matrix=1.00D-04.
 Requested convergence on             energy=1.00D-04.
 Virtual orbitals will be shifted by   0.500 hartree.
 No special actions if energy rises.
 Dynamic level shift is on during FON iterations.

 Cycle   1  Pass 1  IDiag  1:
 E= -193.654433343532    
 DIIS: error= 4.13D-02 at cycle   1 NSaved=   1.
 NSaved= 1 IEnMin= 1 EnMin= -193.654433343532     IErMin= 1 ErrMin= 4.13D-02
 ErrMax= 4.13D-02  0.00D+00 EMaxC= 1.00D+00 BMatC= 3.10D-01 BMatP= 3.10D-01
 IDIUse=1 WtCom= 1.00D+00 WtEn= 0.00D+00
 Coeff-Com:  0.100D+01
 Coeff:      0.100D+01
 Gap=     0.342 Goal=   None    Shift=    0.500
 T= 1687. Gap= 0.801 NK=0 IS=   19 IE=   57 IFin=   18
          NO(<0.9)=   0  NV(>0.1)=   0     18.00e < EF      0.00e >EF  Err=0.0D+00
 Gap=     0.342 Goal=   None    Shift=    0.500
 T= 1687. Gap= 0.801 NK=0 IS=   19 IE=   57 IFin=   18
          NO(<0.9)=   0  NV(>0.1)=   0     18.00e < EF      0.00e >EF  Err=0.0D+00
 GapD=    0.342 DampG=1.000 DampE=0.500 DampFc=0.5000 IDamp=-1.
 Damping current iteration by 5.00D-01
 RMSDP=6.75D-03 MaxDP=5.70D-02              OVMax= 7.63D-02

 Cycle   2  Pass 1  IDiag  1:
 E= -193.711188428942     Delta-E=       -0.056755085410 Rises=F Damp=T
 DIIS: error= 1.86D-02 at cycle   2 NSaved=   2.
 NSaved= 2 IEnMin= 2 EnMin= -193.711188428942     IErMin= 2 ErrMin= 1.86D-02
 ErrMax= 1.86D-02  0.00D+00 EMaxC= 1.00D+00 BMatC= 6.11D-02 BMatP= 3.10D-01
 IDIUse=1 WtCom= 1.00D+00 WtEn= 0.00D+00
 Coeff-Com: -0.715D+00 0.172D+01
 Coeff:     -0.715D+00 0.172D+01
 Gap=     0.404 Goal=   None    Shift=    0.500
 T= 1566. Gap= 0.890 NK=0 IS=   19 IE=   57 IFin=   18
          NO(<0.9)=   0  NV(>0.1)=   0     18.00e < EF      0.00e >EF  Err=0.0D+00
 Gap=     0.404 Goal=   None    Shift=    0.500
 T= 1566. Gap= 0.890 NK=0 IS=   19 IE=   57 IFin=   18
          NO(<0.9)=   0  NV(>0.1)=   0     18.00e < EF      0.00e >EF  Err=0.0D+00
 GapD=    0.404 DampG=2.000 DampE=0.500 DampFc=1.0000 IDamp=-1.
 RMSDP=3.73D-03 MaxDP=2.30D-02 DE=-5.68D-02 OVMax= 7.99D-03

 Cycle   3  Pass 1  IDiag  1:
 E= -193.748418513022     Delta-E=       -0.037230084080 Rises=F Damp=F
 DIIS: error= 2.42D-03 at cycle   3 NSaved=   3.
 NSaved= 3 IEnMin= 3 EnMin= -193.748418513022     IErMin= 3 ErrMin= 2.42D-03
 ErrMax= 2.42D-03  0.00D+00 EMaxC= 1.00D+00 BMatC= 1.62D-03 BMatP= 6.11D-02
 IDIUse=1 WtCom= 1.00D+00 WtEn= 0.00D+00
 Coeff-Com:  0.149D+00-0.225D+00 0.108D+01
 Coeff:      0.149D+00-0.225D+00 0.108D+01
 Gap=     0.390 Goal=   None    Shift=    0.500
 T= 1275. Gap= 0.889 NK=0 IS=   19 IE=   57 IFin=   18
          NO(<0.9)=   0  NV(>0.1)=   0     18.00e < EF      0.00e >EF  Err=0.0D+00
 Gap=     0.390 Goal=   None    Shift=    0.500
 T= 1275. Gap= 0.889 NK=0 IS=   19 IE=   57 IFin=   18
          NO(<0.9)=   0  NV(>0.1)=   0     18.00e < EF      0.00e >EF  Err=0.0D+00
 GapD=    0.390 DampG=1.000 DampE=1.000 DampFc=1.0000 IDamp=-1.
 RMSDP=5.42D-04 MaxDP=4.73D-03 DE=-3.72D-02 OVMax= 7.01D-03

 Cycle   4  Pass 1  IDiag  1:
 E= -193.748995679385     Delta-E=       -0.000577166363 Rises=F Damp=F
 DIIS: error= 1.56D-03 at cycle   4 NSaved=   4.
 NSaved= 4 IEnMin= 4 EnMin= -193.748995679385     IErMin= 4 ErrMin= 1.56D-03
 ErrMax= 1.56D-03  0.00D+00 EMaxC= 1.00D+00 BMatC= 3.73D-04 BMatP= 1.62D-03
 IDIUse=1 WtCom= 1.00D+00 WtEn= 0.00D+00
 Coeff-Com:  0.110D+00-0.225D+00-0.208D+00 0.132D+01
 Coeff:      0.110D+00-0.225D+00-0.208D+00 0.132D+01
 Gap=     0.394 Goal=   None    Shift=    0.500
 T=  667. Gap= 0.894 NK=0 IS=   19 IE=   57 IFin=   18
          NO(<0.9)=   0  NV(>0.1)=   0     18.00e < EF      0.00e >EF  Err=0.0D+00
 Gap=     0.394 Goal=   None    Shift=    0.500
 T=  667. Gap= 0.894 NK=0 IS=   19 IE=   57 IFin=   18
          NO(<0.9)=   0  NV(>0.1)=   0     18.00e < EF      0.00e >EF  Err=0.0D+00
 GapD=    0.394 DampG=1.000 DampE=1.000 DampFc=1.0000 IDamp=-1.
 RMSDP=3.54D-04 MaxDP=3.14D-03 DE=-5.77D-04 OVMax= 3.45D-03

 Cycle   5  Pass 1  IDiag  1:
 E= -193.749173795737     Delta-E=       -0.000178116352 Rises=F Damp=F
 DIIS: error= 9.84D-04 at cycle   5 NSaved=   5.
 NSaved= 5 IEnMin= 5 EnMin= -193.749173795737     IErMin= 5 ErrMin= 9.84D-04
 ErrMax= 9.84D-04  0.00D+00 EMaxC= 1.00D+00 BMatC= 6.30D-05 BMatP= 3.73D-04
 IDIUse=1 WtCom= 1.00D+00 WtEn= 0.00D+00
 Coeff-Com: -0.490D-01 0.852D-01-0.153D+00-0.651D+00 0.177D+01
 Coeff:     -0.490D-01 0.852D-01-0.153D+00-0.651D+00 0.177D+01
 Gap=     0.394 Goal=   None    Shift=    0.500
 Gap=     0.394 Goal=   None    Shift=    0.500
 RMSDP=2.08D-04 MaxDP=1.84D-03 DE=-1.78D-04 OVMax= 2.99D-03

 Cycle   6  Pass 1  IDiag  1:
 E= -193.749225424572     Delta-E=       -0.000051628835 Rises=F Damp=F
 DIIS: error= 6.47D-04 at cycle   6 NSaved=   6.
 NSaved= 6 IEnMin= 6 EnMin= -193.749225424572     IErMin= 6 ErrMin= 6.47D-04
 ErrMax= 6.47D-04  0.00D+00 EMaxC= 1.00D+00 BMatC= 1.51D-05 BMatP= 6.30D-05
 IDIUse=1 WtCom= 1.00D+00 WtEn= 0.00D+00
 Coeff-Com:  0.479D-02-0.106D-01 0.836D-01 0.205D+00-0.185D+01 0.257D+01
 Coeff:      0.479D-02-0.106D-01 0.836D-01 0.205D+00-0.185D+01 0.257D+01
 Gap=     0.394 Goal=   None    Shift=    0.500
 Gap=     0.394 Goal=   None    Shift=    0.500
 RMSDP=1.12D-04 MaxDP=9.18D-04 DE=-5.16D-05 OVMax= 1.93D-03

 Cycle   7  Pass 1  IDiag  1:
 E= -193.749241072693     Delta-E=       -0.000015648121 Rises=F Damp=F
 DIIS: error= 4.03D-04 at cycle   7 NSaved=   7.
 NSaved= 7 IEnMin= 7 EnMin= -193.749241072693     IErMin= 7 ErrMin= 4.03D-04
 ErrMax= 4.03D-04  0.00D+00 EMaxC= 1.00D+00 BMatC= 4.22D-06 BMatP= 1.51D-05
 IDIUse=1 WtCom= 1.00D+00 WtEn= 0.00D+00
 Coeff-Com: -0.339D-02 0.535D-02-0.774D-01 0.893D-01 0.723D+00-0.272D+01
 Coeff-Com:  0.299D+01
 Coeff:     -0.339D-02 0.535D-02-0.774D-01 0.893D-01 0.723D+00-0.272D+01
 Coeff:      0.299D+01
 Gap=     0.394 Goal=   None    Shift=    0.500
 Gap=     0.394 Goal=   None    Shift=    0.500
 RMSDP=5.03D-05 MaxDP=4.14D-04 DE=-1.56D-05 OVMax= 1.14D-03

 Cycle   8  Pass 1  IDiag  1:
 E= -193.749245455659     Delta-E=       -0.000004382965 Rises=F Damp=F
 DIIS: error= 2.43D-04 at cycle   8 NSaved=   8.
 NSaved= 8 IEnMin= 8 EnMin= -193.749245455659     IErMin= 8 ErrMin= 2.43D-04
 ErrMax= 2.43D-04  0.00D+00 EMaxC= 1.00D+00 BMatC= 1.39D-06 BMatP= 4.22D-06
 IDIUse=1 WtCom= 1.00D+00 WtEn= 0.00D+00
 Coeff-Com: -0.336D-02 0.564D-02-0.486D-01 0.417D-01 0.436D+00-0.120D+01
 Coeff-Com:  0.237D+00 0.153D+01
 Coeff:     -0.336D-02 0.564D-02-0.486D-01 0.417D-01 0.436D+00-0.120D+01
 Coeff:      0.237D+00 0.153D+01
 Gap=     0.394 Goal=   None    Shift=    0.500
 Gap=     0.394 Goal=   None    Shift=    0.500
 RMSDP=2.29D-05 MaxDP=1.85D-04 DE=-4.38D-06 OVMax= 6.32D-04

 Cycle   9  Pass 1  IDiag  1:
 E= -193.749246666554     Delta-E=       -0.000001210896 Rises=F Damp=F
 DIIS: error= 1.34D-04 at cycle   9 NSaved=   9.
 NSaved= 9 IEnMin= 9 EnMin= -193.749246666554     IErMin= 9 ErrMin= 1.34D-04
 ErrMax= 1.34D-04  0.00D+00 EMaxC= 1.00D+00 BMatC= 4.30D-07 BMatP= 1.39D-06
 IDIUse=1 WtCom= 1.00D+00 WtEn= 0.00D+00
 Coeff-Com: -0.317D-03 0.381D-03 0.500D-02 0.759D-02-0.141D+00 0.577D+00
 Coeff-Com: -0.106D+01-0.224D+00 0.184D+01
 Coeff:     -0.317D-03 0.381D-03 0.500D-02 0.759D-02-0.141D+00 0.577D+00
 Coeff:     -0.106D+01-0.224D+00 0.184D+01
 Gap=     0.394 Goal=   None    Shift=    0.500
 Gap=     0.394 Goal=   None    Shift=    0.500
 RMSDP=1.13D-05 MaxDP=1.02D-04 DE=-1.21D-06 OVMax= 3.40D-04

 Cycle  10  Pass 1  IDiag  1:
 E= -193.749247000757     Delta-E=       -0.000000334203 Rises=F Damp=F
 DIIS: error= 7.75D-05 at cycle  10 NSaved=  10.
 NSaved=10 IEnMin=10 EnMin= -193.749247000757     IErMin=10 ErrMin= 7.75D-05
 ErrMax= 7.75D-05  0.00D+00 EMaxC= 1.00D+00 BMatC= 1.44D-07 BMatP= 4.30D-07
 IDIUse=1 WtCom= 1.00D+00 WtEn= 0.00D+00
 Coeff-Com:  0.486D-03-0.102D-02 0.121D-02 0.108D-01-0.424D-01-0.716D-03
 Coeff-Com:  0.389D+00-0.749D+00-0.848D+00 0.224D+01
 Coeff:      0.486D-03-0.102D-02 0.121D-02 0.108D-01-0.424D-01-0.716D-03
 Coeff:      0.389D+00-0.749D+00-0.848D+00 0.224D+01
 Gap=     0.394 Goal=   None    Shift=    0.500
 Gap=     0.394 Goal=   None    Shift=    0.500
 RMSDP=5.49D-06 MaxDP=5.17D-05 DE=-3.34D-07 OVMax= 1.86D-04

 Cycle  11  Pass 1  IDiag  1:
 E= -193.749247095960     Delta-E=       -0.000000095202 Rises=F Damp=F
 DIIS: error= 4.36D-05 at cycle  11 NSaved=  11.
 NSaved=11 IEnMin=11 EnMin= -193.749247095960     IErMin=11 ErrMin= 4.36D-05
 ErrMax= 4.36D-05  0.00D+00 EMaxC= 1.00D+00 BMatC= 4.72D-08 BMatP= 1.44D-07
 IDIUse=1 WtCom= 1.00D+00 WtEn= 0.00D+00
 Coeff-Com: -0.274D-03 0.495D-03-0.205D-02-0.320D-03 0.205D-01-0.244D-01
 Coeff-Com: -0.514D-01 0.117D+00 0.471D+00-0.261D+01 0.307D+01
 Coeff:     -0.274D-03 0.495D-03-0.205D-02-0.320D-03 0.205D-01-0.244D-01
 Coeff:     -0.514D-01 0.117D+00 0.471D+00-0.261D+01 0.307D+01
 Gap=     0.394 Goal=   None    Shift=    0.500
 Gap=     0.394 Goal=   None    Shift=    0.500
 RMSDP=2.71D-06 MaxDP=2.63D-05 DE=-9.52D-08 OVMax= 1.02D-04

 Cycle  12  Pass 1  IDiag  1:
 E= -193.749247123625     Delta-E=       -0.000000027665 Rises=F Damp=F
 DIIS: error= 2.40D-05 at cycle  12 NSaved=  12.
 NSaved=12 IEnMin=12 EnMin= -193.749247123625     IErMin=12 ErrMin= 2.40D-05
 ErrMax= 2.40D-05  0.00D+00 EMaxC= 1.00D+00 BMatC= 1.49D-08 BMatP= 4.72D-08
 IDIUse=1 WtCom= 1.00D+00 WtEn= 0.00D+00
 Coeff-Com:  0.106D-03-0.214D-03 0.776D-03 0.236D-02-0.196D-01 0.379D-01
 Coeff-Com: -0.134D-02-0.101D+00-0.382D-01 0.113D+01-0.336D+01 0.335D+01
 Coeff:      0.106D-03-0.214D-03 0.776D-03 0.236D-02-0.196D-01 0.379D-01
 Coeff:     -0.134D-02-0.101D+00-0.382D-01 0.113D+01-0.336D+01 0.335D+01
 Gap=     0.394 Goal=   None    Shift=    0.500
 Gap=     0.394 Goal=   None    Shift=    0.500
 RMSDP=1.37D-06 MaxDP=1.31D-05 DE=-2.77D-08 OVMax= 5.48D-05

 Cycle  13  Pass 1  IDiag  1:
 E= -193.749247131531     Delta-E=       -0.000000007906 Rises=F Damp=F
 DIIS: error= 1.32D-05 at cycle  13 NSaved=  13.
 NSaved=13 IEnMin=13 EnMin= -193.749247131531     IErMin=13 ErrMin= 1.32D-05
 ErrMax= 1.32D-05  0.00D+00 EMaxC= 1.00D+00 BMatC= 4.68D-09 BMatP= 1.49D-08
 IDIUse=1 WtCom= 1.00D+00 WtEn= 0.00D+00
 Coeff-Com:  0.947D-05-0.227D-04-0.262D-04 0.237D-03-0.149D-03-0.107D-02
 Coeff-Com:  0.135D-01-0.232D-01 0.124D-01-0.177D+00 0.104D+01-0.313D+01
 Coeff-Com:  0.326D+01
 Coeff:      0.947D-05-0.227D-04-0.262D-04 0.237D-03-0.149D-03-0.107D-02
 Coeff:      0.135D-01-0.232D-01 0.124D-01-0.177D+00 0.104D+01-0.313D+01
 Coeff:      0.326D+01
 Gap=     0.394 Goal=   None    Shift=    0.500
 Gap=     0.394 Goal=   None    Shift=    0.500
 RMSDP=7.01D-07 MaxDP=6.95D-06 DE=-7.91D-09 OVMax= 2.93D-05

 SCF Done:  E(ULC-wHPBE) =  -193.749247132     A.U. after   13 cycles
            NFock= 13  Conv=0.70D-06     -V/T= 2.0058
 <Sx>= 0.0000 <Sy>= 0.0000 <Sz>= 0.0000 <S**2>= 0.0000 S= 0.0000
 <L.S>= 0.000000000000E+00
 KE= 1.926333715610D+02 PE=-7.597028361737D+02 EE= 2.178762989526D+02
 Annihilation of the first spin contaminant:
 S**2 before annihilation     0.0000,   after    -0.0000
 Leave Link  502 at Tue Feb 25 12:23:14 2020, MaxMem=  6710886400 cpu:              20.7 elap:               1.3
 (Enter /opt/ohpc/pub/libs/gaussian/g16-A.03/haswell/g16/l508.exe)
 QCSCF skips out because SCF is already converged.
 Leave Link  508 at Tue Feb 25 12:23:14 2020, MaxMem=  6710886400 cpu:               0.0 elap:               0.0
 (Enter /opt/ohpc/pub/libs/gaussian/g16-A.03/haswell/g16/l601.exe)
 Copying SCF densities to generalized density rwf, IOpCl= 1 IROHF=0.

 **********************************************************************

            Population analysis using the SCF density.

 **********************************************************************

 Orbital symmetries:
 Alpha Orbitals:
       Occupied  (B2) (A1) (B2) (A1) (A1) (A1) (A1) (B2) (A1) (B2)
                 (A1) (B2) (A1) (A1) (B2) (B1) (A2) (B1)
       Virtual   (B2) (A2) (A1) (B1) (A1) (B2) (A1) (B2) (A1) (A1)
                 (B2) (A1) (B2) (B2) (B1) (A2) (B1) (A1) (A1) (B2)
                 (A1) (A2) (B1) (B2) (B2) (A1) (B2) (A1) (A1) (A1)
                 (B2) (A1) (A1) (B2) (A1) (B2) (A1) (A1) (B2)
 Beta  Orbitals:
       Occupied  (B2) (A1) (B2) (A1) (A1) (A1) (A1) (B2) (A1) (B2)
                 (A1) (B2) (A1) (A1) (B2) (B1) (A2) (B1)
       Virtual   (B2) (A2) (A1) (B1) (A1) (B2) (A1) (B2) (A1) (A1)
                 (B2) (A1) (B2) (B2) (B1) (A2) (B1) (A1) (A1) (B2)
                 (A1) (A2) (B1) (B2) (B2) (A1) (B2) (A1) (A1) (A1)
                 (B2) (A1) (A1) (B2) (A1) (B2) (A1) (A1) (B2)
 The electronic state is 1-A1.
 Alpha  occ. eigenvalues --  -10.11320 -10.11317 -10.07506 -10.07505 -10.04025
 Alpha  occ. eigenvalues --   -0.98189  -0.85366  -0.82801  -0.68232  -0.66989
 Alpha  occ. eigenvalues --   -0.62858  -0.52320  -0.51104  -0.48160  -0.46939
 Alpha  occ. eigenvalues --   -0.46490  -0.32699  -0.28135
 Alpha virt. eigenvalues --    0.11276   0.11523   0.16884   0.19091   0.19991
 Alpha virt. eigenvalues --    0.24591   0.26476   0.28078   0.29017   0.41948
 Alpha virt. eigenvalues --    0.42896   0.52651   0.54021   0.62440   0.64259
 Alpha virt. eigenvalues --    0.70891   0.71801   0.71891   0.73904   0.75455
 Alpha virt. eigenvalues --    0.76310   0.77412   0.79981   0.87230   0.93045
 Alpha virt. eigenvalues --    0.95774   0.97447   0.97865   0.99870   1.06575
 Alpha virt. eigenvalues --    1.06651   1.10514   1.14148   1.20523   1.28708
 Alpha virt. eigenvalues --    1.30312   1.36569   1.58231   1.59225
  Beta  occ. eigenvalues --  -10.11320 -10.11317 -10.07506 -10.07505 -10.04025
  Beta  occ. eigenvalues --   -0.98189  -0.85366  -0.82801  -0.68232  -0.66989
  Beta  occ. eigenvalues --   -0.62858  -0.52320  -0.51104  -0.48160  -0.46939
  Beta  occ. eigenvalues --   -0.46490  -0.32699  -0.28135
  Beta virt. eigenvalues --    0.11276   0.11523   0.16884   0.19091   0.19991
  Beta virt. eigenvalues --    0.24591   0.26476   0.28078   0.29017   0.41948
  Beta virt. eigenvalues --    0.42896   0.52651   0.54021   0.62440   0.64259
  Beta virt. eigenvalues --    0.70891   0.71801   0.71891   0.73904   0.75455
  Beta virt. eigenvalues --    0.76310   0.77412   0.79981   0.87230   0.93045
  Beta virt. eigenvalues --    0.95774   0.97447   0.97865   0.99870   1.06575
  Beta virt. eigenvalues --    1.06651   1.10514   1.14148   1.20523   1.28708
  Beta virt. eigenvalues --    1.30312   1.36569   1.58231   1.59225
          Condensed to atoms (all electrons):
               1          2          3          4          5          6
     1  C    5.424901   0.475476  -0.053645  -0.130723   0.253962   0.170757
     2  C    0.475476   4.899807   0.558170  -0.011669  -0.130723  -0.021762
     3  C   -0.053645   0.558170   4.812692   0.558170  -0.053645   0.004970
     4  C   -0.130723  -0.011669   0.558170   4.899807   0.475476  -0.021762
     5  C    0.253962  -0.130723  -0.053645   0.475476   5.424901   0.170757
     6  H    0.170757  -0.021762   0.004970  -0.021762   0.170757   0.401626
     7  H    0.346825  -0.000683   0.000026   0.004087  -0.023887  -0.011334
     8  H   -0.037900   0.364465  -0.016459   0.004666   0.001826   0.000957
     9  H    0.006814  -0.040491   0.375896  -0.040491   0.006814  -0.000099
    10  H    0.001826   0.004666  -0.016459   0.364465  -0.037900   0.000957
    11  H   -0.023887   0.004087   0.000026  -0.000683   0.346825  -0.011334
               7          8          9         10         11
     1  C    0.346825  -0.037900   0.006814   0.001826  -0.023887
     2  C   -0.000683   0.364465  -0.040491   0.004666   0.004087
     3  C    0.000026  -0.016459   0.375896  -0.016459   0.000026
     4  C    0.004087   0.004666  -0.040491   0.364465  -0.000683
     5  C   -0.023887   0.001826   0.006814  -0.037900   0.346825
     6  H   -0.011334   0.000957  -0.000099   0.000957  -0.011334
     7  H    0.464233  -0.000348  -0.000105  -0.000036   0.000757
     8  H   -0.000348   0.513799  -0.002443  -0.000169  -0.000036
     9  H   -0.000105  -0.002443   0.555906  -0.002443  -0.000105
    10  H   -0.000036  -0.000169  -0.002443   0.513799  -0.000348
    11  H    0.000757  -0.000036  -0.000105  -0.000348   0.464233
          Atomic-Atomic Spin Densities.
               1          2          3          4          5          6
     1  C    0.000000   0.000000   0.000000   0.000000   0.000000   0.000000
     2  C    0.000000   0.000000   0.000000   0.000000   0.000000   0.000000
     3  C    0.000000   0.000000   0.000000   0.000000   0.000000   0.000000
     4  C    0.000000   0.000000   0.000000   0.000000   0.000000   0.000000
     5  C    0.000000   0.000000   0.000000   0.000000   0.000000   0.000000
     6  H    0.000000   0.000000   0.000000   0.000000   0.000000   0.000000
     7  H    0.000000   0.000000   0.000000   0.000000   0.000000   0.000000
     8  H    0.000000   0.000000   0.000000   0.000000   0.000000   0.000000
     9  H    0.000000   0.000000   0.000000   0.000000   0.000000   0.000000
    10  H    0.000000   0.000000   0.000000   0.000000   0.000000   0.000000
    11  H    0.000000   0.000000   0.000000   0.000000   0.000000   0.000000
               7          8          9         10         11
     1  C    0.000000   0.000000   0.000000   0.000000   0.000000
     2  C    0.000000   0.000000   0.000000   0.000000   0.000000
     3  C    0.000000   0.000000   0.000000   0.000000   0.000000
     4  C    0.000000   0.000000   0.000000   0.000000   0.000000
     5  C    0.000000   0.000000   0.000000   0.000000   0.000000
     6  H    0.000000   0.000000   0.000000   0.000000   0.000000
     7  H    0.000000   0.000000   0.000000   0.000000   0.000000
     8  H    0.000000   0.000000   0.000000   0.000000   0.000000
     9  H    0.000000   0.000000   0.000000   0.000000   0.000000
    10  H    0.000000   0.000000   0.000000   0.000000   0.000000
    11  H    0.000000   0.000000   0.000000   0.000000   0.000000
 Mulliken charges and spin densities:
               1          2
     1  C   -0.434406   0.000000
     2  C   -0.101342   0.000000
     3  C   -0.169739   0.000000
     4  C   -0.101342   0.000000
     5  C   -0.434406   0.000000
     6  H    0.316268   0.000000
     7  H    0.220466   0.000000
     8  H    0.171643   0.000000
     9  H    0.140748   0.000000
    10  H    0.171643   0.000000
    11  H    0.220466   0.000000
 Sum of Mulliken charges =   0.00000   0.00000
 Mulliken charges and spin densities with hydrogens summed into heavy atoms:
               1          2
     1  C    0.102328   0.000000
     2  C    0.070301   0.000000
     3  C   -0.028990   0.000000
     4  C    0.070301   0.000000
     5  C   -0.213940   0.000000
 Electronic spatial extent (au):  <R**2>=            338.9287
 Charge=             -0.0000 electrons
 Dipole moment (field-independent basis, Debye):
    X=             -0.0000    Y=              0.0000    Z=             -1.9469  Tot=              1.9469
 Quadrupole moment (field-independent basis, Debye-Ang):
   XX=            -35.6262   YY=            -26.0442   ZZ=            -24.1524
   XY=              0.0000   XZ=              0.0000   YZ=              0.0000
 Traceless Quadrupole moment (field-independent basis, Debye-Ang):
   XX=             -7.0186   YY=              2.5634   ZZ=              4.4552
   XY=              0.0000   XZ=              0.0000   YZ=              0.0000
 Octapole moment (field-independent basis, Debye-Ang**2):
  XXX=              0.0000  YYY=             -0.0000  ZZZ=             -8.7558  XYY=              0.0000
  XXY=             -0.0000  XXZ=              0.8857  XZZ=              0.0000  YZZ=             -0.0000
  YYZ=             -1.0332  XYZ=             -0.0000
 Hexadecapole moment (field-independent basis, Debye-Ang**3):
 XXXX=            -38.4076 YYYY=           -189.9808 ZZZZ=           -175.6153 XXXY=             -0.0000
 XXXZ=             -0.0000 YYYX=             -0.0000 YYYZ=              0.0000 ZZZX=             -0.0000
 ZZZY=             -0.0000 XXYY=            -48.1642 XXZZ=            -46.7420 YYZZ=            -59.7531
 XXYZ=              0.0000 YYXZ=             -0.0000 ZZXY=             -0.0000
 N-N= 1.554439185285D+02 E-N=-7.597028136032D+02  KE= 1.926333715610D+02
 Symmetry A1   KE= 1.108442241176D+02
 Symmetry A2   KE= 2.400172081703D+00
 Symmetry B1   KE= 4.203457931518D+00
 Symmetry B2   KE= 7.518551743019D+01
 Symmetry A1   SP= 0.000000000000D+00
 Symmetry A2   SP= 0.000000000000D+00
 Symmetry B1   SP= 0.000000000000D+00
 Symmetry B2   SP= 0.000000000000D+00
                          Isotropic Fermi Contact Couplings
        Atom                 a.u.       MegaHertz       Gauss      10(-4) cm-1
     1  C(13)              0.00000       0.00000       0.00000       0.00000
     2  C(13)              0.00000       0.00000       0.00000       0.00000
     3  C(13)              0.00000       0.00000       0.00000       0.00000
     4  C(13)              0.00000       0.00000       0.00000       0.00000
     5  C(13)              0.00000       0.00000       0.00000       0.00000
     6  H(1)               0.00000       0.00000       0.00000       0.00000
     7  H(1)               0.00000       0.00000       0.00000       0.00000
     8  H(1)               0.00000       0.00000       0.00000       0.00000
     9  H(1)               0.00000       0.00000       0.00000       0.00000
    10  H(1)               0.00000       0.00000       0.00000       0.00000
    11  H(1)               0.00000       0.00000       0.00000       0.00000
 --------------------------------------------------------
       Center         ----  Spin Dipole Couplings  ----
                      3XX-RR        3YY-RR        3ZZ-RR
 --------------------------------------------------------
     1   Atom        0.000000      0.000000      0.000000
     2   Atom        0.000000      0.000000      0.000000
     3   Atom        0.000000      0.000000      0.000000
     4   Atom        0.000000      0.000000      0.000000
     5   Atom        0.000000      0.000000      0.000000
     6   Atom        0.000000      0.000000      0.000000
     7   Atom        0.000000      0.000000      0.000000
     8   Atom        0.000000      0.000000      0.000000
     9   Atom        0.000000      0.000000      0.000000
    10   Atom        0.000000      0.000000      0.000000
    11   Atom        0.000000      0.000000      0.000000
 --------------------------------------------------------
                        XY            XZ            YZ
 --------------------------------------------------------
     1   Atom        0.000000      0.000000      0.000000
     2   Atom        0.000000      0.000000      0.000000
     3   Atom        0.000000      0.000000      0.000000
     4   Atom        0.000000      0.000000      0.000000
     5   Atom        0.000000      0.000000      0.000000
     6   Atom        0.000000      0.000000      0.000000
     7   Atom        0.000000      0.000000      0.000000
     8   Atom        0.000000      0.000000      0.000000
     9   Atom        0.000000      0.000000      0.000000
    10   Atom        0.000000      0.000000      0.000000
    11   Atom        0.000000      0.000000      0.000000
 --------------------------------------------------------


 ---------------------------------------------------------------------------------
              Anisotropic Spin Dipole Couplings in Principal Axis System
 ---------------------------------------------------------------------------------

       Atom             a.u.   MegaHertz   Gauss  10(-4) cm-1        Axes

              Baa     0.0000     0.000     0.000     0.000  1.0000  0.0000  0.0000
     1 C(13)  Bbb     0.0000     0.000     0.000     0.000 -0.0000  1.0000  0.0000
              Bcc     0.0000     0.000     0.000     0.000  0.0000  0.0000  1.0000
 
              Baa     0.0000     0.000     0.000     0.000  1.0000  0.0000  0.0000
     2 C(13)  Bbb     0.0000     0.000     0.000     0.000 -0.0000  1.0000  0.0000
              Bcc     0.0000     0.000     0.000     0.000  0.0000  0.0000  1.0000
 
              Baa     0.0000     0.000     0.000     0.000  1.0000  0.0000  0.0000
     3 C(13)  Bbb     0.0000     0.000     0.000     0.000 -0.0000  1.0000  0.0000
              Bcc     0.0000     0.000     0.000     0.000  0.0000  0.0000  1.0000
 
              Baa     0.0000     0.000     0.000     0.000  1.0000  0.0000  0.0000
     4 C(13)  Bbb     0.0000     0.000     0.000     0.000 -0.0000  1.0000  0.0000
              Bcc     0.0000     0.000     0.000     0.000  0.0000  0.0000  1.0000
 
              Baa     0.0000     0.000     0.000     0.000  1.0000  0.0000  0.0000
     5 C(13)  Bbb     0.0000     0.000     0.000     0.000 -0.0000  1.0000  0.0000
              Bcc     0.0000     0.000     0.000     0.000  0.0000  0.0000  1.0000
 
              Baa     0.0000     0.000     0.000     0.000  1.0000  0.0000  0.0000
     6 H(1)   Bbb     0.0000     0.000     0.000     0.000 -0.0000  1.0000  0.0000
              Bcc     0.0000     0.000     0.000     0.000  0.0000  0.0000  1.0000
 
              Baa     0.0000     0.000     0.000     0.000  1.0000  0.0000  0.0000
     7 H(1)   Bbb     0.0000     0.000     0.000     0.000 -0.0000  1.0000  0.0000
              Bcc     0.0000     0.000     0.000     0.000  0.0000  0.0000  1.0000
 
              Baa     0.0000     0.000     0.000     0.000  1.0000  0.0000  0.0000
     8 H(1)   Bbb     0.0000     0.000     0.000     0.000 -0.0000  1.0000  0.0000
              Bcc     0.0000     0.000     0.000     0.000  0.0000  0.0000  1.0000
 
              Baa     0.0000     0.000     0.000     0.000  1.0000  0.0000  0.0000
     9 H(1)   Bbb     0.0000     0.000     0.000     0.000 -0.0000  1.0000  0.0000
              Bcc     0.0000     0.000     0.000     0.000  0.0000  0.0000  1.0000
 
              Baa     0.0000     0.000     0.000     0.000  1.0000  0.0000  0.0000
    10 H(1)   Bbb     0.0000     0.000     0.000     0.000 -0.0000  1.0000  0.0000
              Bcc     0.0000     0.000     0.000     0.000  0.0000  0.0000  1.0000
 
              Baa     0.0000     0.000     0.000     0.000  1.0000  0.0000  0.0000
    11 H(1)   Bbb     0.0000     0.000     0.000     0.000 -0.0000  1.0000  0.0000
              Bcc     0.0000     0.000     0.000     0.000  0.0000  0.0000  1.0000
 

 ---------------------------------------------------------------------------------

 No NMR shielding tensors so no spin-rotation constants.
 Leave Link  601 at Tue Feb 25 12:23:14 2020, MaxMem=  6710886400 cpu:               3.0 elap:               0.2
 (Enter /opt/ohpc/pub/libs/gaussian/g16-A.03/haswell/g16/l9999.exe)

 Test job not archived.
 1\1\GINC-HASWELL008\SP\ULC-wHPBE\6-31G\C5H6\SMGO234\25-Feb-2020\0\\#P 
 uLC-wHPBE/6-31G iop(3/107=0325300000, 3/108=0325300000) scf=(conver=6,
 fermi,ndamp=35,noincfock,novaracc,vshift=500,xqc)\\H6 C5\\0,1\C,0,0.,0
 .895213,-0.933453\C,0,0.,1.131613,0.424372\C,0,0.,0.,1.240919\C,0,0.,-
 1.131613,0.424372\C,0,0.,-0.895213,-0.933453\H,0,0.,0.,-1.720797\H,0,0
 .,1.620085,-1.742217\H,0,0.,2.160007,0.773055\H,0,0.,0.,2.322589\H,0,0
 .,-2.160007,0.773055\H,0,0.,-1.620085,-1.742217\\Version=ES64L-G16RevA
 .03\State=1-A1\HF=-193.7492471\S2=0.\S2-1=0.\S2A=0.\RMSD=7.009e-07\Dip
 ole=0.,0.,-0.7659594\Quadrupole=-5.2181653,1.9058449,3.3123205,0.,0.,0
 .\PG=C02V [C2(H1C1H1),SGV(C4H4)]\\@


 I take a simple view of life: keep your eyes open and get on with it.
 -- Laurence Olivier
 Job cpu time:       0 days  0 hours  0 minutes 46.1 seconds.
 Elapsed time:       0 days  0 hours  0 minutes  3.2 seconds.
 File lengths (MBytes):  RWF=    272 Int=      0 D2E=      0 Chk=     32 Scr=     32
 Normal termination of Gaussian 16 at Tue Feb 25 12:23:14 2020.
