 Entering Gaussian System, Link 0=g16
 Input=1b_tune_c6.gjf
 Output=1b_tune_c6.log
 Initial command:
 /opt/ohpc/pub/libs/gaussian/g16-A.03/haswell/g16/l1.exe "/scratch/smgo234/Ocelot/test/1b/tuning_1b_ocycle2/Gau-44975.inp" -scrdir="/scratch/smgo234/Ocelot/test/1b/tuning_1b_ocycle2/"
 Entering Link 1 = /opt/ohpc/pub/libs/gaussian/g16-A.03/haswell/g16/l1.exe PID=     44976.
  
 Copyright (c) 1988,1990,1992,1993,1995,1998,2003,2009,2016,
            Gaussian, Inc.  All Rights Reserved.
  
 This is part of the Gaussian(R) 16 program.  It is based on
 the Gaussian(R) 09 system (copyright 2009, Gaussian, Inc.),
 the Gaussian(R) 03 system (copyright 2003, Gaussian, Inc.),
 the Gaussian(R) 98 system (copyright 1998, Gaussian, Inc.),
 the Gaussian(R) 94 system (copyright 1995, Gaussian, Inc.),
 the Gaussian 92(TM) system (copyright 1992, Gaussian, Inc.),
 the Gaussian 90(TM) system (copyright 1990, Gaussian, Inc.),
 the Gaussian 88(TM) system (copyright 1988, Gaussian, Inc.),
 the Gaussian 86(TM) system (copyright 1986, Carnegie Mellon
 University), and the Gaussian 82(TM) system (copyright 1983,
 Carnegie Mellon University). Gaussian is a federally registered
 trademark of Gaussian, Inc.
  
 This software contains proprietary and confidential information,
 including trade secrets, belonging to Gaussian, Inc.
  
 This software is provided under written license and may be
 used, copied, transmitted, or stored only in accord with that
 written license.
  
 The following legend is applicable only to US Government
 contracts under FAR:
  
                    RESTRICTED RIGHTS LEGEND
  
 Use, reproduction and disclosure by the US Government is
 subject to restrictions as set forth in subparagraphs (a)
 and (c) of the Commercial Computer Software - Restricted
 Rights clause in FAR 52.227-19.
  
 Gaussian, Inc.
 340 Quinnipiac St., Bldg. 40, Wallingford CT 06492
  
  
 ---------------------------------------------------------------
 Warning -- This program may not be used in any manner that
 competes with the business of Gaussian, Inc. or will provide
 assistance to any competitor of Gaussian, Inc.  The licensee
 of this program is prohibited from giving any competitor of
 Gaussian, Inc. access to this program.  By using this program,
 the user acknowledges that Gaussian, Inc. is engaged in the
 business of creating and licensing software in the field of
 computational chemistry and represents and warrants to the
 licensee that it is not a competitor of Gaussian, Inc. and that
 it will not use this program in any manner prohibited above.
 ---------------------------------------------------------------
  

 Cite this work as:
 Gaussian 16, Revision A.03,
 M. J. Frisch, G. W. Trucks, H. B. Schlegel, G. E. Scuseria, 
 M. A. Robb, J. R. Cheeseman, G. Scalmani, V. Barone, 
 G. A. Petersson, H. Nakatsuji, X. Li, M. Caricato, A. V. Marenich, 
 J. Bloino, B. G. Janesko, R. Gomperts, B. Mennucci, H. P. Hratchian, 
 J. V. Ortiz, A. F. Izmaylov, J. L. Sonnenberg, D. Williams-Young, 
 F. Ding, F. Lipparini, F. Egidi, J. Goings, B. Peng, A. Petrone, 
 T. Henderson, D. Ranasinghe, V. G. Zakrzewski, J. Gao, N. Rega, 
 G. Zheng, W. Liang, M. Hada, M. Ehara, K. Toyota, R. Fukuda, 
 J. Hasegawa, M. Ishida, T. Nakajima, Y. Honda, O. Kitao, H. Nakai, 
 T. Vreven, K. Throssell, J. A. Montgomery, Jr., J. E. Peralta, 
 F. Ogliaro, M. J. Bearpark, J. J. Heyd, E. N. Brothers, K. N. Kudin, 
 V. N. Staroverov, T. A. Keith, R. Kobayashi, J. Normand, 
 K. Raghavachari, A. P. Rendell, J. C. Burant, S. S. Iyengar, 
 J. Tomasi, M. Cossi, J. M. Millam, M. Klene, C. Adamo, R. Cammi, 
 J. W. Ochterski, R. L. Martin, K. Morokuma, O. Farkas, 
 J. B. Foresman, and D. J. Fox, Gaussian, Inc., Wallingford CT, 2016.
 
 ******************************************
 Gaussian 16:  ES64L-G16RevA.03 25-Dec-2016
                25-Feb-2020 
 ******************************************
 %mem=50GB
 %nproc=16
 Will use up to   16 processors via shared memory.
 ----------------------------------------------------------------------
 #P uLC-wHPBE/6-31G iop(3/107=0313900000, 3/108=0313900000) scf=(conver
 =6,fermi,ndamp=35,noincfock,novaracc,vshift=500,xqc)
 ----------------------------------------------------------------------
 1/38=1,172=1/1;
 2/12=2,17=6,18=5,40=1/2;
 3/5=1,6=6,11=2,25=1,30=1,74=-71,107=313900000,108=313900000,116=2/1,2,3;
 4//1;
 5/5=100002,6=6,8=3,10=500,13=1,18=-1,22=13,38=1,93=35/2,8;
 6/7=2,8=2,9=2,10=2,28=1/1;
 99/5=1,9=1/99;
 Leave Link    1 at Tue Feb 25 12:23:37 2020, MaxMem=  6710886400 cpu:               9.5 elap:               0.6
 (Enter /opt/ohpc/pub/libs/gaussian/g16-A.03/haswell/g16/l101.exe)
 -----
 H6 C5
 -----
 Symbolic Z-matrix:
 Charge =  1 Multiplicity = 2
 C                     0.        0.89521  -0.93345 
 C                     0.        1.13161   0.42437 
 C                     0.        0.        1.24092 
 C                     0.       -1.13161   0.42437 
 C                     0.       -0.89521  -0.93345 
 H                     0.        0.       -1.7208 
 H                     0.        1.62009  -1.74222 
 H                     0.        2.16001   0.77306 
 H                     0.        0.        2.32259 
 H                     0.       -2.16001   0.77306 
 H                     0.       -1.62009  -1.74222 
 
 ITRead=  0  0  0  0  0  0  0  0  0  0  0
 MicOpt= -1 -1 -1 -1 -1 -1 -1 -1 -1 -1 -1
 NAtoms=     11 NQM=       11 NQMF=       0 NMMI=      0 NMMIF=      0
                NMic=       0 NMicF=      0.
                    Isotopes and Nuclear Properties:
 (Nuclear quadrupole moments (NQMom) in fm**2, nuclear magnetic moments (NMagM)
  in nuclear magnetons)

  Atom         1           2           3           4           5           6           7           8           9          10
 IAtWgt=          12          12          12          12          12           1           1           1           1           1
 AtmWgt=  12.0000000  12.0000000  12.0000000  12.0000000  12.0000000   1.0078250   1.0078250   1.0078250   1.0078250   1.0078250
 NucSpn=           0           0           0           0           0           1           1           1           1           1
 AtZEff=  -0.0000000  -0.0000000  -0.0000000  -0.0000000  -0.0000000  -0.0000000  -0.0000000  -0.0000000  -0.0000000  -0.0000000
 NQMom=    0.0000000   0.0000000   0.0000000   0.0000000   0.0000000   0.0000000   0.0000000   0.0000000   0.0000000   0.0000000
 NMagM=    0.0000000   0.0000000   0.0000000   0.0000000   0.0000000   2.7928460   2.7928460   2.7928460   2.7928460   2.7928460
 AtZNuc=   6.0000000   6.0000000   6.0000000   6.0000000   6.0000000   1.0000000   1.0000000   1.0000000   1.0000000   1.0000000

  Atom        11
 IAtWgt=           1
 AtmWgt=   1.0078250
 NucSpn=           1
 AtZEff=  -0.0000000
 NQMom=    0.0000000
 NMagM=    2.7928460
 AtZNuc=   1.0000000
 Leave Link  101 at Tue Feb 25 12:23:37 2020, MaxMem=  6710886400 cpu:               2.3 elap:               0.2
 (Enter /opt/ohpc/pub/libs/gaussian/g16-A.03/haswell/g16/l202.exe)
                          Input orientation:                          
 ---------------------------------------------------------------------
 Center     Atomic      Atomic             Coordinates (Angstroms)
 Number     Number       Type             X           Y           Z
 ---------------------------------------------------------------------
      1          6           0        0.000000    0.895213   -0.933453
      2          6           0        0.000000    1.131613    0.424372
      3          6           0        0.000000    0.000000    1.240919
      4          6           0        0.000000   -1.131613    0.424372
      5          6           0        0.000000   -0.895213   -0.933453
      6          1           0        0.000000    0.000000   -1.720797
      7          1           0        0.000000    1.620085   -1.742217
      8          1           0        0.000000    2.160007    0.773055
      9          1           0        0.000000    0.000000    2.322589
     10          1           0        0.000000   -2.160007    0.773055
     11          1           0        0.000000   -1.620085   -1.742217
 ---------------------------------------------------------------------
                    Distance matrix (angstroms):
                    1          2          3          4          5
     1  C    0.000000
     2  C    1.378250   0.000000
     3  C    2.351446   1.395456   0.000000
     4  C    2.439613   2.263226   1.395456   0.000000
     5  C    1.790426   2.439613   2.351446   1.378250   0.000000
     6  H    1.192190   2.425345   2.961716   2.425345   1.192190
     7  H    1.086066   2.220971   3.394669   3.502278   2.642125
     8  H    2.124117   1.085898   2.210097   3.310037   3.499506
     9  H    3.376865   2.209927   1.081670   2.209927   3.376865
    10  H    3.499506   3.310037   2.210097   1.085898   2.124117
    11  H    2.642125   3.502278   3.394669   2.220971   1.086066
                    6          7          8          9         10
     6  H    0.000000
     7  H    1.620227   0.000000
     8  H    3.299231   2.572569   0.000000
     9  H    4.043386   4.375765   2.658324   0.000000
    10  H    3.299231   4.540450   4.320014   2.658324   0.000000
    11  H    1.620227   3.240170   4.540450   4.375765   2.572569
                   11
    11  H    0.000000
 Stoichiometry    C5H6(1+,2)
 Framework group  C2V[C2(HCH),SGV(C4H4)]
 Deg. of freedom    10
 Full point group                 C2V     NOp   4
 Largest Abelian subgroup         C2V     NOp   4
 Largest concise Abelian subgroup C2      NOp   2
                         Standard orientation:                         
 ---------------------------------------------------------------------
 Center     Atomic      Atomic             Coordinates (Angstroms)
 Number     Number       Type             X           Y           Z
 ---------------------------------------------------------------------
      1          6           0        0.000000    0.895213   -0.933453
      2          6           0        0.000000    1.131613    0.424372
      3          6           0        0.000000   -0.000000    1.240919
      4          6           0       -0.000000   -1.131613    0.424372
      5          6           0       -0.000000   -0.895213   -0.933453
      6          1           0       -0.000000    0.000000   -1.720797
      7          1           0        0.000000    1.620085   -1.742217
      8          1           0        0.000000    2.160007    0.773055
      9          1           0        0.000000   -0.000000    2.322589
     10          1           0       -0.000000   -2.160007    0.773055
     11          1           0       -0.000000   -1.620085   -1.742217
 ---------------------------------------------------------------------
 Rotational constants (GHZ):           8.5037938           7.8157507           4.0726340
 Leave Link  202 at Tue Feb 25 12:23:37 2020, MaxMem=  6710886400 cpu:               0.2 elap:               0.0
 (Enter /opt/ohpc/pub/libs/gaussian/g16-A.03/haswell/g16/l301.exe)
 Standard basis: 6-31G (6D, 7F)
 Ernie: Thresh=  0.10000D-02 Tol=  0.10000D-05 Strict=F.
 There are    27 symmetry adapted cartesian basis functions of A1  symmetry.
 There are     4 symmetry adapted cartesian basis functions of A2  symmetry.
 There are     6 symmetry adapted cartesian basis functions of B1  symmetry.
 There are    20 symmetry adapted cartesian basis functions of B2  symmetry.
 There are    27 symmetry adapted basis functions of A1  symmetry.
 There are     4 symmetry adapted basis functions of A2  symmetry.
 There are     6 symmetry adapted basis functions of B1  symmetry.
 There are    20 symmetry adapted basis functions of B2  symmetry.
    57 basis functions,   134 primitive gaussians,    57 cartesian basis functions
    18 alpha electrons       17 beta electrons
       nuclear repulsion energy       155.4439185285 Hartrees.
 IExCor=33909 DFT=T Ex+Corr=LC-wHPBE ExCW=0 ScaHFX=  1.000000
 ScaDFX=  1.000000  1.000000  1.000000  1.000000 ScalE2=  1.000000  1.000000
 IRadAn=      5 IRanWt=     -1 IRanGd=            0 ICorTp=0 IEmpDi=  4
 HFx  wShort=  0.000000 wLong=  0.313900 cFull=  0.000000 cShort=  0.000000 cLong=  1.000000
 DFx  wShort=  0.000000 wLong=  0.313900 cFull=  0.000000 cShort=  1.000000 cLong=  0.000000
 NAtoms=   11 NActive=   11 NUniq=    7 SFac= 2.47D+00 NAtFMM=   60 NAOKFM=F Big=F
 Integral buffers will be    131072 words long.
 Raffenetti 2 integral format.
 Two-electron integral symmetry is turned on.
 Leave Link  301 at Tue Feb 25 12:23:37 2020, MaxMem=  6710886400 cpu:               0.8 elap:               0.1
 (Enter /opt/ohpc/pub/libs/gaussian/g16-A.03/haswell/g16/l302.exe)
 NPDir=0 NMtPBC=     1 NCelOv=     1 NCel=       1 NClECP=     1 NCelD=      1
         NCelK=      1 NCelE2=     1 NClLst=     1 CellRange=     0.0.
 One-electron integrals computed using PRISM.
 One-electron integral symmetry used in STVInt
 NBasis=    57 RedAO= T EigKep=  1.90D-03  NBF=    27     4     6    20
 NBsUse=    57 1.00D-06 EigRej= -1.00D+00 NBFU=    27     4     6    20
 Precomputing XC quadrature grid using
 IXCGrd= 4 IRadAn=           5 IRanWt=          -1 IRanGd=           0 AccXCQ= 0.00D+00.
 Generated NRdTot=       0 NPtTot=           0 NUsed=           0 NTot=          32
 NSgBfM=    57    57    57    57    57 MxSgAt=    11 MxSgA2=    11.
 Leave Link  302 at Tue Feb 25 12:23:37 2020, MaxMem=  6710886400 cpu:               3.1 elap:               0.2
 (Enter /opt/ohpc/pub/libs/gaussian/g16-A.03/haswell/g16/l303.exe)
 DipDrv:  MaxL=1.
 Leave Link  303 at Tue Feb 25 12:23:37 2020, MaxMem=  6710886400 cpu:               0.4 elap:               0.0
 (Enter /opt/ohpc/pub/libs/gaussian/g16-A.03/haswell/g16/l401.exe)
 ExpMin= 1.61D-01 ExpMax= 3.05D+03 ExpMxC= 4.57D+02 IAcc=3 IRadAn=         5 AccDes= 0.00D+00
 Harris functional with IExCor=33909 and IRadAn=       5 diagonalized for initial guess.
 HarFok:  IExCor=33909 AccDes= 0.00D+00 IRadAn=         5 IDoV= 1 UseB2=F ITyADJ=14
 ICtDFT=  3500011 ScaDFX=  1.000000  1.000000  1.000000  1.000000
 FoFCou: FMM=F IPFlag=           0 FMFlag=      100000 FMFlg1=           0
         NFxFlg=           0 DoJE=T BraDBF=F KetDBF=T FulRan=T
         wScrn=  0.000000 ICntrl=       500 IOpCl=  0 I1Cent=   200000004 NGrid=           0
         NMat0=    1 NMatS0=      1 NMatT0=    0 NMatD0=    1 NMtDS0=    0 NMtDT0=    0
 Petite list used in FoFCou.
 Harris En= -187.902441340419    
 JPrj=0 DoOrth=F DoCkMO=F.
 Initial guess orbital symmetries:
 Alpha Orbitals:
       Occupied  (A1) (B2) (A1) (B2) (A1) (A1) (B2) (A1) (A1) (B2)
                 (A1) (B2) (A1) (B2) (A1) (B1) (A2) (B1)
       Virtual   (A2) (B2) (B1) (A1) (A1) (B2) (A1) (B2) (A1) (B2)
                 (A1) (A1) (B2) (B2) (B1) (A1) (A2) (B1) (B2) (A1)
                 (A1) (A2) (B1) (B2) (B2) (A1) (B2) (A1) (A1) (B2)
                 (A1) (A1) (A1) (B2) (A1) (B2) (A1) (A1) (B2)
 Beta  Orbitals:
       Occupied  (A1) (B2) (A1) (B2) (A1) (A1) (B2) (A1) (A1) (B2)
                 (A1) (B2) (A1) (B2) (A1) (B1) (A2)
       Virtual   (B1) (A2) (B2) (B1) (A1) (A1) (B2) (A1) (B2) (A1)
                 (B2) (A1) (A1) (B2) (B2) (B1) (A1) (A2) (B1) (B2)
                 (A1) (A1) (A2) (B1) (B2) (B2) (A1) (B2) (A1) (A1)
                 (B2) (A1) (A1) (A1) (B2) (A1) (B2) (A1) (A1) (B2)
 The electronic state of the initial guess is 2-B1.
 Initial guess <Sx>= 0.0000 <Sy>= 0.0000 <Sz>= 0.5000 <S**2>= 0.7500 S= 0.5000
 Leave Link  401 at Tue Feb 25 12:23:37 2020, MaxMem=  6710886400 cpu:               4.6 elap:               0.3
 (Enter /opt/ohpc/pub/libs/gaussian/g16-A.03/haswell/g16/l502.exe)
 Keep R1 and R2 ints in memory in symmetry-blocked form, NReq=16815681.
 FoFCou: FMM=F IPFlag=           0 FMFlag=           0 FMFlg1=           0
         NFxFlg=           0 DoJE=F BraDBF=F KetDBF=F FulRan=T
         wScrn=  0.000000 ICntrl=       600 IOpCl=  0 I1Cent=           0 NGrid=           0
         NMat0=    1 NMatS0=   1653 NMatT0=    0 NMatD0=    1 NMtDS0=    0 NMtDT0=    0
 Petite list used in FoFCou.
 UHF open shell SCF:
 Using DIIS extrapolation, IDIIS=    10.
 NGot=  6710886400 LenX=  6710059561 LenY=  6710055871
 Requested convergence on RMS density matrix=1.00D-06 within  32 cycles.
 Requested convergence on MAX density matrix=1.00D-04.
 Requested convergence on             energy=1.00D-04.
 Virtual orbitals will be shifted by   0.500 hartree.
 No special actions if energy rises.
 Dynamic level shift is on during FON iterations.

 Cycle   1  Pass 1  IDiag  1:
 E= -193.407317179560    
 DIIS: error= 4.75D-02 at cycle   1 NSaved=   1.
 NSaved= 1 IEnMin= 1 EnMin= -193.407317179560     IErMin= 1 ErrMin= 4.75D-02
 ErrMax= 4.75D-02  0.00D+00 EMaxC= 1.00D+00 BMatC= 1.82D-01 BMatP= 1.82D-01
 IDIUse=1 WtCom= 1.00D+00 WtEn= 0.00D+00
 Coeff-Com:  0.100D+01
 Coeff:      0.100D+01
 Gap=     0.356 Goal=   None    Shift=    0.500
 T= 1772. Gap= 0.826 NK=0 IS=   19 IE=   57 IFin=   18
          NO(<0.9)=   0  NV(>0.1)=   0     18.00e < EF      0.00e >EF  Err=0.0D+00
 Gap=     0.245 Goal=   None    Shift=    0.500
 T= 1772. Gap= 0.748 NK=0 IS=   18 IE=   57 IFin=   17
          NO(<0.9)=   0  NV(>0.1)=   0     17.00e < EF      0.00e >EF  Err=0.0D+00
 GapD=    0.245 DampG=1.000 DampE=0.500 DampFc=0.5000 IDamp=-1.
 Damping current iteration by 5.00D-01
 RMSDP=6.62D-03 MaxDP=5.00D-02              OVMax= 9.88D-02

 Cycle   2  Pass 1  IDiag  1:
 E= -193.442101551519     Delta-E=       -0.034784371959 Rises=F Damp=T
 DIIS: error= 2.28D-02 at cycle   2 NSaved=   2.
 NSaved= 2 IEnMin= 2 EnMin= -193.442101551519     IErMin= 2 ErrMin= 2.28D-02
 ErrMax= 2.28D-02  0.00D+00 EMaxC= 1.00D+00 BMatC= 3.17D-02 BMatP= 1.82D-01
 IDIUse=1 WtCom= 1.00D+00 WtEn= 0.00D+00
 Coeff-Com: -0.547D+00 0.155D+01
 Coeff:     -0.547D+00 0.155D+01
 Gap=     0.426 Goal=   None    Shift=    0.500
 T= 1657. Gap= 0.912 NK=4 IS=   19 IE=   23 IFin=   18
          NO(<0.9)=   0  NV(>0.1)=   0     18.00e < EF      0.00e >EF  Err=0.0D+00
 Gap=     0.272 Goal=   None    Shift=    0.500
 T= 1657. Gap= 0.770 NK=4 IS=   18 IE=   23 IFin=   17
          NO(<0.9)=   0  NV(>0.1)=   0     17.00e < EF      0.00e >EF  Err=0.0D+00
 GapD=    0.272 DampG=1.000 DampE=0.500 DampFc=0.5000 IDamp=-1.
 Damping current iteration by 5.00D-01
 RMSDP=4.00D-03 MaxDP=3.11D-02 DE=-3.48D-02 OVMax= 1.55D-02

 Cycle   3  Pass 1  IDiag  1:
 E= -193.454467117518     Delta-E=       -0.012365565999 Rises=F Damp=T
 DIIS: error= 1.29D-02 at cycle   3 NSaved=   3.
 NSaved= 3 IEnMin= 3 EnMin= -193.454467117518     IErMin= 3 ErrMin= 1.29D-02
 ErrMax= 1.29D-02  0.00D+00 EMaxC= 1.00D+00 BMatC= 7.37D-03 BMatP= 3.17D-02
 IDIUse=1 WtCom= 1.00D+00 WtEn= 0.00D+00
 Coeff-Com:  0.336D+00-0.186D+01 0.253D+01
 Coeff:      0.336D+00-0.186D+01 0.253D+01
 Gap=     0.418 Goal=   None    Shift=    0.500
 T= 1449. Gap= 0.918 NK=0 IS=   19 IE=   57 IFin=   18
          NO(<0.9)=   0  NV(>0.1)=   0     18.00e < EF      0.00e >EF  Err=0.0D+00
 Gap=     0.276 Goal=   None    Shift=    0.500
 T= 1449. Gap= 0.776 NK=0 IS=   18 IE=   57 IFin=   17
          NO(<0.9)=   0  NV(>0.1)=   0     17.00e < EF      0.00e >EF  Err=0.0D+00
 GapD=    0.276 DampG=1.000 DampE=0.500 DampFc=0.5000 IDamp=-1.
 Damping current iteration by 5.00D-01
 RMSDP=2.20D-03 MaxDP=1.64D-02 DE=-1.24D-02 OVMax= 1.45D-02

 Cycle   4  Pass 1  IDiag  1:
 E= -193.460305919811     Delta-E=       -0.005838802293 Rises=F Damp=T
 DIIS: error= 8.19D-03 at cycle   4 NSaved=   4.
 NSaved= 4 IEnMin= 4 EnMin= -193.460305919811     IErMin= 4 ErrMin= 8.19D-03
 ErrMax= 8.19D-03  0.00D+00 EMaxC= 1.00D+00 BMatC= 2.48D-03 BMatP= 7.37D-03
 IDIUse=1 WtCom= 1.00D+00 WtEn= 0.00D+00
 Coeff-Com:  0.174D-02 0.811D+00-0.365D+01 0.383D+01
 Coeff:      0.174D-02 0.811D+00-0.365D+01 0.383D+01
 Gap=     0.423 Goal=   None    Shift=    0.500
 T= 1065. Gap= 0.923 NK=0 IS=   19 IE=   57 IFin=   18
          NO(<0.9)=   0  NV(>0.1)=   0     18.00e < EF      0.00e >EF  Err=0.0D+00
 Gap=     0.280 Goal=   None    Shift=    0.500
 T= 1065. Gap= 0.780 NK=0 IS=   18 IE=   57 IFin=   17
          NO(<0.9)=   0  NV(>0.1)=   0     17.00e < EF      0.00e >EF  Err=0.0D+00
 GapD=    0.280 DampG=1.000 DampE=1.000 DampFc=1.0000 IDamp=-1.
 RMSDP=1.35D-03 MaxDP=1.35D-02 DE=-5.84D-03 OVMax= 1.38D-02

 Cycle   5  Pass 1  IDiag  1:
 E= -193.467018474228     Delta-E=       -0.006712554418 Rises=F Damp=F
 DIIS: error= 3.55D-03 at cycle   5 NSaved=   5.
 NSaved= 5 IEnMin= 5 EnMin= -193.467018474228     IErMin= 5 ErrMin= 3.55D-03
 ErrMax= 3.55D-03  0.00D+00 EMaxC= 1.00D+00 BMatC= 3.58D-04 BMatP= 2.48D-03
 IDIUse=1 WtCom= 1.00D+00 WtEn= 0.00D+00
 Coeff-Com: -0.171D+00 0.869D+00-0.717D+00-0.856D+00 0.187D+01
 Coeff:     -0.171D+00 0.869D+00-0.717D+00-0.856D+00 0.187D+01
 Gap=     0.423 Goal=   None    Shift=    0.500
 T=  719. Gap= 0.923 NK=0 IS=   19 IE=   57 IFin=   18
          NO(<0.9)=   0  NV(>0.1)=   0     18.00e < EF      0.00e >EF  Err=0.0D+00
 Gap=     0.283 Goal=   None    Shift=    0.500
 T=  719. Gap= 0.783 NK=0 IS=   18 IE=   57 IFin=   17
          NO(<0.9)=   0  NV(>0.1)=   0     17.00e < EF      0.00e >EF  Err=0.0D+00
 GapD=    0.283 DampG=1.000 DampE=1.000 DampFc=1.0000 IDamp=-1.
 RMSDP=3.87D-04 MaxDP=5.98D-03 DE=-6.71D-03 OVMax= 1.29D-02

 Cycle   6  Pass 1  IDiag  1:
 E= -193.467516580156     Delta-E=       -0.000498105927 Rises=F Damp=F
 DIIS: error= 2.72D-03 at cycle   6 NSaved=   6.
 NSaved= 6 IEnMin= 6 EnMin= -193.467516580156     IErMin= 6 ErrMin= 2.72D-03
 ErrMax= 2.72D-03  0.00D+00 EMaxC= 1.00D+00 BMatC= 1.59D-04 BMatP= 3.58D-04
 IDIUse=1 WtCom= 1.00D+00 WtEn= 0.00D+00
 Coeff-Com:  0.640D-02-0.304D+00 0.912D+00-0.657D+00-0.163D+01 0.267D+01
 Coeff:      0.640D-02-0.304D+00 0.912D+00-0.657D+00-0.163D+01 0.267D+01
 Gap=     0.424 Goal=   None    Shift=    0.500
 T=  399. Gap= 0.924 NK=0 IS=   19 IE=   57 IFin=   18
          NO(<0.9)=   0  NV(>0.1)=   0     18.00e < EF      0.00e >EF  Err=0.0D+00
 Gap=     0.285 Goal=   None    Shift=    0.500
 T=  399. Gap= 0.785 NK=0 IS=   18 IE=   57 IFin=   17
          NO(<0.9)=   0  NV(>0.1)=   0     17.00e < EF      0.00e >EF  Err=0.0D+00
 GapD=    0.285 DampG=1.000 DampE=1.000 DampFc=1.0000 IDamp=-1.
 RMSDP=3.01D-04 MaxDP=4.86D-03 DE=-4.98D-04 OVMax= 1.15D-02

 Cycle   7  Pass 1  IDiag  1:
 E= -193.467793075722     Delta-E=       -0.000276495566 Rises=F Damp=F
 DIIS: error= 1.92D-03 at cycle   7 NSaved=   7.
 NSaved= 7 IEnMin= 7 EnMin= -193.467793075722     IErMin= 7 ErrMin= 1.92D-03
 ErrMax= 1.92D-03  0.00D+00 EMaxC= 1.00D+00 BMatC= 6.76D-05 BMatP= 1.59D-04
 IDIUse=1 WtCom= 1.00D+00 WtEn= 0.00D+00
 Coeff-Com:  0.158D-01-0.694D-01-0.110D+00 0.381D+00-0.391D+00-0.104D+01
 Coeff-Com:  0.221D+01
 Coeff:      0.158D-01-0.694D-01-0.110D+00 0.381D+00-0.391D+00-0.104D+01
 Coeff:      0.221D+01
 Gap=     0.424 Goal=   None    Shift=    0.500
 T=   58. Gap= 0.924 NK=0 IS=   19 IE=   57 IFin=   18
          NO(<0.9)=   0  NV(>0.1)=   0     18.00e < EF      0.00e >EF  Err=0.0D+00
 Gap=     0.286 Goal=   None    Shift=    0.500
 T=   58. Gap= 0.786 NK=0 IS=   18 IE=   57 IFin=   17
          NO(<0.9)=   0  NV(>0.1)=   0     17.00e < EF      0.00e >EF  Err=0.0D+00
 GapD=    0.286 DampG=1.000 DampE=1.000 DampFc=1.0000 IDamp=-1.
 RMSDP=1.97D-04 MaxDP=2.80D-03 DE=-2.76D-04 OVMax= 8.21D-03

 Cycle   8  Pass 1  IDiag  1:
 E= -193.467910202846     Delta-E=       -0.000117127124 Rises=F Damp=F
 DIIS: error= 1.33D-03 at cycle   8 NSaved=   8.
 NSaved= 8 IEnMin= 8 EnMin= -193.467910202846     IErMin= 8 ErrMin= 1.33D-03
 ErrMax= 1.33D-03  0.00D+00 EMaxC= 1.00D+00 BMatC= 3.06D-05 BMatP= 6.76D-05
 IDIUse=1 WtCom= 1.00D+00 WtEn= 0.00D+00
 Coeff-Com: -0.107D-01 0.238D+00-0.730D+00 0.580D+00 0.101D+01-0.228D+01
 Coeff-Com: -0.285D-01 0.222D+01
 Coeff:     -0.107D-01 0.238D+00-0.730D+00 0.580D+00 0.101D+01-0.228D+01
 Coeff:     -0.285D-01 0.222D+01
 Gap=     0.424 Goal=   None    Shift=    0.500
 Gap=     0.286 Goal=   None    Shift=    0.500
 GapD=    0.286 DampG=1.000 DampE=1.000 DampFc=1.0000 IDamp=-1.
 RMSDP=1.49D-04 MaxDP=2.09D-03 DE=-1.17D-04 OVMax= 6.58D-03

 Cycle   9  Pass 1  IDiag  1:
 E= -193.467965935985     Delta-E=       -0.000055733138 Rises=F Damp=F
 DIIS: error= 8.63D-04 at cycle   9 NSaved=   9.
 NSaved= 9 IEnMin= 9 EnMin= -193.467965935985     IErMin= 9 ErrMin= 8.63D-04
 ErrMax= 8.63D-04  0.00D+00 EMaxC= 1.00D+00 BMatC= 1.22D-05 BMatP= 3.06D-05
 IDIUse=1 WtCom= 1.00D+00 WtEn= 0.00D+00
 Coeff-Com:  0.712D-03-0.135D+00 0.555D+00-0.576D+00-0.429D+00 0.184D+01
 Coeff-Com: -0.979D+00-0.312D+01 0.384D+01
 Coeff:      0.712D-03-0.135D+00 0.555D+00-0.576D+00-0.429D+00 0.184D+01
 Coeff:     -0.979D+00-0.312D+01 0.384D+01
 Gap=     0.424 Goal=   None    Shift=    0.500
 Gap=     0.286 Goal=   None    Shift=    0.500
 RMSDP=1.06D-04 MaxDP=1.44D-03 DE=-5.57D-05 OVMax= 5.08D-03

 Cycle  10  Pass 1  IDiag  1:
 E= -193.467990034478     Delta-E=       -0.000024098493 Rises=F Damp=F
 DIIS: error= 5.16D-04 at cycle  10 NSaved=  10.
 NSaved=10 IEnMin=10 EnMin= -193.467990034478     IErMin=10 ErrMin= 5.16D-04
 ErrMax= 5.16D-04  0.00D+00 EMaxC= 1.00D+00 BMatC= 4.13D-06 BMatP= 1.22D-05
 IDIUse=1 WtCom= 1.00D+00 WtEn= 0.00D+00
 Coeff-Com:  0.627D-03 0.350D-01-0.167D+00 0.190D+00 0.898D-01-0.534D+00
 Coeff-Com:  0.435D+00 0.834D+00-0.283D+01 0.294D+01
 Coeff:      0.627D-03 0.350D-01-0.167D+00 0.190D+00 0.898D-01-0.534D+00
 Coeff:      0.435D+00 0.834D+00-0.283D+01 0.294D+01
 Gap=     0.424 Goal=   None    Shift=    0.500
 Gap=     0.286 Goal=   None    Shift=    0.500
 RMSDP=6.08D-05 MaxDP=8.72D-04 DE=-2.41D-05 OVMax= 3.06D-03

 Cycle  11  Pass 1  IDiag  1:
 E= -193.467998034827     Delta-E=       -0.000008000349 Rises=F Damp=F
 DIIS: error= 3.04D-04 at cycle  11 NSaved=  11.
 NSaved=11 IEnMin=11 EnMin= -193.467998034827     IErMin=11 ErrMin= 3.04D-04
 ErrMax= 3.04D-04  0.00D+00 EMaxC= 1.00D+00 BMatC= 1.46D-06 BMatP= 4.13D-06
 IDIUse=1 WtCom= 1.00D+00 WtEn= 0.00D+00
 Coeff-Com: -0.551D-03-0.262D-01 0.138D+00-0.167D+00-0.385D-01 0.445D+00
 Coeff-Com: -0.395D+00-0.895D+00 0.294D+01-0.525D+01 0.425D+01
 Coeff:     -0.551D-03-0.262D-01 0.138D+00-0.167D+00-0.385D-01 0.445D+00
 Coeff:     -0.395D+00-0.895D+00 0.294D+01-0.525D+01 0.425D+01
 Gap=     0.424 Goal=   None    Shift=    0.500
 Gap=     0.286 Goal=   None    Shift=    0.500
 RMSDP=3.73D-05 MaxDP=5.22D-04 DE=-8.00D-06 OVMax= 1.92D-03

 Cycle  12  Pass 1  IDiag  1:
 E= -193.468000880953     Delta-E=       -0.000002846126 Rises=F Damp=F
 DIIS: error= 1.73D-04 at cycle  12 NSaved=  12.
 NSaved=12 IEnMin=12 EnMin= -193.468000880953     IErMin=12 ErrMin= 1.73D-04
 ErrMax= 1.73D-04  0.00D+00 EMaxC= 1.00D+00 BMatC= 4.76D-07 BMatP= 1.46D-06
 IDIUse=1 WtCom= 1.00D+00 WtEn= 0.00D+00
 Coeff-Com:  0.279D-03-0.112D-01 0.376D-01-0.324D-01-0.464D-01 0.127D+00
 Coeff-Com: -0.866D-02-0.195D+00-0.218D+00 0.152D+01-0.327D+01 0.310D+01
 Coeff:      0.279D-03-0.112D-01 0.376D-01-0.324D-01-0.464D-01 0.127D+00
 Coeff:     -0.866D-02-0.195D+00-0.218D+00 0.152D+01-0.327D+01 0.310D+01
 Gap=     0.424 Goal=   None    Shift=    0.500
 Gap=     0.286 Goal=   None    Shift=    0.500
 RMSDP=2.15D-05 MaxDP=2.93D-04 DE=-2.85D-06 OVMax= 1.11D-03

 Cycle  13  Pass 1  IDiag  1:
 E= -193.468001807558     Delta-E=       -0.000000926605 Rises=F Damp=F
 DIIS: error= 9.86D-05 at cycle  13 NSaved=  13.
 NSaved=13 IEnMin=13 EnMin= -193.468001807558     IErMin=13 ErrMin= 9.86D-05
 ErrMax= 9.86D-05  0.00D+00 EMaxC= 1.00D+00 BMatC= 1.51D-07 BMatP= 4.76D-07
 IDIUse=1 WtCom= 1.00D+00 WtEn= 0.00D+00
 Coeff-Com: -0.743D-04 0.616D-02-0.206D-01 0.171D-01 0.314D-01-0.690D-01
 Coeff-Com:  0.369D-02 0.866D-01 0.119D+00-0.899D+00 0.218D+01-0.409D+01
 Coeff-Com:  0.363D+01
 Coeff:     -0.743D-04 0.616D-02-0.206D-01 0.171D-01 0.314D-01-0.690D-01
 Coeff:      0.369D-02 0.866D-01 0.119D+00-0.899D+00 0.218D+01-0.409D+01
 Coeff:      0.363D+01
 Gap=     0.424 Goal=   None    Shift=    0.500
 Gap=     0.286 Goal=   None    Shift=    0.500
 RMSDP=1.24D-05 MaxDP=1.73D-04 DE=-9.27D-07 OVMax= 6.55D-04

 Cycle  14  Pass 1  IDiag  1:
 E= -193.468002108863     Delta-E=       -0.000000301305 Rises=F Damp=F
 DIIS: error= 5.38D-05 at cycle  14 NSaved=  14.
 NSaved=14 IEnMin=14 EnMin= -193.468002108863     IErMin=14 ErrMin= 5.38D-05
 ErrMax= 5.38D-05  0.00D+00 EMaxC= 1.00D+00 BMatC= 4.73D-08 BMatP= 1.51D-07
 IDIUse=1 WtCom= 1.00D+00 WtEn= 0.00D+00
 Coeff-Com:  0.198D-03-0.478D-02 0.194D-01-0.209D-01-0.128D-01 0.565D-01
 Coeff-Com: -0.174D-01-0.108D+00 0.184D+00-0.134D+00-0.361D+00 0.155D+01
 Coeff-Com: -0.333D+01 0.318D+01
 Coeff:      0.198D-03-0.478D-02 0.194D-01-0.209D-01-0.128D-01 0.565D-01
 Coeff:     -0.174D-01-0.108D+00 0.184D+00-0.134D+00-0.361D+00 0.155D+01
 Coeff:     -0.333D+01 0.318D+01
 Gap=     0.424 Goal=   None    Shift=    0.500
 Gap=     0.286 Goal=   None    Shift=    0.500
 RMSDP=7.04D-06 MaxDP=9.92D-05 DE=-3.01D-07 OVMax= 3.76D-04

 Cycle  15  Pass 1  IDiag  1:
 E= -193.468002203527     Delta-E=       -0.000000094664 Rises=F Damp=F
 DIIS: error= 2.94D-05 at cycle  15 NSaved=  15.
 NSaved=15 IEnMin=15 EnMin= -193.468002203527     IErMin=15 ErrMin= 2.94D-05
 ErrMax= 2.94D-05  0.00D+00 EMaxC= 1.00D+00 BMatC= 1.44D-08 BMatP= 4.73D-08
 IDIUse=1 WtCom= 1.00D+00 WtEn= 0.00D+00
 Coeff-Com: -0.113D-03 0.216D-02-0.913D-02 0.104D-01 0.398D-02-0.235D-01
 Coeff-Com:  0.112D-01 0.482D-01-0.103D+00 0.128D+00-0.203D-02-0.570D+00
 Coeff-Com:  0.171D+01-0.352D+01 0.331D+01
 Coeff:     -0.113D-03 0.216D-02-0.913D-02 0.104D-01 0.398D-02-0.235D-01
 Coeff:      0.112D-01 0.482D-01-0.103D+00 0.128D+00-0.203D-02-0.570D+00
 Coeff:      0.171D+01-0.352D+01 0.331D+01
 Gap=     0.424 Goal=   None    Shift=    0.500
 Gap=     0.286 Goal=   None    Shift=    0.500
 RMSDP=3.90D-06 MaxDP=5.47D-05 DE=-9.47D-08 OVMax= 2.10D-04

 Cycle  16  Pass 1  IDiag  1:
 E= -193.468002232174     Delta-E=       -0.000000028647 Rises=F Damp=F
 DIIS: error= 1.57D-05 at cycle  16 NSaved=  16.
 NSaved=16 IEnMin=16 EnMin= -193.468002232174     IErMin=16 ErrMin= 1.57D-05
 ErrMax= 1.57D-05  0.00D+00 EMaxC= 1.00D+00 BMatC= 4.44D-09 BMatP= 1.44D-08
 IDIUse=1 WtCom= 1.00D+00 WtEn= 0.00D+00
 Coeff-Com:  0.257D-04-0.809D-04 0.126D-02-0.233D-02 0.269D-02-0.188D-02
 Coeff-Com:  0.219D-02-0.820D-02 0.389D-01-0.108D+00 0.161D+00-0.130D+00
 Coeff-Com: -0.237D+00 0.140D+01-0.355D+01 0.343D+01
 Coeff:      0.257D-04-0.809D-04 0.126D-02-0.233D-02 0.269D-02-0.188D-02
 Coeff:      0.219D-02-0.820D-02 0.389D-01-0.108D+00 0.161D+00-0.130D+00
 Coeff:     -0.237D+00 0.140D+01-0.355D+01 0.343D+01
 Gap=     0.424 Goal=   None    Shift=    0.500
 Gap=     0.286 Goal=   None    Shift=    0.500
 RMSDP=2.14D-06 MaxDP=2.94D-05 DE=-2.86D-08 OVMax= 1.16D-04

 Cycle  17  Pass 1  IDiag  1:
 E= -193.468002240699     Delta-E=       -0.000000008525 Rises=F Damp=F
 DIIS: error= 8.23D-06 at cycle  17 NSaved=  17.
 NSaved=17 IEnMin=17 EnMin= -193.468002240699     IErMin=17 ErrMin= 8.23D-06
 ErrMax= 8.23D-06  0.00D+00 EMaxC= 1.00D+00 BMatC= 1.36D-09 BMatP= 4.44D-09
 IDIUse=1 WtCom= 1.00D+00 WtEn= 0.00D+00
 Coeff-Com: -0.872D-05 0.280D-03-0.174D-02 0.242D-02-0.707D-03-0.278D-02
 Coeff-Com:  0.282D-02 0.800D-02-0.290D-01 0.609D-01-0.761D-01 0.148D-01
 Coeff-Com:  0.250D+00-0.112D+01 0.298D+01-0.513D+01 0.404D+01
 Coeff:     -0.872D-05 0.280D-03-0.174D-02 0.242D-02-0.707D-03-0.278D-02
 Coeff:      0.282D-02 0.800D-02-0.290D-01 0.609D-01-0.761D-01 0.148D-01
 Coeff:      0.250D+00-0.112D+01 0.298D+01-0.513D+01 0.404D+01
 Gap=     0.424 Goal=   None    Shift=    0.500
 Gap=     0.286 Goal=   None    Shift=    0.500
 RMSDP=1.15D-06 MaxDP=1.56D-05 DE=-8.53D-09 OVMax= 6.23D-05

 Cycle  18  Pass 1  IDiag  1:
 E= -193.468002243173     Delta-E=       -0.000000002474 Rises=F Damp=F
 DIIS: error= 4.26D-06 at cycle  18 NSaved=  18.
 NSaved=18 IEnMin=18 EnMin= -193.468002243173     IErMin=18 ErrMin= 4.26D-06
 ErrMax= 4.26D-06  0.00D+00 EMaxC= 1.00D+00 BMatC= 4.18D-10 BMatP= 1.36D-09
 IDIUse=1 WtCom= 1.00D+00 WtEn= 0.00D+00
 Coeff-Com: -0.198D-05 0.280D-04 0.329D-03-0.744D-03 0.127D-02-0.155D-02
 Coeff-Com:  0.919D-03-0.231D-02 0.153D-01-0.454D-01 0.823D-01-0.112D+00
 Coeff-Com:  0.541D-01 0.368D+00-0.155D+01 0.333D+01-0.506D+01 0.391D+01
 Coeff:     -0.198D-05 0.280D-04 0.329D-03-0.744D-03 0.127D-02-0.155D-02
 Coeff:      0.919D-03-0.231D-02 0.153D-01-0.454D-01 0.823D-01-0.112D+00
 Coeff:      0.541D-01 0.368D+00-0.155D+01 0.333D+01-0.506D+01 0.391D+01
 Gap=     0.424 Goal=   None    Shift=    0.500
 Gap=     0.286 Goal=   None    Shift=    0.500
 RMSDP=5.95D-07 MaxDP=7.91D-06 DE=-2.47D-09 OVMax= 3.26D-05

 SCF Done:  E(ULC-wHPBE) =  -193.468002243     A.U. after   18 cycles
            NFock= 18  Conv=0.59D-06     -V/T= 2.0049
 <Sx>= 0.0000 <Sy>= 0.0000 <Sz>= 0.5000 <S**2>= 0.7963 S= 0.5229
 <L.S>= 0.000000000000E+00
 KE= 1.925284809612D+02 PE=-7.506543277701D+02 EE= 2.092139260372D+02
 Annihilation of the first spin contaminant:
 S**2 before annihilation     0.7963,   after     0.7512
 Leave Link  502 at Tue Feb 25 12:23:39 2020, MaxMem=  6710886400 cpu:              24.4 elap:               1.6
 (Enter /opt/ohpc/pub/libs/gaussian/g16-A.03/haswell/g16/l508.exe)
 QCSCF skips out because SCF is already converged.
 Leave Link  508 at Tue Feb 25 12:23:39 2020, MaxMem=  6710886400 cpu:               0.0 elap:               0.0
 (Enter /opt/ohpc/pub/libs/gaussian/g16-A.03/haswell/g16/l601.exe)
 Copying SCF densities to generalized density rwf, IOpCl= 1 IROHF=0.

 **********************************************************************

            Population analysis using the SCF density.

 **********************************************************************

 Orbital symmetries:
 Alpha Orbitals:
       Occupied  (B2) (A1) (A1) (B2) (A1) (A1) (A1) (B2) (A1) (B2)
                 (A1) (B2) (A1) (A1) (B1) (B2) (A2) (B1)
       Virtual   (B2) (A2) (B1) (A1) (A1) (B2) (A1) (B2) (A1) (B2)
                 (A1) (A1) (B2) (B1) (B2) (B1) (A2) (A1) (A1) (B2)
                 (A1) (A2) (B1) (B2) (B2) (A1) (A1) (B2) (A1) (A1)
                 (B2) (A1) (A1) (B2) (A1) (B2) (A1) (A1) (B2)
 Beta  Orbitals:
       Occupied  (B2) (A1) (A1) (B2) (A1) (A1) (A1) (B2) (A1) (B2)
                 (A1) (B2) (A1) (A1) (B2) (B1) (A2)
       Virtual   (B1) (B2) (A2) (A1) (B1) (A1) (B2) (A1) (B2) (A1)
                 (B2) (A1) (A1) (B2) (B2) (B1) (A2) (A1) (B1) (A1)
                 (B2) (A1) (A2) (B1) (B2) (B2) (A1) (A1) (B2) (A1)
                 (B2) (A1) (A1) (A1) (B2) (A1) (B2) (A1) (A1) (B2)
 The electronic state is 2-B1.
 Alpha  occ. eigenvalues --  -10.37025 -10.37020 -10.32024 -10.31117 -10.31117
 Alpha  occ. eigenvalues --   -1.24082  -1.11293  -1.06851  -0.93042  -0.90897
 Alpha  occ. eigenvalues --   -0.86293  -0.76624  -0.74068  -0.72953  -0.72391
 Alpha  occ. eigenvalues --   -0.70758  -0.57807  -0.56248
 Alpha virt. eigenvalues --   -0.13813  -0.13264  -0.06333  -0.05465  -0.00266
 Alpha virt. eigenvalues --    0.04431   0.06423   0.08743   0.08879   0.20034
 Alpha virt. eigenvalues --    0.20070   0.30006   0.31286   0.39140   0.39797
 Alpha virt. eigenvalues --    0.46851   0.47442   0.47986   0.50511   0.51253
 Alpha virt. eigenvalues --    0.51433   0.54597   0.56104   0.64038   0.70542
 Alpha virt. eigenvalues --    0.72869   0.74158   0.76552   0.76742   0.83060
 Alpha virt. eigenvalues --    0.83076   0.87485   0.91526   0.97847   1.06020
 Alpha virt. eigenvalues --    1.07068   1.12296   1.34246   1.35706
  Beta  occ. eigenvalues --  -10.36474 -10.36467 -10.31380 -10.31379 -10.31129
  Beta  occ. eigenvalues --   -1.22939  -1.09487  -1.06569  -0.92050  -0.90194
  Beta  occ. eigenvalues --   -0.86013  -0.76319  -0.73788  -0.72406  -0.70596
  Beta  occ. eigenvalues --   -0.68147  -0.56525
  Beta virt. eigenvalues --   -0.27876  -0.12470  -0.10401  -0.05234  -0.03028
  Beta virt. eigenvalues --    0.00120   0.04692   0.06655   0.08715   0.09444
  Beta virt. eigenvalues --    0.20376   0.20557   0.30409   0.31660   0.40170
  Beta virt. eigenvalues --    0.41259   0.48427   0.48515   0.49475   0.50916
  Beta virt. eigenvalues --    0.51700   0.52525   0.55181   0.57595   0.64565
  Beta virt. eigenvalues --    0.71001   0.73704   0.74723   0.76457   0.77236
  Beta virt. eigenvalues --    0.83404   0.83509   0.88507   0.92160   0.97904
  Beta virt. eigenvalues --    1.06537   1.07569   1.13342   1.35129   1.36535
          Condensed to atoms (all electrons):
               1          2          3          4          5          6
     1  C    5.346632   0.500076  -0.041339  -0.128133   0.182189   0.165895
     2  C    0.500076   4.949644   0.465503  -0.024481  -0.128133  -0.024006
     3  C   -0.041339   0.465503   4.852122   0.465503  -0.041339   0.007582
     4  C   -0.128133  -0.024481   0.465503   4.949644   0.500076  -0.024006
     5  C    0.182189  -0.128133  -0.041339   0.500076   5.346632   0.165895
     6  H    0.165895  -0.024006   0.007582  -0.024006   0.165895   0.360996
     7  H    0.337549   0.004033  -0.000155   0.003259  -0.016020  -0.008824
     8  H   -0.024168   0.361928  -0.012142   0.004054   0.000969   0.000462
     9  H    0.005375  -0.028270   0.366972  -0.028270   0.005375  -0.000045
    10  H    0.000969   0.004054  -0.012142   0.361928  -0.024168   0.000462
    11  H   -0.016020   0.003259  -0.000155   0.004033   0.337549  -0.008824
               7          8          9         10         11
     1  C    0.337549  -0.024168   0.005375   0.000969  -0.016020
     2  C    0.004033   0.361928  -0.028270   0.004054   0.003259
     3  C   -0.000155  -0.012142   0.366972  -0.012142  -0.000155
     4  C    0.003259   0.004054  -0.028270   0.361928   0.004033
     5  C   -0.016020   0.000969   0.005375  -0.024168   0.337549
     6  H   -0.008824   0.000462  -0.000045   0.000462  -0.008824
     7  H    0.345431  -0.000044  -0.000054  -0.000018   0.000369
     8  H   -0.000044   0.386203  -0.001526  -0.000091  -0.000018
     9  H   -0.000054  -0.001526   0.408453  -0.001526  -0.000054
    10  H   -0.000018  -0.000091  -0.001526   0.386203  -0.000044
    11  H    0.000369  -0.000018  -0.000054  -0.000044   0.345431
          Atomic-Atomic Spin Densities.
               1          2          3          4          5          6
     1  C    0.480297  -0.039997  -0.023680  -0.008948   0.029138  -0.003556
     2  C   -0.039997  -0.222201   0.028490  -0.000349  -0.008948   0.000273
     3  C   -0.023680   0.028490   0.691047   0.028490  -0.023680   0.000210
     4  C   -0.008948  -0.000349   0.028490  -0.222201  -0.039997   0.000273
     5  C    0.029138  -0.008948  -0.023680  -0.039997   0.480297  -0.003556
     6  H   -0.003556   0.000273   0.000210   0.000273  -0.003556  -0.014215
     7  H   -0.002532  -0.000462   0.000093  -0.000087   0.000251  -0.000253
     8  H   -0.000283   0.001769  -0.001022  -0.000117   0.000055   0.000020
     9  H   -0.000036  -0.000067  -0.000864  -0.000067  -0.000036  -0.000002
    10  H    0.000055  -0.000117  -0.001022   0.001769  -0.000283   0.000020
    11  H    0.000251  -0.000087   0.000093  -0.000462  -0.002532  -0.000253
               7          8          9         10         11
     1  C   -0.002532  -0.000283  -0.000036   0.000055   0.000251
     2  C   -0.000462   0.001769  -0.000067  -0.000117  -0.000087
     3  C    0.000093  -0.001022  -0.000864  -0.001022   0.000093
     4  C   -0.000087  -0.000117  -0.000067   0.001769  -0.000462
     5  C    0.000251   0.000055  -0.000036  -0.000283  -0.002532
     6  H   -0.000253   0.000020  -0.000002   0.000020  -0.000253
     7  H   -0.016947   0.000057   0.000004  -0.000000  -0.000064
     8  H    0.000057   0.005736   0.000020   0.000000  -0.000000
     9  H    0.000004   0.000020  -0.026702   0.000020   0.000004
    10  H   -0.000000   0.000000   0.000020   0.005736   0.000057
    11  H   -0.000064  -0.000000   0.000004   0.000057  -0.016947
 Mulliken charges and spin densities:
               1          2
     1  C   -0.329025   0.430707
     2  C   -0.083607  -0.241696
     3  C   -0.050410   0.698154
     4  C   -0.083607  -0.241696
     5  C   -0.329025   0.430707
     6  H    0.364414  -0.021038
     7  H    0.334474  -0.019941
     8  H    0.284372   0.006235
     9  H    0.273570  -0.027727
    10  H    0.284372   0.006235
    11  H    0.334474  -0.019941
 Sum of Mulliken charges =   1.00000   1.00000
 Mulliken charges and spin densities with hydrogens summed into heavy atoms:
               1          2
     1  C    0.369862   0.389728
     2  C    0.200765  -0.235461
     3  C    0.223160   0.670427
     4  C    0.200765  -0.235461
     5  C    0.005448   0.410766
 Electronic spatial extent (au):  <R**2>=            321.3811
 Charge=              1.0000 electrons
 Dipole moment (field-independent basis, Debye):
    X=             -0.0000    Y=              0.0000    Z=             -1.9991  Tot=              1.9991
 Quadrupole moment (field-independent basis, Debye-Ang):
   XX=            -31.4674   YY=            -17.4506   ZZ=            -13.3027
   XY=              0.0000   XZ=              0.0000   YZ=              0.0000
 Traceless Quadrupole moment (field-independent basis, Debye-Ang):
   XX=            -10.7271   YY=              3.2896   ZZ=              7.4375
   XY=              0.0000   XZ=              0.0000   YZ=              0.0000
 Octapole moment (field-independent basis, Debye-Ang**2):
  XXX=              0.0000  YYY=             -0.0000  ZZZ=             -7.4014  XYY=             -0.0000
  XXY=              0.0000  XXZ=              0.7054  XZZ=              0.0000  YZZ=             -0.0000
  YYZ=             -2.8618  XYZ=             -0.0000
 Hexadecapole moment (field-independent basis, Debye-Ang**3):
 XXXX=            -31.5516 YYYY=           -147.4233 ZZZZ=           -126.9952 XXXY=             -0.0000
 XXXZ=             -0.0000 YYYX=             -0.0000 YYYZ=             -0.0000 ZZZX=              0.0000
 ZZZY=             -0.0000 XXYY=            -42.9857 XXZZ=            -39.1633 YYZZ=            -42.9029
 XXYZ=              0.0000 YYXZ=             -0.0000 ZZXY=             -0.0000
 N-N= 1.554439185285D+02 E-N=-7.506543306522D+02  KE= 1.925284809612D+02
 Symmetry A1   KE= 1.112970513432D+02
 Symmetry A2   KE= 2.506197763382D+00
 Symmetry B1   KE= 3.221152788965D+00
 Symmetry B2   KE= 7.550407906566D+01
 Symmetry A1   SP= 1.565923086647D-15
 Symmetry A2   SP= 2.013057102407D-15
 Symmetry B1   SP= 1.000000000000D+00
 Symmetry B2   SP=-6.420888367163D-15
                          Isotropic Fermi Contact Couplings
        Atom                 a.u.       MegaHertz       Gauss      10(-4) cm-1
     1  C(13)              0.06258      70.34967      25.10251      23.46612
     2  C(13)             -0.04224     -47.48531     -16.94394     -15.83939
     3  C(13)              0.09544     107.29493      38.28550      35.78974
     4  C(13)             -0.04224     -47.48531     -16.94394     -15.83939
     5  C(13)              0.06258      70.34967      25.10251      23.46612
     6  H(1)              -0.00771     -34.44868     -12.29214     -11.49084
     7  H(1)              -0.00812     -36.29293     -12.95022     -12.10602
     8  H(1)               0.00233      10.42092       3.71844       3.47604
     9  H(1)              -0.01179     -52.68431     -18.79907     -17.57360
    10  H(1)               0.00233      10.42092       3.71844       3.47604
    11  H(1)              -0.00812     -36.29293     -12.95022     -12.10602
 --------------------------------------------------------
       Center         ----  Spin Dipole Couplings  ----
                      3XX-RR        3YY-RR        3ZZ-RR
 --------------------------------------------------------
     1   Atom        0.440815     -0.214492     -0.226323
     2   Atom       -0.156412      0.076463      0.079949
     3   Atom        0.669363     -0.341929     -0.327435
     4   Atom       -0.156412      0.076463      0.079949
     5   Atom        0.440815     -0.214492     -0.226323
     6   Atom       -0.006262      0.007692     -0.001429
     7   Atom       -0.005834      0.005497      0.000337
     8   Atom       -0.006485      0.001249      0.005236
     9   Atom       -0.007839     -0.043852      0.051691
    10   Atom       -0.006485      0.001249      0.005236
    11   Atom       -0.005834      0.005497      0.000337
 --------------------------------------------------------
                        XY            XZ            YZ
 --------------------------------------------------------
     1   Atom       -0.000000     -0.000000     -0.007881
     2   Atom       -0.000000      0.000000     -0.006604
     3   Atom       -0.000000     -0.000000      0.000000
     4   Atom       -0.000000     -0.000000      0.006604
     5   Atom        0.000000      0.000000      0.007881
     6   Atom       -0.000000      0.000000      0.000000
     7   Atom        0.000000      0.000000     -0.032523
     8   Atom       -0.000000      0.000000     -0.004960
     9   Atom       -0.000000     -0.000000     -0.000000
    10   Atom        0.000000     -0.000000      0.004960
    11   Atom       -0.000000     -0.000000      0.032523
 --------------------------------------------------------


 ---------------------------------------------------------------------------------
              Anisotropic Spin Dipole Couplings in Principal Axis System
 ---------------------------------------------------------------------------------

       Atom             a.u.   MegaHertz   Gauss  10(-4) cm-1        Axes

              Baa    -0.2303   -30.899   -11.025   -10.307  0.0000  0.4470  0.8945
     1 C(13)  Bbb    -0.2106   -28.254   -10.082    -9.425  0.0000  0.8945 -0.4470
              Bcc     0.4408    59.153    21.107    19.731  1.0000 -0.0000  0.0000
 
              Baa    -0.1564   -20.989    -7.489    -7.001  1.0000  0.0000  0.0000
     2 C(13)  Bbb     0.0714     9.578     3.418     3.195 -0.0000  0.7922  0.6103
              Bcc     0.0850    11.411     4.072     3.806  0.0000 -0.6103  0.7922
 
              Baa    -0.3419   -45.884   -16.372   -15.305 -0.0000  1.0000  0.0000
     3 C(13)  Bbb    -0.3274   -43.939   -15.678   -14.656  0.0000  0.0000  1.0000
              Bcc     0.6694    89.822    32.051    29.961  1.0000  0.0000  0.0000
 
              Baa    -0.1564   -20.989    -7.489    -7.001  1.0000  0.0000  0.0000
     4 C(13)  Bbb     0.0714     9.578     3.418     3.195 -0.0000  0.7922 -0.6103
              Bcc     0.0850    11.411     4.072     3.806 -0.0000  0.6103  0.7922
 
              Baa    -0.2303   -30.899   -11.025   -10.307 -0.0000 -0.4470  0.8945
     5 C(13)  Bbb    -0.2106   -28.254   -10.082    -9.425  0.0000  0.8945  0.4470
              Bcc     0.4408    59.153    21.107    19.731  1.0000 -0.0000  0.0000
 
              Baa    -0.0063    -3.341    -1.192    -1.115  1.0000 -0.0000 -0.0000
     6 H(1)   Bbb    -0.0014    -0.763    -0.272    -0.254  0.0000 -0.0000  1.0000
              Bcc     0.0077     4.104     1.464     1.369 -0.0000  1.0000 -0.0000
 
              Baa    -0.0297   -15.851    -5.656    -5.287 -0.0000  0.6786  0.7345
     7 H(1)   Bbb    -0.0058    -3.113    -1.111    -1.038  1.0000  0.0000  0.0000
              Bcc     0.0355    18.964     6.767     6.326 -0.0000  0.7345 -0.6786
 
              Baa    -0.0065    -3.460    -1.235    -1.154  1.0000  0.0000  0.0000
     8 H(1)   Bbb    -0.0021    -1.122    -0.400    -0.374 -0.0000  0.8285  0.5599
              Bcc     0.0086     4.582     1.635     1.528  0.0000 -0.5599  0.8285
 
              Baa    -0.0439   -23.397    -8.349    -7.804  0.0000  1.0000 -0.0000
     9 H(1)   Bbb    -0.0078    -4.183    -1.492    -1.395  1.0000 -0.0000 -0.0000
              Bcc     0.0517    27.580     9.841     9.200  0.0000  0.0000  1.0000
 
              Baa    -0.0065    -3.460    -1.235    -1.154  1.0000 -0.0000  0.0000
    10 H(1)   Bbb    -0.0021    -1.122    -0.400    -0.374  0.0000  0.8285 -0.5599
              Bcc     0.0086     4.582     1.635     1.528  0.0000  0.5599  0.8285
 
              Baa    -0.0297   -15.851    -5.656    -5.287  0.0000 -0.6786  0.7345
    11 H(1)   Bbb    -0.0058    -3.113    -1.111    -1.038  1.0000  0.0000  0.0000
              Bcc     0.0355    18.964     6.767     6.326 -0.0000  0.7345  0.6786
 

 ---------------------------------------------------------------------------------

 No NMR shielding tensors so no spin-rotation constants.
 Leave Link  601 at Tue Feb 25 12:23:39 2020, MaxMem=  6710886400 cpu:               5.2 elap:               0.3
 (Enter /opt/ohpc/pub/libs/gaussian/g16-A.03/haswell/g16/l9999.exe)

 Test job not archived.
 1\1\GINC-HASWELL008\SP\ULC-wHPBE\6-31G\C5H6(1+,2)\SMGO234\25-Feb-2020\
 0\\#P uLC-wHPBE/6-31G iop(3/107=0313900000, 3/108=0313900000) scf=(con
 ver=6,fermi,ndamp=35,noincfock,novaracc,vshift=500,xqc)\\H6 C5\\1,2\C,
 0,0.,0.895213,-0.933453\C,0,0.,1.131613,0.424372\C,0,0.,0.,1.240919\C,
 0,0.,-1.131613,0.424372\C,0,0.,-0.895213,-0.933453\H,0,0.,0.,-1.720797
 \H,0,0.,1.620085,-1.742217\H,0,0.,2.160007,0.773055\H,0,0.,0.,2.322589
 \H,0,0.,-2.160007,0.773055\H,0,0.,-1.620085,-1.742217\\Version=ES64L-G
 16RevA.03\State=2-B1\HF=-193.4680022\S2=0.79632\S2-1=0.\S2A=0.751242\R
 MSD=5.947e-07\Dipole=0.,0.,-0.7864899\Quadrupole=-7.9753663,2.4457714,
 5.5295949,0.,0.,0.\PG=C02V [C2(H1C1H1),SGV(C4H4)]\\@


 TRUST EVERYONE, BUT CUT THE CARDS.
 Job cpu time:       0 days  0 hours  0 minutes 51.3 seconds.
 Elapsed time:       0 days  0 hours  0 minutes  3.5 seconds.
 File lengths (MBytes):  RWF=    272 Int=      0 D2E=      0 Chk=     32 Scr=     32
 Normal termination of Gaussian 16 at Tue Feb 25 12:23:39 2020.
