 *******************************************************************************
 ** Site#: 29200        For non-commercial use only    Version 19.090L 64BITS **
 *******************************************************************************
 ** Cite this program as: MOPAC2016, Version: 19.090L, James J. P. Stewart,   **
 ** Stewart Computational Chemistry, web: HTTP://OpenMOPAC.net. Days left: 174**
 *******************************************************************************
 **                                                                           **
 **                                MOPAC2016                                  **
 **                                                                           **
 *******************************************************************************

                              PM7 CALCULATION RESULTS

 *******************************************************************************
 *  CALCULATION DONE:                                Tue Oct  8 20:08:14 2019  *
 *  CHARGES    - IDENTIFY AND PRINT CHARGED ATOMS
 *  T=         - A TIME OF 172800.0 SECONDS REQUESTED
 *  DUMP=N     - RESTART FILE WRITTEN EVERY  7200.000 SECONDS
 *******************************************************************************
CHARGES


   ATOM   CHEMICAL          X               Y               Z
  NUMBER   SYMBOL      (ANGSTROMS)     (ANGSTROMS)     (ANGSTROMS)
 
     1       C          5.10749100  *   5.75574900  *  12.02739200  *
     2       S          5.49413300  *   4.00939200  *  11.66238600  *
     3       F          4.73399900  *   6.40121600  *  10.92396500  *
     4       F          4.13579800  *   5.85518200  *  12.91617300  *
     5       F          6.18392800  *   6.36829800  *  12.51175500  *
     6       N          4.10103400  *   3.45097200  *  11.18481500  *
     7       O          5.79233300  *   3.44723900  *  12.94084900  *
     8       O          6.52851000  *   4.06063600  *  10.68063000  *
     9       S          3.59172500  *   3.41771500  *   9.69653600  *
    10       C          3.81958600  *   1.65625600  *   9.25303000  *
    11       O          4.34897800  *   4.14988800  *   8.73752300  *
    12       O          2.17160700  *   3.56652500  *   9.70688100  *
    13       F          3.36413500  *   1.44670000  *   8.02268500  *
    14       F          3.14465100  *   0.86927600  *  10.07643000  *
    15       F          5.08920800  *   1.31061600  *   9.30032700  *
 


          CARTESIAN COORDINATES 

    NO.       ATOM           X           Y           Z

     1         C          5.1075      5.7557     12.0274
     2         S          5.4941      4.0094     11.6624
     3         F          4.7340      6.4012     10.9240
     4         F          4.1358      5.8552     12.9162
     5         F          6.1839      6.3683     12.5118
     6         N          4.1010      3.4510     11.1848
     7         O          5.7923      3.4472     12.9408
     8         O          6.5285      4.0606     10.6806
     9         S          3.5917      3.4177      9.6965
    10         C          3.8196      1.6563      9.2530
    11         O          4.3490      4.1499      8.7375
    12         O          2.1716      3.5665      9.7069
    13         F          3.3641      1.4467      8.0227
    14         F          3.1447      0.8693     10.0764
    15         F          5.0892      1.3106      9.3003

 General Reference for PM7:
 "Optimization of Parameters for Semiempirical Methods VI: More Modifications to the 
 NDDO Approximations and Re-optimization of Parameters", J. J. P. Stewart, J. Mol. Mod., 1:32, 19 (2013)
 http://www.springerlink.com/openurl.asp?genre=article&id=doi:10.1007/s00894-012-1667-x

           Empirical Formula: C2 N O4 S2 F6  =    15 atoms



      MOLECULAR POINT GROUP   :   C2  

   TOPOGRAPHY OF SYSTEM

   ATOM No.    LABEL   Atoms connected to this atom
      1          C      2      3      4      5
      2          S      7      8      6      1
      3          F      1
      4          F      1
      5          F      1
      6          N      2      9
      7          O      2
      8          O      2
      9          S     11     12      6     10
     10          C      9     13     14     15
     11          O      9
     12          O      9
     13          F     10
     14          F     10
     15          F     10

     Ion Atom No.  Type    Charge
 
    1       6      N       +1

          COMPUTED CHARGE ON SYSTEM: +1

          COMPUTED CHARGE ON SYSTEM: +1

          JOB STOPPED HERE BECAUSE KEYWORD "CHARGES" WAS USED

 ******************************************************************************
 *                                                                            *
 *     Error and normal termination messages reported in this calculation     *
 *                                                                            *
 * JOB STOPPED HERE BECAUSE KEYWORD "CHARGES" WAS USED                        *
 * JOB ENDED NORMALLY                                                         *
 *                                                                            *
 ******************************************************************************



 TOTAL JOB TIME:             0.00 SECONDS

 == MOPAC DONE ==
