 Entering Gaussian System, Link 0=g16
 Input=a1b_tune_c7.gjf
 Output=a1b_tune_c7.log
 Initial command:
 /opt/ohpc/pub/libs/gaussian/g16-A.03/sandybridge/g16/l1.exe "/scratch/smgo234/Ocelot/test/a1b/tuning_a1b_acycle1/Gau-80866.inp" -scrdir="/scratch/smgo234/Ocelot/test/a1b/tuning_a1b_acycle1/"
 Entering Link 1 = /opt/ohpc/pub/libs/gaussian/g16-A.03/sandybridge/g16/l1.exe PID=     80867.
  
 Copyright (c) 1988,1990,1992,1993,1995,1998,2003,2009,2016,
            Gaussian, Inc.  All Rights Reserved.
  
 This is part of the Gaussian(R) 16 program.  It is based on
 the Gaussian(R) 09 system (copyright 2009, Gaussian, Inc.),
 the Gaussian(R) 03 system (copyright 2003, Gaussian, Inc.),
 the Gaussian(R) 98 system (copyright 1998, Gaussian, Inc.),
 the Gaussian(R) 94 system (copyright 1995, Gaussian, Inc.),
 the Gaussian 92(TM) system (copyright 1992, Gaussian, Inc.),
 the Gaussian 90(TM) system (copyright 1990, Gaussian, Inc.),
 the Gaussian 88(TM) system (copyright 1988, Gaussian, Inc.),
 the Gaussian 86(TM) system (copyright 1986, Carnegie Mellon
 University), and the Gaussian 82(TM) system (copyright 1983,
 Carnegie Mellon University). Gaussian is a federally registered
 trademark of Gaussian, Inc.
  
 This software contains proprietary and confidential information,
 including trade secrets, belonging to Gaussian, Inc.
  
 This software is provided under written license and may be
 used, copied, transmitted, or stored only in accord with that
 written license.
  
 The following legend is applicable only to US Government
 contracts under FAR:
  
                    RESTRICTED RIGHTS LEGEND
  
 Use, reproduction and disclosure by the US Government is
 subject to restrictions as set forth in subparagraphs (a)
 and (c) of the Commercial Computer Software - Restricted
 Rights clause in FAR 52.227-19.
  
 Gaussian, Inc.
 340 Quinnipiac St., Bldg. 40, Wallingford CT 06492
  
  
 ---------------------------------------------------------------
 Warning -- This program may not be used in any manner that
 competes with the business of Gaussian, Inc. or will provide
 assistance to any competitor of Gaussian, Inc.  The licensee
 of this program is prohibited from giving any competitor of
 Gaussian, Inc. access to this program.  By using this program,
 the user acknowledges that Gaussian, Inc. is engaged in the
 business of creating and licensing software in the field of
 computational chemistry and represents and warrants to the
 licensee that it is not a competitor of Gaussian, Inc. and that
 it will not use this program in any manner prohibited above.
 ---------------------------------------------------------------
  

 Cite this work as:
 Gaussian 16, Revision A.03,
 M. J. Frisch, G. W. Trucks, H. B. Schlegel, G. E. Scuseria, 
 M. A. Robb, J. R. Cheeseman, G. Scalmani, V. Barone, 
 G. A. Petersson, H. Nakatsuji, X. Li, M. Caricato, A. V. Marenich, 
 J. Bloino, B. G. Janesko, R. Gomperts, B. Mennucci, H. P. Hratchian, 
 J. V. Ortiz, A. F. Izmaylov, J. L. Sonnenberg, D. Williams-Young, 
 F. Ding, F. Lipparini, F. Egidi, J. Goings, B. Peng, A. Petrone, 
 T. Henderson, D. Ranasinghe, V. G. Zakrzewski, J. Gao, N. Rega, 
 G. Zheng, W. Liang, M. Hada, M. Ehara, K. Toyota, R. Fukuda, 
 J. Hasegawa, M. Ishida, T. Nakajima, Y. Honda, O. Kitao, H. Nakai, 
 T. Vreven, K. Throssell, J. A. Montgomery, Jr., J. E. Peralta, 
 F. Ogliaro, M. J. Bearpark, J. J. Heyd, E. N. Brothers, K. N. Kudin, 
 V. N. Staroverov, T. A. Keith, R. Kobayashi, J. Normand, 
 K. Raghavachari, A. P. Rendell, J. C. Burant, S. S. Iyengar, 
 J. Tomasi, M. Cossi, J. M. Millam, M. Klene, C. Adamo, R. Cammi, 
 J. W. Ochterski, R. L. Martin, K. Morokuma, O. Farkas, 
 J. B. Foresman, and D. J. Fox, Gaussian, Inc., Wallingford CT, 2016.
 
 ******************************************
 Gaussian 16:  EM64L-G16RevA.03 25-Dec-2016
                 5-Mar-2020 
 ******************************************
 %mem=50GB
 %nproc=16
 Will use up to   16 processors via shared memory.
 ----------------------------------------------------------------------
 #P uLC-wHPBE/6-31G iop(3/130=0238200000, 3/131=0238200000, 3/119=07618
 00000, 3/120=0761800000) scf=(conver=6,fermi,ndamp=35,noincfock,novara
 cc,vshift=500,xqc)
 ----------------------------------------------------------------------
 1/38=1,172=1/1;
 2/12=2,17=6,18=5,40=1/2;
 3/5=1,6=6,11=2,25=1,30=1,74=-71,116=2,119=761800000,120=761800000,130=238200000,131=238200000/1,2,3;
 4//1;
 5/5=100002,6=6,8=3,10=500,13=1,18=-1,22=13,38=1,93=35/2,8;
 6/7=2,8=2,9=2,10=2,28=1/1;
 99/5=1,9=1/99;
 Leave Link    1 at Thu Mar  5 12:52:38 2020, MaxMem=  6710886400 cpu:              15.8 elap:               1.1
 (Enter /opt/ohpc/pub/libs/gaussian/g16-A.03/sandybridge/g16/l101.exe)
 -----
 H6 C5
 -----
 Symbolic Z-matrix:
 Charge =  1 Multiplicity = 2
 C                     0.        0.8788   -0.93154 
 C                     0.        1.12816   0.42346 
 C                     0.        0.        1.24088 
 C                     0.       -1.12816   0.42346 
 C                     0.       -0.8788   -0.93154 
 H                     0.        0.       -1.73227 
 H                     0.        1.6083   -1.73405 
 H                     0.        2.15663   0.76567 
 H                     0.        0.        2.32078 
 H                     0.       -2.15663   0.76567 
 H                     0.       -1.6083   -1.73405 
 
 ITRead=  0  0  0  0  0  0  0  0  0  0  0
 MicOpt= -1 -1 -1 -1 -1 -1 -1 -1 -1 -1 -1
 NAtoms=     11 NQM=       11 NQMF=       0 NMMI=      0 NMMIF=      0
                NMic=       0 NMicF=      0.
                    Isotopes and Nuclear Properties:
 (Nuclear quadrupole moments (NQMom) in fm**2, nuclear magnetic moments (NMagM)
  in nuclear magnetons)

  Atom         1           2           3           4           5           6           7           8           9          10
 IAtWgt=          12          12          12          12          12           1           1           1           1           1
 AtmWgt=  12.0000000  12.0000000  12.0000000  12.0000000  12.0000000   1.0078250   1.0078250   1.0078250   1.0078250   1.0078250
 NucSpn=           0           0           0           0           0           1           1           1           1           1
 AtZEff=  -0.0000000  -0.0000000  -0.0000000  -0.0000000  -0.0000000  -0.0000000  -0.0000000  -0.0000000  -0.0000000  -0.0000000
 NQMom=    0.0000000   0.0000000   0.0000000   0.0000000   0.0000000   0.0000000   0.0000000   0.0000000   0.0000000   0.0000000
 NMagM=    0.0000000   0.0000000   0.0000000   0.0000000   0.0000000   2.7928460   2.7928460   2.7928460   2.7928460   2.7928460
 AtZNuc=   6.0000000   6.0000000   6.0000000   6.0000000   6.0000000   1.0000000   1.0000000   1.0000000   1.0000000   1.0000000

  Atom        11
 IAtWgt=           1
 AtmWgt=   1.0078250
 NucSpn=           1
 AtZEff=  -0.0000000
 NQMom=    0.0000000
 NMagM=    2.7928460
 AtZNuc=   1.0000000
 Leave Link  101 at Thu Mar  5 12:52:38 2020, MaxMem=  6710886400 cpu:               4.2 elap:               0.3
 (Enter /opt/ohpc/pub/libs/gaussian/g16-A.03/sandybridge/g16/l202.exe)
                          Input orientation:                          
 ---------------------------------------------------------------------
 Center     Atomic      Atomic             Coordinates (Angstroms)
 Number     Number       Type             X           Y           Z
 ---------------------------------------------------------------------
      1          6           0        0.000000    0.878804   -0.931542
      2          6           0        0.000000    1.128157    0.423457
      3          6           0        0.000000    0.000000    1.240879
      4          6           0        0.000000   -1.128157    0.423457
      5          6           0        0.000000   -0.878804   -0.931542
      6          1           0        0.000000    0.000000   -1.732269
      7          1           0        0.000000    1.608300   -1.734053
      8          1           0        0.000000    2.156626    0.765670
      9          1           0        0.000000    0.000000    2.320778
     10          1           0        0.000000   -2.156626    0.765670
     11          1           0        0.000000   -1.608300   -1.734053
 ---------------------------------------------------------------------
                    Distance matrix (angstroms):
                    1          2          3          4          5
     1  C    0.000000
     2  C    1.377752   0.000000
     3  C    2.343440   1.393168   0.000000
     4  C    2.421552   2.256314   1.393168   0.000000
     5  C    1.757608   2.421552   2.343440   1.377752   0.000000
     6  H    1.188890   2.433083   2.973148   2.433083   1.188890
     7  H    1.084522   2.210291   3.381841   3.484687   2.613371
     8  H    2.124466   1.083909   2.208361   3.302561   3.477695
     9  H    3.368959   2.207389   1.079899   2.207389   3.368959
    10  H    3.477695   3.302561   2.208361   1.083909   2.124466
    11  H    2.613371   3.484687   3.381841   2.210291   1.084522
                    6          7          8          9         10
     6  H    0.000000
     7  H    1.608301   0.000000
     8  H    3.300111   2.559155   0.000000
     9  H    4.053047   4.362142   2.658834   0.000000
    10  H    3.300111   4.519213   4.313252   2.658834   0.000000
    11  H    1.608301   3.216600   4.519213   4.362142   2.559155
                   11
    11  H    0.000000
 Stoichiometry    C5H6(1+,2)
 Framework group  C2V[C2(HCH),SGV(C4H4)]
 Deg. of freedom    10
 Full point group                 C2V     NOp   4
 Largest Abelian subgroup         C2V     NOp   4
 Largest concise Abelian subgroup C2      NOp   2
                         Standard orientation:                         
 ---------------------------------------------------------------------
 Center     Atomic      Atomic             Coordinates (Angstroms)
 Number     Number       Type             X           Y           Z
 ---------------------------------------------------------------------
      1          6           0        0.000000    0.878804   -0.931542
      2          6           0        0.000000    1.128157    0.423457
      3          6           0        0.000000   -0.000000    1.240879
      4          6           0       -0.000000   -1.128157    0.423457
      5          6           0       -0.000000   -0.878804   -0.931542
      6          1           0       -0.000000    0.000000   -1.732269
      7          1           0        0.000000    1.608300   -1.734053
      8          1           0        0.000000    2.156626    0.765670
      9          1           0        0.000000   -0.000000    2.320778
     10          1           0       -0.000000   -2.156626    0.765670
     11          1           0       -0.000000   -1.608300   -1.734053
 ---------------------------------------------------------------------
 Rotational constants (GHZ):           8.5259551           7.9375455           4.1106177
 Leave Link  202 at Thu Mar  5 12:52:38 2020, MaxMem=  6710886400 cpu:               0.5 elap:               0.1
 (Enter /opt/ohpc/pub/libs/gaussian/g16-A.03/sandybridge/g16/l301.exe)
 Standard basis: 6-31G (6D, 7F)
 Ernie: Thresh=  0.10000D-02 Tol=  0.10000D-05 Strict=F.
 There are    27 symmetry adapted cartesian basis functions of A1  symmetry.
 There are     4 symmetry adapted cartesian basis functions of A2  symmetry.
 There are     6 symmetry adapted cartesian basis functions of B1  symmetry.
 There are    20 symmetry adapted cartesian basis functions of B2  symmetry.
 There are    27 symmetry adapted basis functions of A1  symmetry.
 There are     4 symmetry adapted basis functions of A2  symmetry.
 There are     6 symmetry adapted basis functions of B1  symmetry.
 There are    20 symmetry adapted basis functions of B2  symmetry.
    57 basis functions,   134 primitive gaussians,    57 cartesian basis functions
    18 alpha electrons       17 beta electrons
       nuclear repulsion energy       156.0127424860 Hartrees.
 IExCor=33909 DFT=T Ex+Corr=LC-wHPBE ExCW=0 ScaHFX=  1.000000
 ScaDFX=  1.000000  1.000000  1.000000  1.000000 ScalE2=  1.000000  1.000000
 IRadAn=      5 IRanWt=     -1 IRanGd=            0 ICorTp=0 IEmpDi=  4
 HFx  wShort=  0.000000 wLong=  0.400000 cFull=  0.000000 cShort=  0.000000 cLong=  0.761800
 DFx  wShort=  0.000000 wLong=  0.400000 cFull=  0.000000 cShort=  0.000000 cLong=  0.761800
 NAtoms=   11 NActive=   11 NUniq=    7 SFac= 2.47D+00 NAtFMM=   60 NAOKFM=F Big=F
 Integral buffers will be    131072 words long.
 Raffenetti 2 integral format.
 Two-electron integral symmetry is turned on.
 Leave Link  301 at Thu Mar  5 12:52:38 2020, MaxMem=  6710886400 cpu:               0.9 elap:               0.1
 (Enter /opt/ohpc/pub/libs/gaussian/g16-A.03/sandybridge/g16/l302.exe)
 NPDir=0 NMtPBC=     1 NCelOv=     1 NCel=       1 NClECP=     1 NCelD=      1
         NCelK=      1 NCelE2=     1 NClLst=     1 CellRange=     0.0.
 One-electron integrals computed using PRISM.
 One-electron integral symmetry used in STVInt
 NBasis=    57 RedAO= T EigKep=  1.84D-03  NBF=    27     4     6    20
 NBsUse=    57 1.00D-06 EigRej= -1.00D+00 NBFU=    27     4     6    20
 Precomputing XC quadrature grid using
 IXCGrd= 4 IRadAn=           5 IRanWt=          -1 IRanGd=           0 AccXCQ= 0.00D+00.
 Generated NRdTot=       0 NPtTot=           0 NUsed=           0 NTot=          32
 NSgBfM=    57    57    57    57    57 MxSgAt=    11 MxSgA2=    11.
 Leave Link  302 at Thu Mar  5 12:52:38 2020, MaxMem=  6710886400 cpu:               2.1 elap:               0.2
 (Enter /opt/ohpc/pub/libs/gaussian/g16-A.03/sandybridge/g16/l303.exe)
 DipDrv:  MaxL=1.
 Leave Link  303 at Thu Mar  5 12:52:38 2020, MaxMem=  6710886400 cpu:               0.4 elap:               0.0
 (Enter /opt/ohpc/pub/libs/gaussian/g16-A.03/sandybridge/g16/l401.exe)
 ExpMin= 1.61D-01 ExpMax= 3.05D+03 ExpMxC= 4.57D+02 IAcc=3 IRadAn=         5 AccDes= 0.00D+00
 Harris functional with IExCor=33909 and IRadAn=       5 diagonalized for initial guess.
 HarFok:  IExCor=33909 AccDes= 0.00D+00 IRadAn=         5 IDoV= 1 UseB2=F ITyADJ=14
 ICtDFT=  3500011 ScaDFX=  1.000000  1.000000  1.000000  1.000000
 FoFCou: FMM=F IPFlag=           0 FMFlag=      100000 FMFlg1=           0
         NFxFlg=           0 DoJE=T BraDBF=F KetDBF=T FulRan=T
         wScrn=  0.000000 ICntrl=       500 IOpCl=  0 I1Cent=   200000004 NGrid=           0
         NMat0=    1 NMatS0=      1 NMatT0=    0 NMatD0=    1 NMtDS0=    0 NMtDT0=    0
 Petite list used in FoFCou.
 Harris En= -171.692983182784    
 JPrj=0 DoOrth=F DoCkMO=F.
 Initial guess orbital symmetries:
 Alpha Orbitals:
       Occupied  (A1) (B2) (A1) (B2) (A1) (A1) (A1) (B2) (A1) (A1)
                 (B2) (B1) (B2) (A1) (A1) (B2) (A2) (B1)
       Virtual   (A2) (A1) (B2) (B1) (A1) (B2) (A1) (A1) (B2) (A1)
                 (B2) (B2) (A1) (B1) (B2) (A2) (A1) (B1) (A1) (B2)
                 (A2) (A1) (B1) (B2) (A1) (B2) (B2) (A1) (A1) (B2)
                 (A1) (A1) (A1) (B2) (B2) (A1) (A1) (A1) (B2)
 Beta  Orbitals:
       Occupied  (A1) (B2) (A1) (B2) (A1) (A1) (A1) (B2) (A1) (A1)
                 (B2) (B1) (B2) (A1) (A1) (B2) (A2)
       Virtual   (B1) (A2) (A1) (B2) (B1) (A1) (B2) (A1) (A1) (B2)
                 (A1) (B2) (B2) (A1) (B1) (B2) (A2) (A1) (B1) (A1)
                 (B2) (A2) (A1) (B1) (B2) (A1) (B2) (B2) (A1) (A1)
                 (B2) (A1) (A1) (A1) (B2) (B2) (A1) (A1) (A1) (B2)
 The electronic state of the initial guess is 2-B1.
 Initial guess <Sx>= 0.0000 <Sy>= 0.0000 <Sz>= 0.5000 <S**2>= 0.7500 S= 0.5000
 Leave Link  401 at Thu Mar  5 12:52:39 2020, MaxMem=  6710886400 cpu:               3.2 elap:               0.2
 (Enter /opt/ohpc/pub/libs/gaussian/g16-A.03/sandybridge/g16/l502.exe)
 Keep R1 and R2 ints in memory in symmetry-blocked form, NReq=16815681.
 FoFCou: FMM=F IPFlag=           0 FMFlag=           0 FMFlg1=           0
         NFxFlg=           0 DoJE=F BraDBF=F KetDBF=F FulRan=T
         wScrn=  0.000000 ICntrl=       600 IOpCl=  0 I1Cent=           0 NGrid=           0
         NMat0=    1 NMatS0=   1653 NMatT0=    0 NMatD0=    1 NMtDS0=    0 NMtDT0=    0
 Petite list used in FoFCou.
 UHF open shell SCF:
 Using DIIS extrapolation, IDIIS=    10.
 NGot=  6710886400 LenX=  6710059561 LenY=  6710055871
 Requested convergence on RMS density matrix=1.00D-06 within  32 cycles.
 Requested convergence on MAX density matrix=1.00D-04.
 Requested convergence on             energy=1.00D-04.
 Virtual orbitals will be shifted by   0.500 hartree.
 No special actions if energy rises.
 Dynamic level shift is on during FON iterations.

 Cycle   1  Pass 1  IDiag  1:
 E= -176.391187544690    
 DIIS: error= 6.70D-02 at cycle   1 NSaved=   1.
 NSaved= 1 IEnMin= 1 EnMin= -176.391187544690     IErMin= 1 ErrMin= 6.70D-02
 ErrMax= 6.70D-02  0.00D+00 EMaxC= 1.00D+00 BMatC= 8.10D-01 BMatP= 8.10D-01
 IDIUse=1 WtCom= 1.00D+00 WtEn= 0.00D+00
 Coeff-Com:  0.100D+01
 Coeff:      0.100D+01
 Gap=     0.385 Goal=   None    Shift=    0.500
 T= 1978. Gap= 0.837 NK=0 IS=   19 IE=   57 IFin=   18
          NO(<0.9)=   0  NV(>0.1)=   0     18.00e < EF      0.00e >EF  Err=0.0D+00
 Gap=     0.188 Goal=   None    Shift=    0.500
 T= 1978. Gap= 0.685 NK=0 IS=   18 IE=   57 IFin=   17
          NO(<0.9)=   0  NV(>0.1)=   0     17.00e < EF      0.00e >EF  Err=0.0D+00
 GapD=    0.188 DampG=1.000 DampE=0.500 DampFc=0.5000 IDamp=-1.
 Damping current iteration by 5.00D-01
 RMSDP=1.28D-02 MaxDP=1.08D-01              OVMax= 1.16D-01

 Cycle   2  Pass 1  IDiag  1:
 E= -176.538119318028     Delta-E=       -0.146931773338 Rises=F Damp=T
 DIIS: error= 2.79D-02 at cycle   2 NSaved=   2.
 NSaved= 2 IEnMin= 2 EnMin= -176.538119318028     IErMin= 2 ErrMin= 2.79D-02
 ErrMax= 2.79D-02  0.00D+00 EMaxC= 1.00D+00 BMatC= 1.32D-01 BMatP= 8.10D-01
 IDIUse=1 WtCom= 1.00D+00 WtEn= 0.00D+00
 Coeff-Com: -0.597D+00 0.160D+01
 Coeff:     -0.597D+00 0.160D+01
 Gap=     0.402 Goal=   None    Shift=    0.500
 T= 1848. Gap= 0.884 NK=0 IS=   19 IE=   57 IFin=   18
          NO(<0.9)=   0  NV(>0.1)=   0     18.00e < EF      0.00e >EF  Err=0.0D+00
 Gap=     0.209 Goal=   None    Shift=    0.500
 T= 1848. Gap= 0.701 NK=0 IS=   18 IE=   57 IFin=   17
          NO(<0.9)=   0  NV(>0.1)=   0     17.00e < EF      0.00e >EF  Err=0.0D+00
 GapD=    0.209 DampG=1.000 DampE=0.500 DampFc=0.5000 IDamp=-1.
 Damping current iteration by 5.00D-01
 RMSDP=8.50D-03 MaxDP=7.96D-02 DE=-1.47D-01 OVMax= 1.20D-02

 Cycle   3  Pass 1  IDiag  1:
 E= -176.587970882960     Delta-E=       -0.049851564931 Rises=F Damp=T
 DIIS: error= 1.18D-02 at cycle   3 NSaved=   3.
 NSaved= 3 IEnMin= 3 EnMin= -176.587970882960     IErMin= 3 ErrMin= 1.18D-02
 ErrMax= 1.18D-02  0.00D+00 EMaxC= 1.00D+00 BMatC= 2.53D-02 BMatP= 1.32D-01
 IDIUse=1 WtCom= 1.00D+00 WtEn= 0.00D+00
 Coeff-Com:  0.236D+00-0.154D+01 0.230D+01
 Coeff:      0.236D+00-0.154D+01 0.230D+01
 Gap=     0.382 Goal=   None    Shift=    0.500
 T= 1598. Gap= 0.882 NK=0 IS=   19 IE=   57 IFin=   18
          NO(<0.9)=   0  NV(>0.1)=   0     18.00e < EF      0.00e >EF  Err=0.0D+00
 Gap=     0.204 Goal=   None    Shift=    0.500
 T= 1598. Gap= 0.704 NK=0 IS=   18 IE=   57 IFin=   17
          NO(<0.9)=   0  NV(>0.1)=   0     17.00e < EF      0.00e >EF  Err=0.0D+00
 GapD=    0.204 DampG=1.000 DampE=0.500 DampFc=0.5000 IDamp=-1.
 Damping current iteration by 5.00D-01
 RMSDP=5.09D-03 MaxDP=4.98D-02 DE=-4.99D-02 OVMax= 9.89D-03

 Cycle   4  Pass 1  IDiag  1:
 E= -176.609211748718     Delta-E=       -0.021240865758 Rises=F Damp=T
 DIIS: error= 5.36D-03 at cycle   4 NSaved=   4.
 NSaved= 4 IEnMin= 4 EnMin= -176.609211748718     IErMin= 4 ErrMin= 5.36D-03
 ErrMax= 5.36D-03  0.00D+00 EMaxC= 1.00D+00 BMatC= 5.86D-03 BMatP= 2.53D-02
 IDIUse=1 WtCom= 1.00D+00 WtEn= 0.00D+00
 Coeff-Com:  0.150D+00-0.488D+00-0.556D+00 0.189D+01
 Coeff:      0.150D+00-0.488D+00-0.556D+00 0.189D+01
 Gap=     0.384 Goal=   None    Shift=    0.500
 T= 1081. Gap= 0.884 NK=0 IS=   19 IE=   57 IFin=   18
          NO(<0.9)=   0  NV(>0.1)=   0     18.00e < EF      0.00e >EF  Err=0.0D+00
 Gap=     0.205 Goal=   None    Shift=    0.500
 T= 1081. Gap= 0.705 NK=0 IS=   18 IE=   57 IFin=   17
          NO(<0.9)=   0  NV(>0.1)=   0     17.00e < EF      0.00e >EF  Err=0.0D+00
 GapD=    0.205 DampG=1.000 DampE=1.000 DampFc=1.0000 IDamp=-1.
 RMSDP=2.88D-03 MaxDP=2.91D-02 DE=-2.12D-02 OVMax= 4.73D-03

 Cycle   5  Pass 1  IDiag  1:
 E= -176.629171072917     Delta-E=       -0.019959324200 Rises=F Damp=F
 DIIS: error= 1.31D-03 at cycle   5 NSaved=   5.
 NSaved= 5 IEnMin= 5 EnMin= -176.629171072917     IErMin= 5 ErrMin= 1.31D-03
 ErrMax= 1.31D-03  0.00D+00 EMaxC= 1.00D+00 BMatC= 1.39D-04 BMatP= 5.86D-03
 IDIUse=1 WtCom= 1.00D+00 WtEn= 0.00D+00
 Coeff-Com: -0.265D-01 0.166D+00 0.152D+00-0.794D+00 0.150D+01
 Coeff:     -0.265D-01 0.166D+00 0.152D+00-0.794D+00 0.150D+01
 Gap=     0.384 Goal=   None    Shift=    0.500
 T=  548. Gap= 0.884 NK=0 IS=   19 IE=   57 IFin=   18
          NO(<0.9)=   0  NV(>0.1)=   0     18.00e < EF      0.00e >EF  Err=0.0D+00
 Gap=     0.205 Goal=   None    Shift=    0.500
 T=  548. Gap= 0.705 NK=0 IS=   18 IE=   57 IFin=   17
          NO(<0.9)=   0  NV(>0.1)=   0     17.00e < EF      0.00e >EF  Err=0.0D+00
 GapD=    0.205 DampG=1.000 DampE=1.000 DampFc=1.0000 IDamp=-1.
 RMSDP=2.70D-04 MaxDP=2.66D-03 DE=-2.00D-02 OVMax= 4.29D-03

 Cycle   6  Pass 1  IDiag  1:
 E= -176.629260766272     Delta-E=       -0.000089693354 Rises=F Damp=F
 DIIS: error= 8.94D-04 at cycle   6 NSaved=   6.
 NSaved= 6 IEnMin= 6 EnMin= -176.629260766272     IErMin= 6 ErrMin= 8.94D-04
 ErrMax= 8.94D-04  0.00D+00 EMaxC= 1.00D+00 BMatC= 3.52D-05 BMatP= 1.39D-04
 IDIUse=1 WtCom= 1.00D+00 WtEn= 0.00D+00
 Coeff-Com: -0.133D-01-0.539D-02 0.786D-01-0.292D-01-0.126D+01 0.223D+01
 Coeff:     -0.133D-01-0.539D-02 0.786D-01-0.292D-01-0.126D+01 0.223D+01
 Gap=     0.384 Goal=   None    Shift=    0.500
 Gap=     0.206 Goal=   None    Shift=    0.500
 RMSDP=1.43D-04 MaxDP=1.87D-03 DE=-8.97D-05 OVMax= 3.48D-03

 Cycle   7  Pass 1  IDiag  1:
 E= -176.629297541529     Delta-E=       -0.000036775258 Rises=F Damp=F
 DIIS: error= 6.71D-04 at cycle   7 NSaved=   7.
 NSaved= 7 IEnMin= 7 EnMin= -176.629297541529     IErMin= 7 ErrMin= 6.71D-04
 ErrMax= 6.71D-04  0.00D+00 EMaxC= 1.00D+00 BMatC= 1.20D-05 BMatP= 3.52D-05
 IDIUse=1 WtCom= 1.00D+00 WtEn= 0.00D+00
 Coeff-Com:  0.771D-02-0.258D-01-0.128D+00 0.300D+00-0.261D+00-0.125D+01
 Coeff-Com:  0.236D+01
 Coeff:      0.771D-02-0.258D-01-0.128D+00 0.300D+00-0.261D+00-0.125D+01
 Coeff:      0.236D+01
 Gap=     0.384 Goal=   None    Shift=    0.500
 Gap=     0.206 Goal=   None    Shift=    0.500
 RMSDP=8.07D-05 MaxDP=1.37D-03 DE=-3.68D-05 OVMax= 2.59D-03

 Cycle   8  Pass 1  IDiag  1:
 E= -176.629313352433     Delta-E=       -0.000015810903 Rises=F Damp=F
 DIIS: error= 4.89D-04 at cycle   8 NSaved=   8.
 NSaved= 8 IEnMin= 8 EnMin= -176.629313352433     IErMin= 8 ErrMin= 4.89D-04
 ErrMax= 4.89D-04  0.00D+00 EMaxC= 1.00D+00 BMatC= 4.40D-06 BMatP= 1.20D-05
 IDIUse=1 WtCom= 1.00D+00 WtEn= 0.00D+00
 Coeff-Com:  0.469D-02-0.143D-02-0.100D+00 0.168D+00 0.143D+00-0.972D+00
 Coeff-Com:  0.140D+00 0.162D+01
 Coeff:      0.469D-02-0.143D-02-0.100D+00 0.168D+00 0.143D+00-0.972D+00
 Coeff:      0.140D+00 0.162D+01
 Gap=     0.384 Goal=   None    Shift=    0.500
 Gap=     0.206 Goal=   None    Shift=    0.500
 RMSDP=4.48D-05 MaxDP=8.85D-04 DE=-1.58D-05 OVMax= 1.81D-03

 Cycle   9  Pass 1  IDiag  1:
 E= -176.629319487368     Delta-E=       -0.000006134935 Rises=F Damp=F
 DIIS: error= 3.23D-04 at cycle   9 NSaved=   9.
 NSaved= 9 IEnMin= 9 EnMin= -176.629319487368     IErMin= 9 ErrMin= 3.23D-04
 ErrMax= 3.23D-04  0.00D+00 EMaxC= 1.00D+00 BMatC= 1.72D-06 BMatP= 4.40D-06
 IDIUse=1 WtCom= 1.00D+00 WtEn= 0.00D+00
 Coeff-Com: -0.269D-02 0.165D-01 0.607D-03-0.483D-01 0.161D+00 0.276D+00
 Coeff-Com: -0.133D+01-0.716D-01 0.200D+01
 Coeff:     -0.269D-02 0.165D-01 0.607D-03-0.483D-01 0.161D+00 0.276D+00
 Coeff:     -0.133D+01-0.716D-01 0.200D+01
 Gap=     0.384 Goal=   None    Shift=    0.500
 Gap=     0.206 Goal=   None    Shift=    0.500
 RMSDP=2.82D-05 MaxDP=5.56D-04 DE=-6.13D-06 OVMax= 1.24D-03

 Cycle  10  Pass 1  IDiag  1:
 E= -176.629321976528     Delta-E=       -0.000002489160 Rises=F Damp=F
 DIIS: error= 2.17D-04 at cycle  10 NSaved=  10.
 NSaved=10 IEnMin=10 EnMin= -176.629321976528     IErMin=10 ErrMin= 2.17D-04
 ErrMax= 2.17D-04  0.00D+00 EMaxC= 1.00D+00 BMatC= 6.74D-07 BMatP= 1.72D-06
 IDIUse=1 WtCom= 1.00D+00 WtEn= 0.00D+00
 Coeff-Com: -0.155D-03 0.601D-03-0.181D-01 0.355D-01-0.970D-01 0.157D+00
 Coeff-Com:  0.199D+00-0.262D+00-0.205D+01 0.304D+01
 Coeff:     -0.155D-03 0.601D-03-0.181D-01 0.355D-01-0.970D-01 0.157D+00
 Coeff:      0.199D+00-0.262D+00-0.205D+01 0.304D+01
 Gap=     0.384 Goal=   None    Shift=    0.500
 Gap=     0.206 Goal=   None    Shift=    0.500
 RMSDP=1.65D-05 MaxDP=3.15D-04 DE=-2.49D-06 OVMax= 8.39D-04

 Cycle  11  Pass 1  IDiag  1:
 E= -176.629322904146     Delta-E=       -0.000000927617 Rises=F Damp=F
 DIIS: error= 1.40D-04 at cycle  11 NSaved=  11.
 NSaved=11 IEnMin=11 EnMin= -176.629322904146     IErMin=11 ErrMin= 1.40D-04
 ErrMax= 1.40D-04  0.00D+00 EMaxC= 1.00D+00 BMatC= 2.52D-07 BMatP= 6.74D-07
 IDIUse=1 WtCom= 1.00D+00 WtEn= 0.00D+00
 Coeff-Com:  0.368D-03 0.200D-03-0.891D-02 0.141D-01-0.133D-02-0.837D-01
 Coeff-Com:  0.182D+00-0.268D-01 0.433D+00-0.289D+01 0.338D+01
 Coeff:      0.368D-03 0.200D-03-0.891D-02 0.141D-01-0.133D-02-0.837D-01
 Coeff:      0.182D+00-0.268D-01 0.433D+00-0.289D+01 0.338D+01
 Gap=     0.384 Goal=   None    Shift=    0.500
 Gap=     0.206 Goal=   None    Shift=    0.500
 RMSDP=9.32D-06 MaxDP=1.65D-04 DE=-9.28D-07 OVMax= 5.45D-04

 Cycle  12  Pass 1  IDiag  1:
 E= -176.629323233212     Delta-E=       -0.000000329066 Rises=F Damp=F
 DIIS: error= 8.73D-05 at cycle  12 NSaved=  12.
 NSaved=12 IEnMin=12 EnMin= -176.629323233212     IErMin=12 ErrMin= 8.73D-05
 ErrMax= 8.73D-05  0.00D+00 EMaxC= 1.00D+00 BMatC= 9.16D-08 BMatP= 2.52D-07
 IDIUse=1 WtCom= 1.00D+00 WtEn= 0.00D+00
 Coeff-Com:  0.593D-05-0.336D-03 0.129D-02-0.144D-02 0.165D-02 0.229D-01
 Coeff-Com: -0.497D-01-0.626D-01 0.217D+00 0.424D+00-0.287D+01 0.331D+01
 Coeff:      0.593D-05-0.336D-03 0.129D-02-0.144D-02 0.165D-02 0.229D-01
 Coeff:     -0.497D-01-0.626D-01 0.217D+00 0.424D+00-0.287D+01 0.331D+01
 Gap=     0.384 Goal=   None    Shift=    0.500
 Gap=     0.206 Goal=   None    Shift=    0.500
 RMSDP=5.23D-06 MaxDP=8.72D-05 DE=-3.29D-07 OVMax= 3.39D-04

 Cycle  13  Pass 1  IDiag  1:
 E= -176.629323346767     Delta-E=       -0.000000113556 Rises=F Damp=F
 DIIS: error= 5.48D-05 at cycle  13 NSaved=  13.
 NSaved=13 IEnMin=13 EnMin= -176.629323346767     IErMin=13 ErrMin= 5.48D-05
 ErrMax= 5.48D-05  0.00D+00 EMaxC= 1.00D+00 BMatC= 3.61D-08 BMatP= 9.16D-08
 IDIUse=1 WtCom= 1.00D+00 WtEn= 0.00D+00
 Coeff-Com: -0.558D-04 0.186D-03-0.141D-02 0.243D-02-0.800D-02 0.385D-01
 Coeff-Com: -0.381D-01-0.575D-01-0.738D-01 0.874D+00-0.132D+01-0.112D+01
 Coeff-Com:  0.270D+01
 Coeff:     -0.558D-04 0.186D-03-0.141D-02 0.243D-02-0.800D-02 0.385D-01
 Coeff:     -0.381D-01-0.575D-01-0.738D-01 0.874D+00-0.132D+01-0.112D+01
 Coeff:      0.270D+01
 Gap=     0.384 Goal=   None    Shift=    0.500
 Gap=     0.206 Goal=   None    Shift=    0.500
 RMSDP=2.90D-06 MaxDP=4.60D-05 DE=-1.14D-07 OVMax= 2.11D-04

 Cycle  14  Pass 1  IDiag  1:
 E= -176.629323387099     Delta-E=       -0.000000040332 Rises=F Damp=F
 DIIS: error= 3.39D-05 at cycle  14 NSaved=  14.
 NSaved=14 IEnMin=14 EnMin= -176.629323387099     IErMin=14 ErrMin= 3.39D-05
 ErrMax= 3.39D-05  0.00D+00 EMaxC= 1.00D+00 BMatC= 1.45D-08 BMatP= 3.61D-08
 IDIUse=1 WtCom= 1.00D+00 WtEn= 0.00D+00
 Coeff-Com:  0.273D-05 0.306D-03-0.243D-02 0.363D-02-0.340D-02-0.791D-02
 Coeff-Com:  0.282D-01-0.834D-02 0.161D-01-0.272D+00 0.717D+00 0.951D-01
 Coeff-Com: -0.348D+01 0.391D+01
 Coeff:      0.273D-05 0.306D-03-0.243D-02 0.363D-02-0.340D-02-0.791D-02
 Coeff:      0.282D-01-0.834D-02 0.161D-01-0.272D+00 0.717D+00 0.951D-01
 Coeff:     -0.348D+01 0.391D+01
 Gap=     0.384 Goal=   None    Shift=    0.500
 Gap=     0.206 Goal=   None    Shift=    0.500
 RMSDP=1.64D-06 MaxDP=2.50D-05 DE=-4.03D-08 OVMax= 1.31D-04

 Cycle  15  Pass 1  IDiag  1:
 E= -176.629323401448     Delta-E=       -0.000000014349 Rises=F Damp=F
 DIIS: error= 2.06D-05 at cycle  15 NSaved=  15.
 NSaved=15 IEnMin=15 EnMin= -176.629323401448     IErMin=15 ErrMin= 2.06D-05
 ErrMax= 2.06D-05  0.00D+00 EMaxC= 1.00D+00 BMatC= 5.77D-09 BMatP= 1.45D-08
 IDIUse=1 WtCom= 1.00D+00 WtEn= 0.00D+00
 Coeff-Com: -0.949D-06-0.762D-05-0.225D-03 0.469D-03-0.497D-03 0.307D-02
 Coeff-Com: -0.179D-02-0.186D-01 0.154D-01 0.105D+00-0.303D+00 0.394D+00
 Coeff-Com:  0.280D+00-0.287D+01 0.339D+01
 Coeff:     -0.949D-06-0.762D-05-0.225D-03 0.469D-03-0.497D-03 0.307D-02
 Coeff:     -0.179D-02-0.186D-01 0.154D-01 0.105D+00-0.303D+00 0.394D+00
 Coeff:      0.280D+00-0.287D+01 0.339D+01
 Gap=     0.384 Goal=   None    Shift=    0.500
 Gap=     0.206 Goal=   None    Shift=    0.500
 RMSDP=9.05D-07 MaxDP=1.42D-05 DE=-1.43D-08 OVMax= 7.83D-05

 SCF Done:  E(ULC-wHPBE) =  -176.629323401     A.U. after   15 cycles
            NFock= 15  Conv=0.91D-06     -V/T= 1.9512
 <Sx>= 0.0000 <Sy>= 0.0000 <Sz>= 0.5000 <S**2>= 0.7538 S= 0.5019
 <L.S>= 0.000000000000E+00
 KE= 1.856845431360D+02 PE=-7.382129183365D+02 EE= 2.198863093130D+02
 Annihilation of the first spin contaminant:
 S**2 before annihilation     0.7538,   after     0.7500
 Leave Link  502 at Thu Mar  5 12:52:40 2020, MaxMem=  6710886400 cpu:              23.6 elap:               1.5
 (Enter /opt/ohpc/pub/libs/gaussian/g16-A.03/sandybridge/g16/l508.exe)
 QCSCF skips out because SCF is already converged.
 Leave Link  508 at Thu Mar  5 12:52:40 2020, MaxMem=  6710886400 cpu:               0.0 elap:               0.0
 (Enter /opt/ohpc/pub/libs/gaussian/g16-A.03/sandybridge/g16/l601.exe)
 Copying SCF densities to generalized density rwf, IOpCl= 1 IROHF=0.

 **********************************************************************

            Population analysis using the SCF density.

 **********************************************************************

 Orbital symmetries:
 Alpha Orbitals:
       Occupied  (B2) (A1) (A1) (A1) (B2) (A1) (A1) (B2) (A1) (B2)
                 (A1) (B1) (B2) (A1) (A1) (B2) (A2) (B1)
       Virtual   (A2) (B2) (A1) (B1) (A1) (B2) (A1) (B2) (A1) (A1)
                 (B2) (B2) (A1) (B1) (B2) (A1) (A2) (B1) (A1) (A2)
                 (B2) (A1) (B1) (B2) (A1) (B2) (A1) (B2) (A1) (B2)
                 (A1) (A1) (A1) (B2) (B2) (A1) (A1) (A1) (B2)
 Beta  Orbitals:
       Occupied  (B2) (A1) (A1) (A1) (B2) (A1) (A1) (B2) (A1) (B2)
                 (A1) (B2) (B1) (A1) (A1) (B2) (A2)
       Virtual   (B1) (A2) (B2) (A1) (B1) (A1) (B2) (A1) (B2) (A1)
                 (A1) (B2) (B2) (A1) (B1) (B2) (A1) (A2) (B1) (A1)
                 (A2) (B2) (A1) (B1) (B2) (A1) (B2) (A1) (B2) (A1)
                 (B2) (A1) (A1) (A1) (B2) (B2) (A1) (A1) (A1) (B2)
 The electronic state is 2-B1.
 Alpha  occ. eigenvalues --   -8.83881  -8.83848  -8.78740  -8.77761  -8.77745
 Alpha  occ. eigenvalues --   -1.14800  -1.00942  -0.94918  -0.82928  -0.79875
 Alpha  occ. eigenvalues --   -0.78878  -0.68231  -0.67033  -0.64939  -0.62815
 Alpha  occ. eigenvalues --   -0.61127  -0.51866  -0.50361
 Alpha virt. eigenvalues --   -0.11928  -0.08610  -0.06489  -0.05783  -0.03024
 Alpha virt. eigenvalues --    0.02604   0.03947   0.07196   0.07948   0.17425
 Alpha virt. eigenvalues --    0.19451   0.30835   0.31810   0.40521   0.40999
 Alpha virt. eigenvalues --    0.47573   0.47805   0.48137   0.52340   0.55413
 Alpha virt. eigenvalues --    0.55841   0.57046   0.57461   0.68107   0.75092
 Alpha virt. eigenvalues --    0.76558   0.81376   0.82922   0.83142   0.87995
 Alpha virt. eigenvalues --    0.88855   0.92742   0.97386   1.00202   1.08593
 Alpha virt. eigenvalues --    1.08899   1.16524   1.37027   1.38114
  Beta  occ. eigenvalues --   -8.83896  -8.83859  -8.78754  -8.77761  -8.77746
  Beta  occ. eigenvalues --   -1.14666  -1.00455  -0.94969  -0.82817  -0.79865
  Beta  occ. eigenvalues --   -0.78933  -0.67131  -0.65645  -0.65018  -0.62892
  Beta  occ. eigenvalues --   -0.61204  -0.51552
  Beta virt. eigenvalues --   -0.30937  -0.10334  -0.08698  -0.06495  -0.04271
  Beta virt. eigenvalues --   -0.03031   0.02562   0.03899   0.07181   0.07935
  Beta virt. eigenvalues --    0.17436   0.19412   0.30743   0.31889   0.40655
  Beta virt. eigenvalues --    0.40990   0.47570   0.47794   0.48636   0.52656
  Beta virt. eigenvalues --    0.55477   0.55677   0.57265   0.57542   0.68151
  Beta virt. eigenvalues --    0.75228   0.76454   0.81257   0.82903   0.83072
  Beta virt. eigenvalues --    0.87859   0.88895   0.92838   0.97369   1.00178
  Beta virt. eigenvalues --    1.08552   1.08882   1.16581   1.37040   1.38116
          Condensed to atoms (all electrons):
               1          2          3          4          5          6
     1  C    5.251235   0.541326  -0.062218  -0.193853   0.272174   0.174941
     2  C    0.541326   4.814007   0.543670  -0.059372  -0.193853  -0.023843
     3  C   -0.062218   0.543670   4.652805   0.543670  -0.062218   0.010444
     4  C   -0.193853  -0.059372   0.543670   4.814007   0.541326  -0.023843
     5  C    0.272174  -0.193853  -0.062218   0.541326   5.251235   0.174941
     6  H    0.174941  -0.023843   0.010444  -0.023843   0.174941   0.347093
     7  H    0.351669   0.015748   0.000565   0.005161  -0.027323  -0.002499
     8  H   -0.018420   0.369715  -0.005663   0.006599   0.002310   0.001104
     9  H    0.008755  -0.029724   0.387415  -0.029724   0.008755  -0.000212
    10  H    0.002310   0.006599  -0.005663   0.369715  -0.018420   0.001104
    11  H   -0.027323   0.005161   0.000565   0.015748   0.351669  -0.002499
               7          8          9         10         11
     1  C    0.351669  -0.018420   0.008755   0.002310  -0.027323
     2  C    0.015748   0.369715  -0.029724   0.006599   0.005161
     3  C    0.000565  -0.005663   0.387415  -0.005663   0.000565
     4  C    0.005161   0.006599  -0.029724   0.369715   0.015748
     5  C   -0.027323   0.002310   0.008755  -0.018420   0.351669
     6  H   -0.002499   0.001104  -0.000212   0.001104  -0.002499
     7  H    0.373528  -0.002434  -0.000072  -0.000047   0.000776
     8  H   -0.002434   0.425789  -0.003845  -0.000168  -0.000047
     9  H   -0.000072  -0.003845   0.442376  -0.003845  -0.000072
    10  H   -0.000047  -0.000168  -0.003845   0.425789  -0.002434
    11  H    0.000776  -0.000047  -0.000072  -0.002434   0.373528
          Atomic-Atomic Spin Densities.
               1          2          3          4          5          6
     1  C    0.309486  -0.045388  -0.031758  -0.011779   0.064247  -0.000447
     2  C   -0.045388  -0.022997   0.048871   0.001591  -0.011779  -0.000155
     3  C   -0.031758   0.048871   0.462191   0.048871  -0.031758   0.000054
     4  C   -0.011779   0.001591   0.048871  -0.022997  -0.045388  -0.000155
     5  C    0.064247  -0.011779  -0.031758  -0.045388   0.309486  -0.000447
     6  H   -0.000447  -0.000155   0.000054  -0.000155  -0.000447  -0.002350
     7  H    0.000592  -0.000556   0.000033   0.000005  -0.000236  -0.000241
     8  H   -0.000453  -0.000053  -0.000048  -0.000048   0.000021   0.000003
     9  H    0.000078  -0.000884   0.001660  -0.000884   0.000078  -0.000004
    10  H    0.000021  -0.000048  -0.000048  -0.000053  -0.000453   0.000003
    11  H   -0.000236   0.000005   0.000033  -0.000556   0.000592  -0.000241
               7          8          9         10         11
     1  C    0.000592  -0.000453   0.000078   0.000021  -0.000236
     2  C   -0.000556  -0.000053  -0.000884  -0.000048   0.000005
     3  C    0.000033  -0.000048   0.001660  -0.000048   0.000033
     4  C    0.000005  -0.000048  -0.000884  -0.000053  -0.000556
     5  C   -0.000236   0.000021   0.000078  -0.000453   0.000592
     6  H   -0.000241   0.000003  -0.000004   0.000003  -0.000241
     7  H   -0.000049  -0.000000  -0.000001   0.000000  -0.000013
     8  H   -0.000000   0.000822  -0.000047  -0.000001   0.000000
     9  H   -0.000001  -0.000047   0.000532  -0.000047  -0.000001
    10  H    0.000000  -0.000001  -0.000047   0.000822  -0.000000
    11  H   -0.000013   0.000000  -0.000001  -0.000000  -0.000049
 Mulliken charges and spin densities:
               1          2
     1  C   -0.300596   0.284362
     2  C    0.010567  -0.031392
     3  C   -0.003373   0.498102
     4  C    0.010567  -0.031392
     5  C   -0.300596   0.284362
     6  H    0.343267  -0.003980
     7  H    0.284927  -0.000467
     8  H    0.225059   0.000196
     9  H    0.220193   0.000481
    10  H    0.225059   0.000196
    11  H    0.284927  -0.000467
 Sum of Mulliken charges =   1.00000   1.00000
 Mulliken charges and spin densities with hydrogens summed into heavy atoms:
               1          2
     1  C    0.327597   0.279914
     2  C    0.235626  -0.031196
     3  C    0.216820   0.498584
     4  C    0.235626  -0.031196
     5  C   -0.015669   0.283895
 Electronic spatial extent (au):  <R**2>=            336.1361
 Charge=              1.0000 electrons
 Dipole moment (field-independent basis, Debye):
    X=             -0.0000    Y=             -0.0000    Z=             -2.1209  Tot=              2.1209
 Quadrupole moment (field-independent basis, Debye-Ang):
   XX=            -37.2268   YY=            -26.4066   ZZ=            -21.5519
   XY=              0.0000   XZ=              0.0000   YZ=             -0.0000
 Traceless Quadrupole moment (field-independent basis, Debye-Ang):
   XX=             -8.8317   YY=              1.9885   ZZ=              6.8432
   XY=              0.0000   XZ=              0.0000   YZ=             -0.0000
 Octapole moment (field-independent basis, Debye-Ang**2):
  XXX=              0.0000  YYY=              0.0000  ZZZ=             -8.4517  XYY=              0.0000
  XXY=             -0.0000  XXZ=              0.7606  XZZ=              0.0000  YZZ=             -0.0000
  YYZ=             -3.1246  XYZ=             -0.0000
 Hexadecapole moment (field-independent basis, Debye-Ang**3):
 XXXX=            -43.0468 YYYY=           -215.6054 ZZZZ=           -191.2859 XXXY=             -0.0000
 XXXZ=             -0.0000 YYYX=             -0.0000 YYYZ=             -0.0000 ZZZX=             -0.0000
 ZZZY=             -0.0000 XXYY=            -53.7258 XXZZ=            -49.2599 YYZZ=            -65.9374
 XXYZ=              0.0000 YYXZ=             -0.0000 ZZXY=             -0.0000
 N-N= 1.560127424860D+02 E-N=-7.382129079976D+02  KE= 1.856845431360D+02
 Symmetry A1   KE= 1.078300868412D+02
 Symmetry A2   KE= 2.101904752769D+00
 Symmetry B1   KE= 2.618474512977D+00
 Symmetry B2   KE= 7.313407702903D+01
 Symmetry A1   SP=-9.227404344425D-15
 Symmetry A2   SP=-3.146517334879D-15
 Symmetry B1   SP= 1.000000000000D+00
 Symmetry B2   SP=-1.343137984527D-14
                          Isotropic Fermi Contact Couplings
        Atom                 a.u.       MegaHertz       Gauss      10(-4) cm-1
     1  C(13)              0.00438       4.92062       1.75580       1.64134
     2  C(13)             -0.00002      -0.02438      -0.00870      -0.00813
     3  C(13)              0.00702       7.89650       2.81767       2.63399
     4  C(13)             -0.00002      -0.02438      -0.00870      -0.00813
     5  C(13)              0.00438       4.92062       1.75580       1.64134
     6  H(1)              -0.00129      -5.77977      -2.06237      -1.92792
     7  H(1)              -0.00042      -1.89951      -0.67779      -0.63361
     8  H(1)               0.00015       0.67060       0.23929       0.22369
     9  H(1)              -0.00081      -3.63952      -1.29867      -1.21401
    10  H(1)               0.00015       0.67060       0.23929       0.22369
    11  H(1)              -0.00042      -1.89951      -0.67779      -0.63361
 --------------------------------------------------------
       Center         ----  Spin Dipole Couplings  ----
                      3XX-RR        3YY-RR        3ZZ-RR
 --------------------------------------------------------
     1   Atom        0.237599     -0.113053     -0.124546
     2   Atom       -0.016514      0.007215      0.009299
     3   Atom        0.460149     -0.231913     -0.228236
     4   Atom       -0.016514      0.007215      0.009299
     5   Atom        0.237599     -0.113053     -0.124546
     6   Atom        0.006324     -0.004250     -0.002074
     7   Atom       -0.000095      0.001792     -0.001697
     8   Atom       -0.006966      0.009781     -0.002815
     9   Atom        0.001028     -0.030937      0.029909
    10   Atom       -0.006966      0.009781     -0.002815
    11   Atom       -0.000095      0.001792     -0.001697
 --------------------------------------------------------
                        XY            XZ            YZ
 --------------------------------------------------------
     1   Atom       -0.000000     -0.000000     -0.002816
     2   Atom        0.000000      0.000000     -0.012655
     3   Atom       -0.000000     -0.000000      0.000000
     4   Atom       -0.000000     -0.000000      0.012655
     5   Atom       -0.000000      0.000000      0.002816
     6   Atom       -0.000000      0.000000      0.000000
     7   Atom       -0.000000      0.000000     -0.018464
     8   Atom        0.000000      0.000000      0.000246
     9   Atom       -0.000000     -0.000000      0.000000
    10   Atom        0.000000     -0.000000     -0.000246
    11   Atom       -0.000000     -0.000000      0.018464
 --------------------------------------------------------


 ---------------------------------------------------------------------------------
              Anisotropic Spin Dipole Couplings in Principal Axis System
 ---------------------------------------------------------------------------------

       Atom             a.u.   MegaHertz   Gauss  10(-4) cm-1        Axes

              Baa    -0.1252   -16.800    -5.995    -5.604  0.0000  0.2258  0.9742
     1 C(13)  Bbb    -0.1124   -15.083    -5.382    -5.031  0.0000  0.9742 -0.2258
              Bcc     0.2376    31.884    11.377    10.635  1.0000 -0.0000  0.0000
 
              Baa    -0.0165    -2.216    -0.791    -0.739  1.0000  0.0000  0.0000
     2 C(13)  Bbb    -0.0044    -0.596    -0.213    -0.199 -0.0000  0.7356  0.6775
              Bcc     0.0210     2.812     1.003     0.938  0.0000 -0.6775  0.7356
 
              Baa    -0.2319   -31.121   -11.105   -10.381  0.0000  1.0000  0.0000
     3 C(13)  Bbb    -0.2282   -30.627   -10.928   -10.216  0.0000  0.0000  1.0000
              Bcc     0.4601    61.748    22.033    20.597  1.0000 -0.0000  0.0000
 
              Baa    -0.0165    -2.216    -0.791    -0.739  1.0000  0.0000  0.0000
     4 C(13)  Bbb    -0.0044    -0.596    -0.213    -0.199  0.0000  0.7356 -0.6775
              Bcc     0.0210     2.812     1.003     0.938 -0.0000  0.6775  0.7356
 
              Baa    -0.1252   -16.800    -5.995    -5.604 -0.0000 -0.2258  0.9742
     5 C(13)  Bbb    -0.1124   -15.083    -5.382    -5.031  0.0000  0.9742  0.2258
              Bcc     0.2376    31.884    11.377    10.635  1.0000 -0.0000  0.0000
 
              Baa    -0.0042    -2.267    -0.809    -0.756  0.0000  1.0000 -0.0000
     6 H(1)   Bbb    -0.0021    -1.107    -0.395    -0.369 -0.0000  0.0000  1.0000
              Bcc     0.0063     3.374     1.204     1.125  1.0000 -0.0000  0.0000
 
              Baa    -0.0185    -9.870    -3.522    -3.292 -0.0000  0.6730  0.7396
     7 H(1)   Bbb    -0.0001    -0.051    -0.018    -0.017  1.0000  0.0000 -0.0000
              Bcc     0.0186     9.921     3.540     3.309 -0.0000  0.7396 -0.6730
 
              Baa    -0.0070    -3.717    -1.326    -1.240  1.0000 -0.0000 -0.0000
     8 H(1)   Bbb    -0.0028    -1.505    -0.537    -0.502  0.0000 -0.0195  0.9998
              Bcc     0.0098     5.221     1.863     1.742  0.0000  0.9998  0.0195
 
              Baa    -0.0309   -16.507    -5.890    -5.506  0.0000  1.0000 -0.0000
     9 H(1)   Bbb     0.0010     0.549     0.196     0.183  1.0000 -0.0000  0.0000
              Bcc     0.0299    15.958     5.694     5.323  0.0000  0.0000  1.0000
 
              Baa    -0.0070    -3.717    -1.326    -1.240  1.0000 -0.0000  0.0000
    10 H(1)   Bbb    -0.0028    -1.505    -0.537    -0.502 -0.0000  0.0195  0.9998
              Bcc     0.0098     5.221     1.863     1.742  0.0000  0.9998 -0.0195
 
              Baa    -0.0185    -9.870    -3.522    -3.292  0.0000 -0.6730  0.7396
    11 H(1)   Bbb    -0.0001    -0.051    -0.018    -0.017  1.0000  0.0000  0.0000
              Bcc     0.0186     9.921     3.540     3.309 -0.0000  0.7396  0.6730
 

 ---------------------------------------------------------------------------------

 No NMR shielding tensors so no spin-rotation constants.
 Leave Link  601 at Thu Mar  5 12:52:40 2020, MaxMem=  6710886400 cpu:               3.1 elap:               0.2
 (Enter /opt/ohpc/pub/libs/gaussian/g16-A.03/sandybridge/g16/l9999.exe)

 Test job not archived.
 1\1\GINC-CNODE212\SP\ULC-wHPBE\6-31G\C5H6(1+,2)\SMGO234\05-Mar-2020\0\
 \#P uLC-wHPBE/6-31G iop(3/130=0238200000, 3/131=0238200000, 3/119=0761
 800000, 3/120=0761800000) scf=(conver=6,fermi,ndamp=35,noincfock,novar
 acc,vshift=500,xqc)\\H6 C5\\1,2\C,0,0.,0.878804,-0.931542\C,0,0.,1.128
 157,0.423457\C,0,0.,0.,1.240879\C,0,0.,-1.128157,0.423457\C,0,0.,-0.87
 8804,-0.931542\H,0,0.,0.,-1.732269\H,0,0.,1.6083,-1.734053\H,0,0.,2.15
 6626,0.76567\H,0,0.,0.,2.320778\H,0,0.,-2.156626,0.76567\H,0,0.,-1.608
 3,-1.734053\\Version=EM64L-G16RevA.03\State=2-B1\HF=-176.6293234\S2=0.
 753837\S2-1=0.\S2A=0.750008\RMSD=9.055e-07\Dipole=0.,0.,-0.8344448\Qua
 drupole=-6.5661447,1.478419,5.0877257,0.,0.,0.\PG=C02V [C2(H1C1H1),SGV
 (C4H4)]\\@


     ON THE SURVIVAL OF THE FITTEST -
 "STRONG REPRESENTATIVES FROM EACH PAST ERA THRIVE TODAY,
 SUCH AS PROGRAMMING IN THE THIRTY YEAR OLD LANGUAGE KNOWN
 AS FORTRAN, AND EVEN IN THE ANCIENT SCRIPT KNOWN AS DIRECT
 MACHINE CODE. SOME PEOPLE MIGHT LOOK ON SUCH RELICS AS LIVING
 FOSSILS; OTHERS WOULD POINT OUT THAT EVEN A VERY OLD SPECIES
 MIGHT STILL BE FILLING A PARTICULAR ECOLOGICAL NICHE."
     -- ALAN KAY, SCI.AM. SEPTEMBER 1984
 Job cpu time:       0 days  0 hours  0 minutes 54.2 seconds.
 Elapsed time:       0 days  0 hours  0 minutes  3.7 seconds.
 File lengths (MBytes):  RWF=    272 Int=      0 D2E=      0 Chk=     32 Scr=     32
 Normal termination of Gaussian 16 at Thu Mar  5 12:52:41 2020.
