 Entering Gaussian System, Link 0=g16
 Input=a1b_tune_c3.gjf
 Output=a1b_tune_c3.log
 Initial command:
 /opt/ohpc/pub/libs/gaussian/g16-A.03/sandybridge/g16/l1.exe "/scratch/smgo234/Ocelot/test/a1b/tuning_a1b_acycle1/Gau-79501.inp" -scrdir="/scratch/smgo234/Ocelot/test/a1b/tuning_a1b_acycle1/"
 Entering Link 1 = /opt/ohpc/pub/libs/gaussian/g16-A.03/sandybridge/g16/l1.exe PID=     79502.
  
 Copyright (c) 1988,1990,1992,1993,1995,1998,2003,2009,2016,
            Gaussian, Inc.  All Rights Reserved.
  
 This is part of the Gaussian(R) 16 program.  It is based on
 the Gaussian(R) 09 system (copyright 2009, Gaussian, Inc.),
 the Gaussian(R) 03 system (copyright 2003, Gaussian, Inc.),
 the Gaussian(R) 98 system (copyright 1998, Gaussian, Inc.),
 the Gaussian(R) 94 system (copyright 1995, Gaussian, Inc.),
 the Gaussian 92(TM) system (copyright 1992, Gaussian, Inc.),
 the Gaussian 90(TM) system (copyright 1990, Gaussian, Inc.),
 the Gaussian 88(TM) system (copyright 1988, Gaussian, Inc.),
 the Gaussian 86(TM) system (copyright 1986, Carnegie Mellon
 University), and the Gaussian 82(TM) system (copyright 1983,
 Carnegie Mellon University). Gaussian is a federally registered
 trademark of Gaussian, Inc.
  
 This software contains proprietary and confidential information,
 including trade secrets, belonging to Gaussian, Inc.
  
 This software is provided under written license and may be
 used, copied, transmitted, or stored only in accord with that
 written license.
  
 The following legend is applicable only to US Government
 contracts under FAR:
  
                    RESTRICTED RIGHTS LEGEND
  
 Use, reproduction and disclosure by the US Government is
 subject to restrictions as set forth in subparagraphs (a)
 and (c) of the Commercial Computer Software - Restricted
 Rights clause in FAR 52.227-19.
  
 Gaussian, Inc.
 340 Quinnipiac St., Bldg. 40, Wallingford CT 06492
  
  
 ---------------------------------------------------------------
 Warning -- This program may not be used in any manner that
 competes with the business of Gaussian, Inc. or will provide
 assistance to any competitor of Gaussian, Inc.  The licensee
 of this program is prohibited from giving any competitor of
 Gaussian, Inc. access to this program.  By using this program,
 the user acknowledges that Gaussian, Inc. is engaged in the
 business of creating and licensing software in the field of
 computational chemistry and represents and warrants to the
 licensee that it is not a competitor of Gaussian, Inc. and that
 it will not use this program in any manner prohibited above.
 ---------------------------------------------------------------
  

 Cite this work as:
 Gaussian 16, Revision A.03,
 M. J. Frisch, G. W. Trucks, H. B. Schlegel, G. E. Scuseria, 
 M. A. Robb, J. R. Cheeseman, G. Scalmani, V. Barone, 
 G. A. Petersson, H. Nakatsuji, X. Li, M. Caricato, A. V. Marenich, 
 J. Bloino, B. G. Janesko, R. Gomperts, B. Mennucci, H. P. Hratchian, 
 J. V. Ortiz, A. F. Izmaylov, J. L. Sonnenberg, D. Williams-Young, 
 F. Ding, F. Lipparini, F. Egidi, J. Goings, B. Peng, A. Petrone, 
 T. Henderson, D. Ranasinghe, V. G. Zakrzewski, J. Gao, N. Rega, 
 G. Zheng, W. Liang, M. Hada, M. Ehara, K. Toyota, R. Fukuda, 
 J. Hasegawa, M. Ishida, T. Nakajima, Y. Honda, O. Kitao, H. Nakai, 
 T. Vreven, K. Throssell, J. A. Montgomery, Jr., J. E. Peralta, 
 F. Ogliaro, M. J. Bearpark, J. J. Heyd, E. N. Brothers, K. N. Kudin, 
 V. N. Staroverov, T. A. Keith, R. Kobayashi, J. Normand, 
 K. Raghavachari, A. P. Rendell, J. C. Burant, S. S. Iyengar, 
 J. Tomasi, M. Cossi, J. M. Millam, M. Klene, C. Adamo, R. Cammi, 
 J. W. Ochterski, R. L. Martin, K. Morokuma, O. Farkas, 
 J. B. Foresman, and D. J. Fox, Gaussian, Inc., Wallingford CT, 2016.
 
 ******************************************
 Gaussian 16:  EM64L-G16RevA.03 25-Dec-2016
                 5-Mar-2020 
 ******************************************
 %mem=50GB
 %nproc=16
 Will use up to   16 processors via shared memory.
 ----------------------------------------------------------------------
 #P uLC-wHPBE/6-31G iop(3/130=0283100000, 3/131=0283100000, 3/119=07169
 00000, 3/120=0716900000) scf=(conver=6,fermi,ndamp=35,noincfock,novara
 cc,vshift=500,xqc)
 ----------------------------------------------------------------------
 1/38=1,172=1/1;
 2/12=2,17=6,18=5,40=1/2;
 3/5=1,6=6,11=2,25=1,30=1,74=-71,116=2,119=716900000,120=716900000,130=283100000,131=283100000/1,2,3;
 4//1;
 5/5=100002,6=6,8=3,10=500,13=1,18=-1,22=13,38=1,93=35/2,8;
 6/7=2,8=2,9=2,10=2,28=1/1;
 99/5=1,9=1/99;
 Leave Link    1 at Thu Mar  5 12:52:06 2020, MaxMem=  6710886400 cpu:              16.6 elap:               1.1
 (Enter /opt/ohpc/pub/libs/gaussian/g16-A.03/sandybridge/g16/l101.exe)
 -----
 H6 C5
 -----
 Symbolic Z-matrix:
 Charge =  1 Multiplicity = 2
 C                     0.        0.8788   -0.93154 
 C                     0.        1.12816   0.42346 
 C                     0.        0.        1.24088 
 C                     0.       -1.12816   0.42346 
 C                     0.       -0.8788   -0.93154 
 H                     0.        0.       -1.73227 
 H                     0.        1.6083   -1.73405 
 H                     0.        2.15663   0.76567 
 H                     0.        0.        2.32078 
 H                     0.       -2.15663   0.76567 
 H                     0.       -1.6083   -1.73405 
 
 ITRead=  0  0  0  0  0  0  0  0  0  0  0
 MicOpt= -1 -1 -1 -1 -1 -1 -1 -1 -1 -1 -1
 NAtoms=     11 NQM=       11 NQMF=       0 NMMI=      0 NMMIF=      0
                NMic=       0 NMicF=      0.
                    Isotopes and Nuclear Properties:
 (Nuclear quadrupole moments (NQMom) in fm**2, nuclear magnetic moments (NMagM)
  in nuclear magnetons)

  Atom         1           2           3           4           5           6           7           8           9          10
 IAtWgt=          12          12          12          12          12           1           1           1           1           1
 AtmWgt=  12.0000000  12.0000000  12.0000000  12.0000000  12.0000000   1.0078250   1.0078250   1.0078250   1.0078250   1.0078250
 NucSpn=           0           0           0           0           0           1           1           1           1           1
 AtZEff=  -0.0000000  -0.0000000  -0.0000000  -0.0000000  -0.0000000  -0.0000000  -0.0000000  -0.0000000  -0.0000000  -0.0000000
 NQMom=    0.0000000   0.0000000   0.0000000   0.0000000   0.0000000   0.0000000   0.0000000   0.0000000   0.0000000   0.0000000
 NMagM=    0.0000000   0.0000000   0.0000000   0.0000000   0.0000000   2.7928460   2.7928460   2.7928460   2.7928460   2.7928460
 AtZNuc=   6.0000000   6.0000000   6.0000000   6.0000000   6.0000000   1.0000000   1.0000000   1.0000000   1.0000000   1.0000000

  Atom        11
 IAtWgt=           1
 AtmWgt=   1.0078250
 NucSpn=           1
 AtZEff=  -0.0000000
 NQMom=    0.0000000
 NMagM=    2.7928460
 AtZNuc=   1.0000000
 Leave Link  101 at Thu Mar  5 12:52:06 2020, MaxMem=  6710886400 cpu:               3.5 elap:               0.2
 (Enter /opt/ohpc/pub/libs/gaussian/g16-A.03/sandybridge/g16/l202.exe)
                          Input orientation:                          
 ---------------------------------------------------------------------
 Center     Atomic      Atomic             Coordinates (Angstroms)
 Number     Number       Type             X           Y           Z
 ---------------------------------------------------------------------
      1          6           0        0.000000    0.878804   -0.931542
      2          6           0        0.000000    1.128157    0.423457
      3          6           0        0.000000    0.000000    1.240879
      4          6           0        0.000000   -1.128157    0.423457
      5          6           0        0.000000   -0.878804   -0.931542
      6          1           0        0.000000    0.000000   -1.732269
      7          1           0        0.000000    1.608300   -1.734053
      8          1           0        0.000000    2.156626    0.765670
      9          1           0        0.000000    0.000000    2.320778
     10          1           0        0.000000   -2.156626    0.765670
     11          1           0        0.000000   -1.608300   -1.734053
 ---------------------------------------------------------------------
                    Distance matrix (angstroms):
                    1          2          3          4          5
     1  C    0.000000
     2  C    1.377752   0.000000
     3  C    2.343440   1.393168   0.000000
     4  C    2.421552   2.256314   1.393168   0.000000
     5  C    1.757608   2.421552   2.343440   1.377752   0.000000
     6  H    1.188890   2.433083   2.973148   2.433083   1.188890
     7  H    1.084522   2.210291   3.381841   3.484687   2.613371
     8  H    2.124466   1.083909   2.208361   3.302561   3.477695
     9  H    3.368959   2.207389   1.079899   2.207389   3.368959
    10  H    3.477695   3.302561   2.208361   1.083909   2.124466
    11  H    2.613371   3.484687   3.381841   2.210291   1.084522
                    6          7          8          9         10
     6  H    0.000000
     7  H    1.608301   0.000000
     8  H    3.300111   2.559155   0.000000
     9  H    4.053047   4.362142   2.658834   0.000000
    10  H    3.300111   4.519213   4.313252   2.658834   0.000000
    11  H    1.608301   3.216600   4.519213   4.362142   2.559155
                   11
    11  H    0.000000
 Stoichiometry    C5H6(1+,2)
 Framework group  C2V[C2(HCH),SGV(C4H4)]
 Deg. of freedom    10
 Full point group                 C2V     NOp   4
 Largest Abelian subgroup         C2V     NOp   4
 Largest concise Abelian subgroup C2      NOp   2
                         Standard orientation:                         
 ---------------------------------------------------------------------
 Center     Atomic      Atomic             Coordinates (Angstroms)
 Number     Number       Type             X           Y           Z
 ---------------------------------------------------------------------
      1          6           0        0.000000    0.878804   -0.931542
      2          6           0        0.000000    1.128157    0.423457
      3          6           0        0.000000   -0.000000    1.240879
      4          6           0       -0.000000   -1.128157    0.423457
      5          6           0       -0.000000   -0.878804   -0.931542
      6          1           0       -0.000000    0.000000   -1.732269
      7          1           0        0.000000    1.608300   -1.734053
      8          1           0        0.000000    2.156626    0.765670
      9          1           0        0.000000   -0.000000    2.320778
     10          1           0       -0.000000   -2.156626    0.765670
     11          1           0       -0.000000   -1.608300   -1.734053
 ---------------------------------------------------------------------
 Rotational constants (GHZ):           8.5259551           7.9375455           4.1106177
 Leave Link  202 at Thu Mar  5 12:52:06 2020, MaxMem=  6710886400 cpu:               0.7 elap:               0.1
 (Enter /opt/ohpc/pub/libs/gaussian/g16-A.03/sandybridge/g16/l301.exe)
 Standard basis: 6-31G (6D, 7F)
 Ernie: Thresh=  0.10000D-02 Tol=  0.10000D-05 Strict=F.
 There are    27 symmetry adapted cartesian basis functions of A1  symmetry.
 There are     4 symmetry adapted cartesian basis functions of A2  symmetry.
 There are     6 symmetry adapted cartesian basis functions of B1  symmetry.
 There are    20 symmetry adapted cartesian basis functions of B2  symmetry.
 There are    27 symmetry adapted basis functions of A1  symmetry.
 There are     4 symmetry adapted basis functions of A2  symmetry.
 There are     6 symmetry adapted basis functions of B1  symmetry.
 There are    20 symmetry adapted basis functions of B2  symmetry.
    57 basis functions,   134 primitive gaussians,    57 cartesian basis functions
    18 alpha electrons       17 beta electrons
       nuclear repulsion energy       156.0127424860 Hartrees.
 IExCor=33909 DFT=T Ex+Corr=LC-wHPBE ExCW=0 ScaHFX=  1.000000
 ScaDFX=  1.000000  1.000000  1.000000  1.000000 ScalE2=  1.000000  1.000000
 IRadAn=      5 IRanWt=     -1 IRanGd=            0 ICorTp=0 IEmpDi=  4
 HFx  wShort=  0.000000 wLong=  0.400000 cFull=  0.000000 cShort=  0.000000 cLong=  0.716900
 DFx  wShort=  0.000000 wLong=  0.400000 cFull=  0.000000 cShort=  1.000000 cLong=  0.716900
 NAtoms=   11 NActive=   11 NUniq=    7 SFac= 2.47D+00 NAtFMM=   60 NAOKFM=F Big=F
 Integral buffers will be    131072 words long.
 Raffenetti 2 integral format.
 Two-electron integral symmetry is turned on.
 Leave Link  301 at Thu Mar  5 12:52:06 2020, MaxMem=  6710886400 cpu:               0.9 elap:               0.1
 (Enter /opt/ohpc/pub/libs/gaussian/g16-A.03/sandybridge/g16/l302.exe)
 NPDir=0 NMtPBC=     1 NCelOv=     1 NCel=       1 NClECP=     1 NCelD=      1
         NCelK=      1 NCelE2=     1 NClLst=     1 CellRange=     0.0.
 One-electron integrals computed using PRISM.
 One-electron integral symmetry used in STVInt
 NBasis=    57 RedAO= T EigKep=  1.84D-03  NBF=    27     4     6    20
 NBsUse=    57 1.00D-06 EigRej= -1.00D+00 NBFU=    27     4     6    20
 Precomputing XC quadrature grid using
 IXCGrd= 4 IRadAn=           5 IRanWt=          -1 IRanGd=           0 AccXCQ= 0.00D+00.
 Generated NRdTot=       0 NPtTot=           0 NUsed=           0 NTot=          32
 NSgBfM=    57    57    57    57    57 MxSgAt=    11 MxSgA2=    11.
 Leave Link  302 at Thu Mar  5 12:52:07 2020, MaxMem=  6710886400 cpu:               2.0 elap:               0.1
 (Enter /opt/ohpc/pub/libs/gaussian/g16-A.03/sandybridge/g16/l303.exe)
 DipDrv:  MaxL=1.
 Leave Link  303 at Thu Mar  5 12:52:07 2020, MaxMem=  6710886400 cpu:               0.3 elap:               0.0
 (Enter /opt/ohpc/pub/libs/gaussian/g16-A.03/sandybridge/g16/l401.exe)
 ExpMin= 1.61D-01 ExpMax= 3.05D+03 ExpMxC= 4.57D+02 IAcc=3 IRadAn=         5 AccDes= 0.00D+00
 Harris functional with IExCor=33909 and IRadAn=       5 diagonalized for initial guess.
 HarFok:  IExCor=33909 AccDes= 0.00D+00 IRadAn=         5 IDoV= 1 UseB2=F ITyADJ=14
 ICtDFT=  3500011 ScaDFX=  1.000000  1.000000  1.000000  1.000000
 FoFCou: FMM=F IPFlag=           0 FMFlag=      100000 FMFlg1=           0
         NFxFlg=           0 DoJE=T BraDBF=F KetDBF=T FulRan=T
         wScrn=  0.000000 ICntrl=       500 IOpCl=  0 I1Cent=   200000004 NGrid=           0
         NMat0=    1 NMatS0=      1 NMatT0=    0 NMatD0=    1 NMtDS0=    0 NMtDT0=    0
 Petite list used in FoFCou.
 Harris En= -191.553938424273    
 JPrj=0 DoOrth=F DoCkMO=F.
 Initial guess orbital symmetries:
 Alpha Orbitals:
       Occupied  (A1) (B2) (A1) (B2) (A1) (A1) (A1) (B2) (A1) (B2)
                 (A1) (B2) (A1) (B2) (A1) (B1) (A2) (B1)
       Virtual   (A2) (B2) (B1) (A1) (A1) (B2) (A1) (B2) (A1) (B2)
                 (A1) (B2) (A1) (B2) (B1) (A1) (A2) (B1) (B2) (A1)
                 (A1) (A2) (B1) (B2) (B2) (A1) (B2) (A1) (A1) (B2)
                 (A1) (A1) (A1) (B2) (A1) (B2) (A1) (A1) (B2)
 Beta  Orbitals:
       Occupied  (A1) (B2) (A1) (B2) (A1) (A1) (A1) (B2) (A1) (B2)
                 (A1) (B2) (A1) (B2) (A1) (B1) (A2)
       Virtual   (B1) (A2) (B2) (B1) (A1) (A1) (B2) (A1) (B2) (A1)
                 (B2) (A1) (B2) (A1) (B2) (B1) (A1) (A2) (B1) (B2)
                 (A1) (A1) (A2) (B1) (B2) (B2) (A1) (B2) (A1) (A1)
                 (B2) (A1) (A1) (A1) (B2) (A1) (B2) (A1) (A1) (B2)
 The electronic state of the initial guess is 2-B1.
 Initial guess <Sx>= 0.0000 <Sy>= 0.0000 <Sz>= 0.5000 <S**2>= 0.7500 S= 0.5000
 Leave Link  401 at Thu Mar  5 12:52:07 2020, MaxMem=  6710886400 cpu:               3.0 elap:               0.2
 (Enter /opt/ohpc/pub/libs/gaussian/g16-A.03/sandybridge/g16/l502.exe)
 Keep R1 and R2 ints in memory in symmetry-blocked form, NReq=16815681.
 FoFCou: FMM=F IPFlag=           0 FMFlag=           0 FMFlg1=           0
         NFxFlg=           0 DoJE=F BraDBF=F KetDBF=F FulRan=T
         wScrn=  0.000000 ICntrl=       600 IOpCl=  0 I1Cent=           0 NGrid=           0
         NMat0=    1 NMatS0=   1653 NMatT0=    0 NMatD0=    1 NMtDS0=    0 NMtDT0=    0
 Petite list used in FoFCou.
 UHF open shell SCF:
 Using DIIS extrapolation, IDIIS=    10.
 NGot=  6710886400 LenX=  6710059561 LenY=  6710055871
 Requested convergence on RMS density matrix=1.00D-06 within  32 cycles.
 Requested convergence on MAX density matrix=1.00D-04.
 Requested convergence on             energy=1.00D-04.
 Virtual orbitals will be shifted by   0.500 hartree.
 No special actions if energy rises.
 Dynamic level shift is on during FON iterations.

 Cycle   1  Pass 1  IDiag  1:
 E= -196.360863864360    
 DIIS: error= 4.82D-02 at cycle   1 NSaved=   1.
 NSaved= 1 IEnMin= 1 EnMin= -196.360863864360     IErMin= 1 ErrMin= 4.82D-02
 ErrMax= 4.82D-02  0.00D+00 EMaxC= 1.00D+00 BMatC= 1.95D-01 BMatP= 1.95D-01
 IDIUse=1 WtCom= 1.00D+00 WtEn= 0.00D+00
 Coeff-Com:  0.100D+01
 Coeff:      0.100D+01
 Gap=     0.315 Goal=   None    Shift=    0.500
 T= 1781. Gap= 0.789 NK=0 IS=   19 IE=   57 IFin=   18
          NO(<0.9)=   0  NV(>0.1)=   0     18.00e < EF      0.00e >EF  Err=0.0D+00
 Gap=     0.192 Goal=   None    Shift=    0.500
 T= 1781. Gap= 0.696 NK=0 IS=   18 IE=   57 IFin=   17
          NO(<0.9)=   0  NV(>0.1)=   0     17.00e < EF      0.00e >EF  Err=0.0D+00
 GapD=    0.192 DampG=1.000 DampE=0.500 DampFc=0.5000 IDamp=-1.
 Damping current iteration by 5.00D-01
 RMSDP=6.98D-03 MaxDP=5.26D-02              OVMax= 1.07D-01

 Cycle   2  Pass 1  IDiag  1:
 E= -196.398815300179     Delta-E=       -0.037951435819 Rises=F Damp=T
 DIIS: error= 2.22D-02 at cycle   2 NSaved=   2.
 NSaved= 2 IEnMin= 2 EnMin= -196.398815300179     IErMin= 2 ErrMin= 2.22D-02
 ErrMax= 2.22D-02  0.00D+00 EMaxC= 1.00D+00 BMatC= 3.19D-02 BMatP= 1.95D-01
 IDIUse=1 WtCom= 1.00D+00 WtEn= 0.00D+00
 Coeff-Com: -0.507D+00 0.151D+01
 Coeff:     -0.507D+00 0.151D+01
 Gap=     0.387 Goal=   None    Shift=    0.500
 T= 1662. Gap= 0.872 NK=4 IS=   19 IE=   23 IFin=   18
          NO(<0.9)=   0  NV(>0.1)=   0     18.00e < EF      0.00e >EF  Err=0.0D+00
 Gap=     0.221 Goal=   None    Shift=    0.500
 T= 1662. Gap= 0.719 NK=4 IS=   18 IE=   23 IFin=   17
          NO(<0.9)=   0  NV(>0.1)=   0     17.00e < EF      0.00e >EF  Err=0.0D+00
 GapD=    0.221 DampG=1.000 DampE=0.500 DampFc=0.5000 IDamp=-1.
 Damping current iteration by 5.00D-01
 RMSDP=4.12D-03 MaxDP=3.18D-02 DE=-3.80D-02 OVMax= 1.68D-02

 Cycle   3  Pass 1  IDiag  1:
 E= -196.411793977977     Delta-E=       -0.012978677798 Rises=F Damp=T
 DIIS: error= 1.22D-02 at cycle   3 NSaved=   3.
 NSaved= 3 IEnMin= 3 EnMin= -196.411793977977     IErMin= 3 ErrMin= 1.22D-02
 ErrMax= 1.22D-02  0.00D+00 EMaxC= 1.00D+00 BMatC= 7.08D-03 BMatP= 3.19D-02
 IDIUse=1 WtCom= 1.00D+00 WtEn= 0.00D+00
 Coeff-Com:  0.316D+00-0.174D+01 0.242D+01
 Coeff:      0.316D+00-0.174D+01 0.242D+01
 Gap=     0.375 Goal=   None    Shift=    0.500
 T= 1445. Gap= 0.876 NK=0 IS=   19 IE=   57 IFin=   18
          NO(<0.9)=   0  NV(>0.1)=   0     18.00e < EF      0.00e >EF  Err=0.0D+00
 Gap=     0.225 Goal=   None    Shift=    0.500
 T= 1445. Gap= 0.725 NK=0 IS=   18 IE=   57 IFin=   17
          NO(<0.9)=   0  NV(>0.1)=   0     17.00e < EF      0.00e >EF  Err=0.0D+00
 GapD=    0.225 DampG=1.000 DampE=0.500 DampFc=0.5000 IDamp=-1.
 Damping current iteration by 5.00D-01
 RMSDP=2.22D-03 MaxDP=1.81D-02 DE=-1.30D-02 OVMax= 1.50D-02

 Cycle   4  Pass 1  IDiag  1:
 E= -196.417862393157     Delta-E=       -0.006068415180 Rises=F Damp=T
 DIIS: error= 7.64D-03 at cycle   4 NSaved=   4.
 NSaved= 4 IEnMin= 4 EnMin= -196.417862393157     IErMin= 4 ErrMin= 7.64D-03
 ErrMax= 7.64D-03  0.00D+00 EMaxC= 1.00D+00 BMatC= 2.45D-03 BMatP= 7.08D-03
 IDIUse=1 WtCom= 1.00D+00 WtEn= 0.00D+00
 Coeff-Com:  0.345D-01 0.621D+00-0.331D+01 0.365D+01
 Coeff:      0.345D-01 0.621D+00-0.331D+01 0.365D+01
 Gap=     0.380 Goal=   None    Shift=    0.500
 T= 1040. Gap= 0.880 NK=0 IS=   19 IE=   57 IFin=   18
          NO(<0.9)=   0  NV(>0.1)=   0     18.00e < EF      0.00e >EF  Err=0.0D+00
 Gap=     0.229 Goal=   None    Shift=    0.500
 T= 1040. Gap= 0.729 NK=0 IS=   18 IE=   57 IFin=   17
          NO(<0.9)=   0  NV(>0.1)=   0     17.00e < EF      0.00e >EF  Err=0.0D+00
 GapD=    0.229 DampG=1.000 DampE=1.000 DampFc=1.0000 IDamp=-1.
 RMSDP=1.39D-03 MaxDP=1.47D-02 DE=-6.07D-03 OVMax= 1.38D-02

 Cycle   5  Pass 1  IDiag  1:
 E= -196.424855457137     Delta-E=       -0.006993063980 Rises=F Damp=F
 DIIS: error= 3.57D-03 at cycle   5 NSaved=   5.
 NSaved= 5 IEnMin= 5 EnMin= -196.424855457137     IErMin= 5 ErrMin= 3.57D-03
 ErrMax= 3.57D-03  0.00D+00 EMaxC= 1.00D+00 BMatC= 4.02D-04 BMatP= 2.45D-03
 IDIUse=1 WtCom= 1.00D+00 WtEn= 0.00D+00
 Coeff-Com: -0.169D+00 0.877D+00-0.810D+00-0.761D+00 0.186D+01
 Coeff:     -0.169D+00 0.877D+00-0.810D+00-0.761D+00 0.186D+01
 Gap=     0.382 Goal=   None    Shift=    0.500
 T=  689. Gap= 0.882 NK=0 IS=   19 IE=   57 IFin=   18
          NO(<0.9)=   0  NV(>0.1)=   0     18.00e < EF      0.00e >EF  Err=0.0D+00
 Gap=     0.233 Goal=   None    Shift=    0.500
 T=  689. Gap= 0.733 NK=0 IS=   18 IE=   57 IFin=   17
          NO(<0.9)=   0  NV(>0.1)=   0     17.00e < EF      0.00e >EF  Err=0.0D+00
 GapD=    0.233 DampG=1.000 DampE=1.000 DampFc=1.0000 IDamp=-1.
 RMSDP=4.08D-04 MaxDP=6.51D-03 DE=-6.99D-03 OVMax= 1.34D-02

 Cycle   6  Pass 1  IDiag  1:
 E= -196.425415934249     Delta-E=       -0.000560477113 Rises=F Damp=F
 DIIS: error= 2.89D-03 at cycle   6 NSaved=   6.
 NSaved= 6 IEnMin= 6 EnMin= -196.425415934249     IErMin= 6 ErrMin= 2.89D-03
 ErrMax= 2.89D-03  0.00D+00 EMaxC= 1.00D+00 BMatC= 1.84D-04 BMatP= 4.02D-04
 IDIUse=1 WtCom= 1.00D+00 WtEn= 0.00D+00
 Coeff-Com: -0.104D-01-0.201D+00 0.727D+00-0.568D+00-0.159D+01 0.264D+01
 Coeff:     -0.104D-01-0.201D+00 0.727D+00-0.568D+00-0.159D+01 0.264D+01
 Gap=     0.384 Goal=   None    Shift=    0.500
 T=  384. Gap= 0.885 NK=0 IS=   19 IE=   57 IFin=   18
          NO(<0.9)=   0  NV(>0.1)=   0     18.00e < EF      0.00e >EF  Err=0.0D+00
 Gap=     0.235 Goal=   None    Shift=    0.500
 T=  384. Gap= 0.735 NK=0 IS=   18 IE=   57 IFin=   17
          NO(<0.9)=   0  NV(>0.1)=   0     17.00e < EF      0.00e >EF  Err=0.0D+00
 GapD=    0.235 DampG=1.000 DampE=1.000 DampFc=1.0000 IDamp=-1.
 RMSDP=3.24D-04 MaxDP=5.32D-03 DE=-5.60D-04 OVMax= 1.22D-02

 Cycle   7  Pass 1  IDiag  1:
 E= -196.425737732696     Delta-E=       -0.000321798447 Rises=F Damp=F
 DIIS: error= 2.14D-03 at cycle   7 NSaved=   7.
 NSaved= 7 IEnMin= 7 EnMin= -196.425737732696     IErMin= 7 ErrMin= 2.14D-03
 ErrMax= 2.14D-03  0.00D+00 EMaxC= 1.00D+00 BMatC= 8.38D-05 BMatP= 1.84D-04
 IDIUse=1 WtCom= 1.00D+00 WtEn= 0.00D+00
 Coeff-Com:  0.189D-01-0.114D+00 0.328D-01 0.258D+00-0.539D+00-0.733D+00
 Coeff-Com:  0.208D+01
 Coeff:      0.189D-01-0.114D+00 0.328D-01 0.258D+00-0.539D+00-0.733D+00
 Coeff:      0.208D+01
 Gap=     0.385 Goal=   None    Shift=    0.500
 T=   87. Gap= 0.885 NK=0 IS=   19 IE=   57 IFin=   18
          NO(<0.9)=   0  NV(>0.1)=   0     18.00e < EF      0.00e >EF  Err=0.0D+00
 Gap=     0.236 Goal=   None    Shift=    0.500
 T=   87. Gap= 0.736 NK=0 IS=   18 IE=   57 IFin=   17
          NO(<0.9)=   0  NV(>0.1)=   0     17.00e < EF      0.00e >EF  Err=0.0D+00
 GapD=    0.236 DampG=1.000 DampE=1.000 DampFc=1.0000 IDamp=-1.
 RMSDP=2.19D-04 MaxDP=3.20D-03 DE=-3.22D-04 OVMax= 9.11D-03

 Cycle   8  Pass 1  IDiag  1:
 E= -196.425884497768     Delta-E=       -0.000146765072 Rises=F Damp=F
 DIIS: error= 1.56D-03 at cycle   8 NSaved=   8.
 NSaved= 8 IEnMin= 8 EnMin= -196.425884497768     IErMin= 8 ErrMin= 1.56D-03
 ErrMax= 1.56D-03  0.00D+00 EMaxC= 1.00D+00 BMatC= 4.16D-05 BMatP= 8.38D-05
 IDIUse=1 WtCom= 1.00D+00 WtEn= 0.00D+00
 Coeff-Com: -0.621D-03 0.203D+00-0.677D+00 0.533D+00 0.120D+01-0.255D+01
 Coeff-Com: -0.180D+00 0.247D+01
 Coeff:     -0.621D-03 0.203D+00-0.677D+00 0.533D+00 0.120D+01-0.255D+01
 Coeff:     -0.180D+00 0.247D+01
 Gap=     0.386 Goal=   None    Shift=    0.500
 Gap=     0.237 Goal=   None    Shift=    0.500
 GapD=    0.237 DampG=1.000 DampE=1.000 DampFc=1.0000 IDamp=-1.
 RMSDP=1.81D-04 MaxDP=2.61D-03 DE=-1.47D-04 OVMax= 8.00D-03

 Cycle   9  Pass 1  IDiag  1:
 E= -196.425964348600     Delta-E=       -0.000079850832 Rises=F Damp=F
 DIIS: error= 1.08D-03 at cycle   9 NSaved=   9.
 NSaved= 9 IEnMin= 9 EnMin= -196.425964348600     IErMin= 9 ErrMin= 1.08D-03
 ErrMax= 1.08D-03  0.00D+00 EMaxC= 1.00D+00 BMatC= 1.85D-05 BMatP= 4.16D-05
 IDIUse=1 WtCom= 1.00D+00 WtEn= 0.00D+00
 Coeff-Com: -0.106D-01-0.703D-01 0.430D+00-0.502D+00-0.358D+00 0.178D+01
 Coeff-Com: -0.891D+00-0.352D+01 0.414D+01
 Coeff:     -0.106D-01-0.703D-01 0.430D+00-0.502D+00-0.358D+00 0.178D+01
 Coeff:     -0.891D+00-0.352D+01 0.414D+01
 Gap=     0.386 Goal=   None    Shift=    0.500
 Gap=     0.237 Goal=   None    Shift=    0.500
 GapD=    0.237 DampG=1.000 DampE=1.000 DampFc=1.0000 IDamp=-1.
 RMSDP=1.40D-04 MaxDP=2.07D-03 DE=-7.99D-05 OVMax= 6.65D-03

 Cycle  10  Pass 1  IDiag  1:
 E= -196.426003660213     Delta-E=       -0.000039311612 Rises=F Damp=F
 DIIS: error= 6.64D-04 at cycle  10 NSaved=  10.
 NSaved=10 IEnMin=10 EnMin= -196.426003660213     IErMin=10 ErrMin= 6.64D-04
 ErrMax= 6.64D-04  0.00D+00 EMaxC= 1.00D+00 BMatC= 7.28D-06 BMatP= 1.85D-05
 IDIUse=1 WtCom= 1.00D+00 WtEn= 0.00D+00
 Coeff-Com:  0.261D-02-0.965D-03-0.230D-01 0.324D-01 0.122D-01-0.106D+00
 Coeff-Com:  0.203D+00 0.122D+00-0.185D+01 0.261D+01
 Coeff:      0.261D-02-0.965D-03-0.230D-01 0.324D-01 0.122D-01-0.106D+00
 Coeff:      0.203D+00 0.122D+00-0.185D+01 0.261D+01
 Gap=     0.386 Goal=   None    Shift=    0.500
 Gap=     0.237 Goal=   None    Shift=    0.500
 RMSDP=8.25D-05 MaxDP=1.25D-03 DE=-3.93D-05 OVMax= 4.12D-03

 Cycle  11  Pass 1  IDiag  1:
 E= -196.426018129381     Delta-E=       -0.000014469168 Rises=F Damp=F
 DIIS: error= 4.13D-04 at cycle  11 NSaved=  11.
 NSaved=11 IEnMin=11 EnMin= -196.426018129381     IErMin=11 ErrMin= 4.13D-04
 ErrMax= 4.13D-04  0.00D+00 EMaxC= 1.00D+00 BMatC= 3.03D-06 BMatP= 7.28D-06
 IDIUse=1 WtCom= 1.00D+00 WtEn= 0.00D+00
 Coeff-Com: -0.217D-02 0.421D-02 0.261D-01-0.526D-01 0.530D-01 0.953D-01
 Coeff-Com: -0.249D+00-0.356D+00 0.232D+01-0.544D+01 0.460D+01
 Coeff:     -0.217D-02 0.421D-02 0.261D-01-0.526D-01 0.530D-01 0.953D-01
 Coeff:     -0.249D+00-0.356D+00 0.232D+01-0.544D+01 0.460D+01
 Gap=     0.386 Goal=   None    Shift=    0.500
 Gap=     0.237 Goal=   None    Shift=    0.500
 RMSDP=5.43D-05 MaxDP=7.90D-04 DE=-1.45D-05 OVMax= 2.77D-03

 Cycle  12  Pass 1  IDiag  1:
 E= -196.426024064222     Delta-E=       -0.000005934841 Rises=F Damp=F
 DIIS: error= 2.46D-04 at cycle  12 NSaved=  12.
 NSaved=12 IEnMin=12 EnMin= -196.426024064222     IErMin=12 ErrMin= 2.46D-04
 ErrMax= 2.46D-04  0.00D+00 EMaxC= 1.00D+00 BMatC= 1.12D-06 BMatP= 3.03D-06
 IDIUse=1 WtCom= 1.00D+00 WtEn= 0.00D+00
 Coeff-Com: -0.154D-02-0.126D-01 0.731D-01-0.845D-01-0.538D-01 0.274D+00
 Coeff-Com: -0.736D-01-0.646D+00 0.693D+00 0.392D+00-0.242D+01 0.286D+01
 Coeff:     -0.154D-02-0.126D-01 0.731D-01-0.845D-01-0.538D-01 0.274D+00
 Coeff:     -0.736D-01-0.646D+00 0.693D+00 0.392D+00-0.242D+01 0.286D+01
 Gap=     0.386 Goal=   None    Shift=    0.500
 Gap=     0.237 Goal=   None    Shift=    0.500
 RMSDP=3.28D-05 MaxDP=4.66D-04 DE=-5.93D-06 OVMax= 1.68D-03

 Cycle  13  Pass 1  IDiag  1:
 E= -196.426026211681     Delta-E=       -0.000002147458 Rises=F Damp=F
 DIIS: error= 1.45D-04 at cycle  13 NSaved=  13.
 NSaved=13 IEnMin=13 EnMin= -196.426026211681     IErMin=13 ErrMin= 1.45D-04
 ErrMax= 1.45D-04  0.00D+00 EMaxC= 1.00D+00 BMatC= 4.00D-07 BMatP= 1.12D-06
 IDIUse=1 WtCom= 1.00D+00 WtEn= 0.00D+00
 Coeff-Com:  0.997D-03 0.490D-02-0.293D-01 0.323D-01 0.363D-01-0.115D+00
 Coeff-Com: -0.400D-03 0.272D+00-0.105D+00-0.856D+00 0.240D+01-0.467D+01
 Coeff-Com:  0.403D+01
 Coeff:      0.997D-03 0.490D-02-0.293D-01 0.323D-01 0.363D-01-0.115D+00
 Coeff:     -0.400D-03 0.272D+00-0.105D+00-0.856D+00 0.240D+01-0.467D+01
 Coeff:      0.403D+01
 Gap=     0.386 Goal=   None    Shift=    0.500
 Gap=     0.237 Goal=   None    Shift=    0.500
 RMSDP=2.00D-05 MaxDP=2.91D-04 DE=-2.15D-06 OVMax= 1.04D-03

 Cycle  14  Pass 1  IDiag  1:
 E= -196.426026989104     Delta-E=       -0.000000777423 Rises=F Damp=F
 DIIS: error= 8.30D-05 at cycle  14 NSaved=  14.
 NSaved=14 IEnMin=14 EnMin= -196.426026989104     IErMin=14 ErrMin= 8.30D-05
 ErrMax= 8.30D-05  0.00D+00 EMaxC= 1.00D+00 BMatC= 1.45D-07 BMatP= 4.00D-07
 IDIUse=1 WtCom= 1.00D+00 WtEn= 0.00D+00
 Coeff-Com: -0.338D-03-0.122D-02 0.128D-01-0.179D-01 0.175D-04 0.352D-01
 Coeff-Com: -0.609D-02-0.127D+00 0.308D+00-0.475D+00 0.235D-01 0.136D+01
 Coeff-Com: -0.340D+01 0.329D+01
 Coeff:     -0.338D-03-0.122D-02 0.128D-01-0.179D-01 0.175D-04 0.352D-01
 Coeff:     -0.609D-02-0.127D+00 0.308D+00-0.475D+00 0.235D-01 0.136D+01
 Coeff:     -0.340D+01 0.329D+01
 Gap=     0.386 Goal=   None    Shift=    0.500
 Gap=     0.237 Goal=   None    Shift=    0.500
 RMSDP=1.19D-05 MaxDP=1.73D-04 DE=-7.77D-07 OVMax= 6.27D-04

 Cycle  15  Pass 1  IDiag  1:
 E= -196.426027261285     Delta-E=       -0.000000272182 Rises=F Damp=F
 DIIS: error= 4.70D-05 at cycle  15 NSaved=  15.
 NSaved=15 IEnMin=15 EnMin= -196.426027261285     IErMin=15 ErrMin= 4.70D-05
 ErrMax= 4.70D-05  0.00D+00 EMaxC= 1.00D+00 BMatC= 5.02D-08 BMatP= 1.45D-07
 IDIUse=1 WtCom= 1.00D+00 WtEn= 0.00D+00
 Coeff-Com:  0.201D-03 0.161D-04-0.419D-02 0.687D-02-0.211D-02-0.975D-02
 Coeff-Com:  0.754D-02 0.447D-01-0.142D+00 0.274D+00-0.185D+00-0.568D+00
 Coeff-Com:  0.214D+01-0.440D+01 0.384D+01
 Coeff:      0.201D-03 0.161D-04-0.419D-02 0.687D-02-0.211D-02-0.975D-02
 Coeff:      0.754D-02 0.447D-01-0.142D+00 0.274D+00-0.185D+00-0.568D+00
 Coeff:      0.214D+01-0.440D+01 0.384D+01
 Gap=     0.386 Goal=   None    Shift=    0.500
 Gap=     0.237 Goal=   None    Shift=    0.500
 RMSDP=6.95D-06 MaxDP=9.98D-05 DE=-2.72D-07 OVMax= 3.68D-04

 Cycle  16  Pass 1  IDiag  1:
 E= -196.426027352745     Delta-E=       -0.000000091459 Rises=F Damp=F
 DIIS: error= 2.60D-05 at cycle  16 NSaved=  16.
 NSaved=16 IEnMin=16 EnMin= -196.426027352745     IErMin=16 ErrMin= 2.60D-05
 ErrMax= 2.60D-05  0.00D+00 EMaxC= 1.00D+00 BMatC= 1.77D-08 BMatP= 5.02D-08
 IDIUse=1 WtCom= 1.00D+00 WtEn= 0.00D+00
 Coeff-Com:  0.488D-04 0.574D-03-0.159D-02 0.642D-03 0.660D-02-0.152D-01
 Coeff-Com:  0.655D-02 0.171D-01 0.235D-01-0.161D+00 0.286D+00-0.323D+00
 Coeff-Com: -0.106D+00 0.136D+01-0.347D+01 0.337D+01
 Coeff:      0.488D-04 0.574D-03-0.159D-02 0.642D-03 0.660D-02-0.152D-01
 Coeff:      0.655D-02 0.171D-01 0.235D-01-0.161D+00 0.286D+00-0.323D+00
 Coeff:     -0.106D+00 0.136D+01-0.347D+01 0.337D+01
 Gap=     0.386 Goal=   None    Shift=    0.500
 Gap=     0.237 Goal=   None    Shift=    0.500
 RMSDP=3.96D-06 MaxDP=5.55D-05 DE=-9.15D-08 OVMax= 2.10D-04

 Cycle  17  Pass 1  IDiag  1:
 E= -196.426027382640     Delta-E=       -0.000000029895 Rises=F Damp=F
 DIIS: error= 1.42D-05 at cycle  17 NSaved=  17.
 NSaved=17 IEnMin=17 EnMin= -196.426027382640     IErMin=17 ErrMin= 1.42D-05
 ErrMax= 1.42D-05  0.00D+00 EMaxC= 1.00D+00 BMatC= 6.12D-09 BMatP= 1.77D-08
 IDIUse=1 WtCom= 1.00D+00 WtEn= 0.00D+00
 Coeff-Com:  0.193D-04-0.308D-03 0.679D-03-0.204D-03-0.261D-02 0.459D-02
 Coeff-Com:  0.137D-02-0.664D-02-0.104D-01 0.593D-01-0.109D+00 0.109D+00
 Coeff-Com:  0.962D-01-0.818D+00 0.235D+01-0.460D+01 0.393D+01
 Coeff:      0.193D-04-0.308D-03 0.679D-03-0.204D-03-0.261D-02 0.459D-02
 Coeff:      0.137D-02-0.664D-02-0.104D-01 0.593D-01-0.109D+00 0.109D+00
 Coeff:      0.962D-01-0.818D+00 0.235D+01-0.460D+01 0.393D+01
 Gap=     0.386 Goal=   None    Shift=    0.500
 Gap=     0.237 Goal=   None    Shift=    0.500
 RMSDP=2.20D-06 MaxDP=3.00D-05 DE=-2.99D-08 OVMax= 1.17D-04

 Cycle  18  Pass 1  IDiag  1:
 E= -196.426027392161     Delta-E=       -0.000000009521 Rises=F Damp=F
 DIIS: error= 7.79D-06 at cycle  18 NSaved=  18.
 NSaved=18 IEnMin=18 EnMin= -196.426027392161     IErMin=18 ErrMin= 7.79D-06
 ErrMax= 7.79D-06  0.00D+00 EMaxC= 1.00D+00 BMatC= 2.08D-09 BMatP= 6.12D-09
 IDIUse=1 WtCom= 1.00D+00 WtEn= 0.00D+00
 Coeff-Com:  0.422D-04 0.156D-03-0.127D-02 0.162D-02 0.112D-02-0.618D-02
 Coeff-Com:  0.377D-02 0.117D-01-0.223D-01 0.185D-01 0.203D-01-0.120D+00
 Coeff-Com:  0.248D+00-0.287D+00-0.139D+00 0.146D+01-0.376D+01 0.357D+01
 Coeff:      0.422D-04 0.156D-03-0.127D-02 0.162D-02 0.112D-02-0.618D-02
 Coeff:      0.377D-02 0.117D-01-0.223D-01 0.185D-01 0.203D-01-0.120D+00
 Coeff:      0.248D+00-0.287D+00-0.139D+00 0.146D+01-0.376D+01 0.357D+01
 Gap=     0.386 Goal=   None    Shift=    0.500
 Gap=     0.237 Goal=   None    Shift=    0.500
 RMSDP=1.19D-06 MaxDP=1.61D-05 DE=-9.52D-09 OVMax= 6.39D-05

 Cycle  19  Pass 1  IDiag  1:
 E= -196.426027395152     Delta-E=       -0.000000002991 Rises=F Damp=F
 DIIS: error= 4.29D-06 at cycle  19 NSaved=  19.
 NSaved=19 IEnMin=19 EnMin= -196.426027395152     IErMin=19 ErrMin= 4.29D-06
 ErrMax= 4.29D-06  0.00D+00 EMaxC= 1.00D+00 BMatC= 6.90D-10 BMatP= 2.08D-09
 IDIUse=1 WtCom= 1.00D+00 WtEn= 0.00D+00
 Coeff-Com:  0.233D-05 0.794D-04-0.202D-03 0.925D-04 0.717D-03-0.212D-02
 Coeff-Com:  0.172D-02 0.168D-02-0.108D-02-0.652D-02 0.141D-01-0.125D-01
 Coeff-Com: -0.159D-01 0.854D-01-0.115D+00-0.245D+00 0.126D+01-0.314D+01
 Coeff-Com:  0.318D+01
 Coeff:      0.233D-05 0.794D-04-0.202D-03 0.925D-04 0.717D-03-0.212D-02
 Coeff:      0.172D-02 0.168D-02-0.108D-02-0.652D-02 0.141D-01-0.125D-01
 Coeff:     -0.159D-01 0.854D-01-0.115D+00-0.245D+00 0.126D+01-0.314D+01
 Coeff:      0.318D+01
 Gap=     0.386 Goal=   None    Shift=    0.500
 Gap=     0.237 Goal=   None    Shift=    0.500
 RMSDP=6.48D-07 MaxDP=8.89D-06 DE=-2.99D-09 OVMax= 3.48D-05

 SCF Done:  E(ULC-wHPBE) =  -196.426027395     A.U. after   19 cycles
            NFock= 19  Conv=0.65D-06     -V/T= 2.0184
 <Sx>= 0.0000 <Sy>= 0.0000 <Sz>= 0.5000 <S**2>= 0.8092 S= 0.5292
 <L.S>= 0.000000000000E+00
 KE= 1.928809383485D+02 PE=-7.525112788479D+02 EE= 2.071915706182D+02
 Annihilation of the first spin contaminant:
 S**2 before annihilation     0.8092,   after     0.7520
 Leave Link  502 at Thu Mar  5 12:52:09 2020, MaxMem=  6710886400 cpu:              31.8 elap:               2.0
 (Enter /opt/ohpc/pub/libs/gaussian/g16-A.03/sandybridge/g16/l508.exe)
 QCSCF skips out because SCF is already converged.
 Leave Link  508 at Thu Mar  5 12:52:09 2020, MaxMem=  6710886400 cpu:               0.1 elap:               0.0
 (Enter /opt/ohpc/pub/libs/gaussian/g16-A.03/sandybridge/g16/l601.exe)
 Copying SCF densities to generalized density rwf, IOpCl= 1 IROHF=0.

 **********************************************************************

            Population analysis using the SCF density.

 **********************************************************************

 Orbital symmetries:
 Alpha Orbitals:
       Occupied  (B2) (A1) (A1) (B2) (A1) (A1) (A1) (B2) (A1) (B2)
                 (A1) (B2) (A1) (A1) (B1) (B2) (A2) (B1)
       Virtual   (A2) (B2) (B1) (A1) (A1) (B2) (A1) (B2) (A1) (A1)
                 (B2) (A1) (B2) (B1) (B2) (B1) (A2) (A1) (A1) (B2)
                 (A1) (A2) (B1) (B2) (B2) (A1) (A1) (A1) (B2) (A1)
                 (B2) (A1) (A1) (B2) (A1) (B2) (A1) (A1) (B2)
 Beta  Orbitals:
       Occupied  (B2) (A1) (A1) (B2) (A1) (A1) (A1) (B2) (A1) (B2)
                 (A1) (B2) (A1) (A1) (B2) (B1) (A2)
       Virtual   (B1) (B2) (A2) (A1) (B1) (A1) (B2) (A1) (B2) (A1)
                 (A1) (B2) (A1) (B2) (B2) (B1) (A2) (A1) (B1) (A1)
                 (B2) (A1) (A2) (B1) (B2) (B2) (A1) (A1) (B2) (A1)
                 (B2) (A1) (A1) (A1) (B2) (A1) (B2) (A1) (A1) (B2)
 The electronic state is 2-B1.
 Alpha  occ. eigenvalues --  -10.43209 -10.43206 -10.38235 -10.37347 -10.37346
 Alpha  occ. eigenvalues --   -1.29936  -1.17051  -1.12119  -0.98418  -0.96116
 Alpha  occ. eigenvalues --   -0.91465  -0.81650  -0.79473  -0.78310  -0.77184
 Alpha  occ. eigenvalues --   -0.75969  -0.62457  -0.61426
 Alpha virt. eigenvalues --   -0.22842  -0.22366  -0.16001  -0.15368  -0.08910
 Alpha virt. eigenvalues --   -0.04141  -0.02190   0.00233   0.00238   0.10992
 Alpha virt. eigenvalues --    0.11339   0.21550   0.21962   0.30087   0.31006
 Alpha virt. eigenvalues --    0.37742   0.38308   0.39130   0.41094   0.41906
 Alpha virt. eigenvalues --    0.42261   0.45628   0.47112   0.54964   0.61633
 Alpha virt. eigenvalues --    0.63935   0.65058   0.67592   0.67646   0.73757
 Alpha virt. eigenvalues --    0.73872   0.78187   0.82436   0.89038   0.97110
 Alpha virt. eigenvalues --    0.98088   1.03967   1.25397   1.26928
  Beta  occ. eigenvalues --  -10.42607 -10.42601 -10.37657 -10.37657 -10.37276
  Beta  occ. eigenvalues --   -1.28654  -1.15156  -1.11872  -0.97334  -0.95380
  Beta  occ. eigenvalues --   -0.91210  -0.81369  -0.79206  -0.77749  -0.75817
  Beta  occ. eigenvalues --   -0.72738  -0.61090
  Beta virt. eigenvalues --   -0.37385  -0.20875  -0.19861  -0.15139  -0.12534
  Beta virt. eigenvalues --   -0.08504  -0.03879  -0.01983   0.00179   0.00883
  Beta virt. eigenvalues --    0.11480   0.11678   0.21970   0.22328   0.31410
  Beta virt. eigenvalues --    0.32460   0.39396   0.39687   0.40650   0.41478
  Beta virt. eigenvalues --    0.42300   0.43393   0.46213   0.48771   0.55518
  Beta virt. eigenvalues --    0.62066   0.64828   0.65531   0.67541   0.68050
  Beta virt. eigenvalues --    0.74173   0.74426   0.79006   0.83218   0.89049
  Beta virt. eigenvalues --    0.97606   0.98603   1.05148   1.26340   1.27799
          Condensed to atoms (all electrons):
               1          2          3          4          5          6
     1  C    5.370017   0.497352  -0.044015  -0.124563   0.179586   0.162004
     2  C    0.497352   4.959152   0.461737  -0.028142  -0.124563  -0.020856
     3  C   -0.044015   0.461737   4.877649   0.461737  -0.044015   0.007055
     4  C   -0.124563  -0.028142   0.461737   4.959152   0.497352  -0.020856
     5  C    0.179586  -0.124563  -0.044015   0.497352   5.370017   0.162004
     6  H    0.162004  -0.020856   0.007055  -0.020856   0.162004   0.348677
     7  H    0.335224   0.004410  -0.000287   0.003195  -0.015954  -0.009468
     8  H   -0.023657   0.360456  -0.011948   0.003855   0.000903   0.000389
     9  H    0.005022  -0.026679   0.363389  -0.026679   0.005022  -0.000042
    10  H    0.000903   0.003855  -0.011948   0.360456  -0.023657   0.000389
    11  H   -0.015954   0.003195  -0.000287   0.004410   0.335224  -0.009468
               7          8          9         10         11
     1  C    0.335224  -0.023657   0.005022   0.000903  -0.015954
     2  C    0.004410   0.360456  -0.026679   0.003855   0.003195
     3  C   -0.000287  -0.011948   0.363389  -0.011948  -0.000287
     4  C    0.003195   0.003855  -0.026679   0.360456   0.004410
     5  C   -0.015954   0.000903   0.005022  -0.023657   0.335224
     6  H   -0.009468   0.000389  -0.000042   0.000389  -0.009468
     7  H    0.342121   0.000060  -0.000052  -0.000017   0.000401
     8  H    0.000060   0.381275  -0.001224  -0.000085  -0.000017
     9  H   -0.000052  -0.001224   0.400674  -0.001224  -0.000052
    10  H   -0.000017  -0.000085  -0.001224   0.381275   0.000060
    11  H    0.000401  -0.000017  -0.000052   0.000060   0.342121
          Atomic-Atomic Spin Densities.
               1          2          3          4          5          6
     1  C    0.509847  -0.040685  -0.022929  -0.009517   0.024385  -0.004030
     2  C   -0.040685  -0.256733   0.027933  -0.000190  -0.009517   0.000342
     3  C   -0.022929   0.027933   0.720384   0.027933  -0.022929   0.000215
     4  C   -0.009517  -0.000190   0.027933  -0.256733  -0.040685   0.000342
     5  C    0.024385  -0.009517  -0.022929  -0.040685   0.509847  -0.004030
     6  H   -0.004030   0.000342   0.000215   0.000342  -0.004030  -0.015609
     7  H   -0.002844  -0.000531   0.000114  -0.000105   0.000201  -0.000151
     8  H   -0.000390   0.002060  -0.001129  -0.000129   0.000066   0.000023
     9  H   -0.000017  -0.000039  -0.001120  -0.000039  -0.000017  -0.000001
    10  H    0.000066  -0.000129  -0.001129   0.002060  -0.000390   0.000023
    11  H    0.000201  -0.000105   0.000114  -0.000531  -0.002844  -0.000151
               7          8          9         10         11
     1  C   -0.002844  -0.000390  -0.000017   0.000066   0.000201
     2  C   -0.000531   0.002060  -0.000039  -0.000129  -0.000105
     3  C    0.000114  -0.001129  -0.001120  -0.001129   0.000114
     4  C   -0.000105  -0.000129  -0.000039   0.002060  -0.000531
     5  C    0.000201   0.000066  -0.000017  -0.000390  -0.002844
     6  H   -0.000151   0.000023  -0.000001   0.000023  -0.000151
     7  H   -0.018510   0.000056   0.000004  -0.000000  -0.000074
     8  H    0.000056   0.007376   0.000010   0.000000  -0.000000
     9  H    0.000004   0.000010  -0.028421   0.000010   0.000004
    10  H   -0.000000   0.000000   0.000010   0.007376   0.000056
    11  H   -0.000074  -0.000000   0.000004   0.000056  -0.018510
 Mulliken charges and spin densities:
               1          2
     1  C   -0.341918   0.454088
     2  C   -0.089917  -0.277593
     3  C   -0.059066   0.727458
     4  C   -0.089917  -0.277593
     5  C   -0.341918   0.454088
     6  H    0.380172  -0.023028
     7  H    0.340366  -0.021840
     8  H    0.289992   0.007944
     9  H    0.281845  -0.029627
    10  H    0.289992   0.007944
    11  H    0.340366  -0.021840
 Sum of Mulliken charges =   1.00000   1.00000
 Mulliken charges and spin densities with hydrogens summed into heavy atoms:
               1          2
     1  C    0.378621   0.409220
     2  C    0.200076  -0.269650
     3  C    0.222779   0.697831
     4  C    0.200076  -0.269650
     5  C   -0.001552   0.432248
 Electronic spatial extent (au):  <R**2>=            318.0143
 Charge=              1.0000 electrons
 Dipole moment (field-independent basis, Debye):
    X=             -0.0000    Y=             -0.0000    Z=             -2.0377  Tot=              2.0377
 Quadrupole moment (field-independent basis, Debye-Ang):
   XX=            -30.9460   YY=            -17.0950   ZZ=            -12.7698
   XY=              0.0000   XZ=              0.0000   YZ=              0.0000
 Traceless Quadrupole moment (field-independent basis, Debye-Ang):
   XX=            -10.6757   YY=              3.1752   ZZ=              7.5004
   XY=              0.0000   XZ=              0.0000   YZ=              0.0000
 Octapole moment (field-independent basis, Debye-Ang**2):
  XXX=              0.0000  YYY=              0.0000  ZZZ=             -7.5636  XYY=             -0.0000
  XXY=              0.0000  XXZ=              0.6623  XZZ=              0.0000  YZZ=             -0.0000
  YYZ=             -2.7284  XYZ=             -0.0000
 Hexadecapole moment (field-independent basis, Debye-Ang**3):
 XXXX=            -30.5386 YYYY=           -141.0393 ZZZZ=           -121.9048 XXXY=             -0.0000
 XXXZ=             -0.0000 YYYX=             -0.0000 YYYZ=             -0.0000 ZZZX=              0.0000
 ZZZY=              0.0000 XXYY=            -41.5910 XXZZ=            -38.1791 YYZZ=            -41.5506
 XXYZ=              0.0000 YYXZ=             -0.0000 ZZXY=             -0.0000
 N-N= 1.560127424860D+02 E-N=-7.525112826506D+02  KE= 1.928809383485D+02
 Symmetry A1   KE= 1.114572576632D+02
 Symmetry A2   KE= 2.548495902613D+00
 Symmetry B1   KE= 3.283192696258D+00
 Symmetry B2   KE= 7.559199208643D+01
 Symmetry A1   SP=-4.839807347208D-15
 Symmetry A2   SP= 6.816162217982D-15
 Symmetry B1   SP= 1.000000000000D+00
 Symmetry B2   SP=-2.821236354342D-15
                          Isotropic Fermi Contact Couplings
        Atom                 a.u.       MegaHertz       Gauss      10(-4) cm-1
     1  C(13)              0.07198      80.92229      28.87508      26.99277
     2  C(13)             -0.04972     -55.89052     -19.94313     -18.64307
     3  C(13)              0.10764     121.00343      43.17703      40.36240
     4  C(13)             -0.04972     -55.89052     -19.94313     -18.64307
     5  C(13)              0.07198      80.92229      28.87508      26.99277
     6  H(1)              -0.00869     -38.86147     -13.86674     -12.96279
     7  H(1)              -0.00940     -42.03346     -14.99859     -14.02085
     8  H(1)               0.00317      14.17224       5.05701       4.72735
     9  H(1)              -0.01342     -59.98298     -21.40342     -20.00817
    10  H(1)               0.00317      14.17224       5.05701       4.72735
    11  H(1)              -0.00940     -42.03346     -14.99859     -14.02085
 --------------------------------------------------------
       Center         ----  Spin Dipole Couplings  ----
                      3XX-RR        3YY-RR        3ZZ-RR
 --------------------------------------------------------
     1   Atom        0.473617     -0.230672     -0.242945
     2   Atom       -0.182682      0.089530      0.093152
     3   Atom        0.695390     -0.355286     -0.340103
     4   Atom       -0.182682      0.089530      0.093152
     5   Atom        0.473617     -0.230672     -0.242945
     6   Atom       -0.007651      0.007327      0.000324
     7   Atom       -0.006474      0.006629     -0.000155
     8   Atom       -0.006286     -0.000345      0.006631
     9   Atom       -0.008470     -0.045326      0.053796
    10   Atom       -0.006286     -0.000345      0.006631
    11   Atom       -0.006474      0.006629     -0.000155
 --------------------------------------------------------
                        XY            XZ            YZ
 --------------------------------------------------------
     1   Atom       -0.000000      0.000000     -0.008059
     2   Atom       -0.000000      0.000000     -0.005521
     3   Atom       -0.000000     -0.000000      0.000000
     4   Atom       -0.000000     -0.000000      0.005521
     5   Atom        0.000000      0.000000      0.008059
     6   Atom       -0.000000      0.000000     -0.000000
     7   Atom        0.000000      0.000000     -0.034570
     8   Atom       -0.000000      0.000000     -0.005810
     9   Atom       -0.000000     -0.000000     -0.000000
    10   Atom        0.000000     -0.000000      0.005810
    11   Atom       -0.000000     -0.000000      0.034570
 --------------------------------------------------------


 ---------------------------------------------------------------------------------
              Anisotropic Spin Dipole Couplings in Principal Axis System
 ---------------------------------------------------------------------------------

       Atom             a.u.   MegaHertz   Gauss  10(-4) cm-1        Axes

              Baa    -0.2469   -33.137   -11.824   -11.053 -0.0000  0.4439  0.8961
     1 C(13)  Bbb    -0.2267   -30.418   -10.854   -10.146 -0.0000  0.8961 -0.4439
              Bcc     0.4736    63.555    22.678    21.200  1.0000  0.0000  0.0000
 
              Baa    -0.1827   -24.514    -8.747    -8.177  1.0000  0.0000  0.0000
     2 C(13)  Bbb     0.0855    11.477     4.095     3.828 -0.0000  0.8099  0.5866
              Bcc     0.0972    13.037     4.652     4.349  0.0000 -0.5866  0.8099
 
              Baa    -0.3553   -47.676   -17.012   -15.903 -0.0000  1.0000  0.0000
     3 C(13)  Bbb    -0.3401   -45.639   -16.285   -15.223  0.0000  0.0000  1.0000
              Bcc     0.6954    93.315    33.297    31.126  1.0000 -0.0000  0.0000
 
              Baa    -0.1827   -24.514    -8.747    -8.177  1.0000  0.0000  0.0000
     4 C(13)  Bbb     0.0855    11.477     4.095     3.828 -0.0000  0.8099 -0.5866
              Bcc     0.0972    13.037     4.652     4.349 -0.0000  0.5866  0.8099
 
              Baa    -0.2469   -33.137   -11.824   -11.053 -0.0000 -0.4439  0.8961
     5 C(13)  Bbb    -0.2267   -30.418   -10.854   -10.146  0.0000  0.8961  0.4439
              Bcc     0.4736    63.555    22.678    21.200  1.0000 -0.0000  0.0000
 
              Baa    -0.0077    -4.082    -1.457    -1.362  1.0000  0.0000 -0.0000
     6 H(1)   Bbb     0.0003     0.173     0.062     0.058  0.0000  0.0000  1.0000
              Bcc     0.0073     3.909     1.395     1.304 -0.0000  1.0000 -0.0000
 
              Baa    -0.0315   -16.806    -5.997    -5.606 -0.0000  0.6717  0.7408
     7 H(1)   Bbb    -0.0065    -3.454    -1.233    -1.152  1.0000  0.0000  0.0000
              Bcc     0.0380    20.261     7.230     6.758 -0.0000  0.7408 -0.6717
 
              Baa    -0.0063    -3.354    -1.197    -1.119  1.0000  0.0000  0.0000
     8 H(1)   Bbb    -0.0036    -1.939    -0.692    -0.647 -0.0000  0.8702  0.4926
              Bcc     0.0099     5.293     1.889     1.766  0.0000 -0.4926  0.8702
 
              Baa    -0.0453   -24.184    -8.629    -8.067  0.0000  1.0000 -0.0000
     9 H(1)   Bbb    -0.0085    -4.519    -1.613    -1.507  1.0000  0.0000  0.0000
              Bcc     0.0538    28.703    10.242     9.574  0.0000  0.0000  1.0000
 
              Baa    -0.0063    -3.354    -1.197    -1.119  1.0000 -0.0000  0.0000
    10 H(1)   Bbb    -0.0036    -1.939    -0.692    -0.647  0.0000  0.8702 -0.4926
              Bcc     0.0099     5.293     1.889     1.766  0.0000  0.4926  0.8702
 
              Baa    -0.0315   -16.806    -5.997    -5.606  0.0000 -0.6717  0.7408
    11 H(1)   Bbb    -0.0065    -3.454    -1.233    -1.152  1.0000  0.0000  0.0000
              Bcc     0.0380    20.261     7.230     6.758 -0.0000  0.7408  0.6717
 

 ---------------------------------------------------------------------------------

 No NMR shielding tensors so no spin-rotation constants.
 Leave Link  601 at Thu Mar  5 12:52:09 2020, MaxMem=  6710886400 cpu:               3.2 elap:               0.2
 (Enter /opt/ohpc/pub/libs/gaussian/g16-A.03/sandybridge/g16/l9999.exe)

 Test job not archived.
 1\1\GINC-CNODE212\SP\ULC-wHPBE\6-31G\C5H6(1+,2)\SMGO234\05-Mar-2020\0\
 \#P uLC-wHPBE/6-31G iop(3/130=0283100000, 3/131=0283100000, 3/119=0716
 900000, 3/120=0716900000) scf=(conver=6,fermi,ndamp=35,noincfock,novar
 acc,vshift=500,xqc)\\H6 C5\\1,2\C,0,0.,0.878804,-0.931542\C,0,0.,1.128
 157,0.423457\C,0,0.,0.,1.240879\C,0,0.,-1.128157,0.423457\C,0,0.,-0.87
 8804,-0.931542\H,0,0.,0.,-1.732269\H,0,0.,1.6083,-1.734053\H,0,0.,2.15
 6626,0.76567\H,0,0.,0.,2.320778\H,0,0.,-2.156626,0.76567\H,0,0.,-1.608
 3,-1.734053\\Version=EM64L-G16RevA.03\State=2-B1\HF=-196.4260274\S2=0.
 809164\S2-1=0.\S2A=0.751996\RMSD=6.477e-07\Dipole=0.,0.,-0.8016901\Qua
 drupole=-7.9371047,2.3607127,5.576392,0.,0.,0.\PG=C02V [C2(H1C1H1),SGV
 (C4H4)]\\@


 I (ERNEST RUTHERFORD) CAME INTO THE ROOM, WHICH WAS HALF DARK, AND PRESENTLY
 SPOTTED LORD KELVIN IN THE AUDIENCE AND REALIZED I WAS IN TROUBLE AT
 THE LAST PART OF MY SPEECH DEALING THE AGE OF THE EARTH, WHERE MY VIEWS
 CONFLICTED WITH HIS.  TO MY RELIEF KELVIN FELL FAST ASLEEP, BUT AS I CAME
 TO THE IMPORTANT POINT, I SAW THE OLD BIRD SIT UP AND COCK A BALEFUL GLANCE
 AT ME! THEN A SUDDEN INSPIRATION CAME AND I SAID LORD KELVIN HAD LIMITED
 THE AGE OF THE EARTH PROVIDED NO NEW SOURCE WAS DISCOVERED. THAT
 PROPHETIC UTTERANCE REFERS TO WHAT WE ARE NOW CONSIDERING TONIGHT, RADIUM!
 BEHOLD!  THE OLD BOY BEAMED UPON ME.
 Job cpu time:       0 days  0 hours  1 minutes  3.0 seconds.
 Elapsed time:       0 days  0 hours  0 minutes  4.3 seconds.
 File lengths (MBytes):  RWF=    272 Int=      0 D2E=      0 Chk=     32 Scr=     32
 Normal termination of Gaussian 16 at Thu Mar  5 12:52:09 2020.
