 Entering Gaussian System, Link 0=g16
 Input=a1b_tune_n4.gjf
 Output=a1b_tune_n4.log
 Initial command:
 /opt/ohpc/pub/libs/gaussian/g16-A.03/sandybridge/g16/l1.exe "/scratch/smgo234/Ocelot/test/a1b/tuning_a1b_acycle1/Gau-79672.inp" -scrdir="/scratch/smgo234/Ocelot/test/a1b/tuning_a1b_acycle1/"
 Entering Link 1 = /opt/ohpc/pub/libs/gaussian/g16-A.03/sandybridge/g16/l1.exe PID=     79673.
  
 Copyright (c) 1988,1990,1992,1993,1995,1998,2003,2009,2016,
            Gaussian, Inc.  All Rights Reserved.
  
 This is part of the Gaussian(R) 16 program.  It is based on
 the Gaussian(R) 09 system (copyright 2009, Gaussian, Inc.),
 the Gaussian(R) 03 system (copyright 2003, Gaussian, Inc.),
 the Gaussian(R) 98 system (copyright 1998, Gaussian, Inc.),
 the Gaussian(R) 94 system (copyright 1995, Gaussian, Inc.),
 the Gaussian 92(TM) system (copyright 1992, Gaussian, Inc.),
 the Gaussian 90(TM) system (copyright 1990, Gaussian, Inc.),
 the Gaussian 88(TM) system (copyright 1988, Gaussian, Inc.),
 the Gaussian 86(TM) system (copyright 1986, Carnegie Mellon
 University), and the Gaussian 82(TM) system (copyright 1983,
 Carnegie Mellon University). Gaussian is a federally registered
 trademark of Gaussian, Inc.
  
 This software contains proprietary and confidential information,
 including trade secrets, belonging to Gaussian, Inc.
  
 This software is provided under written license and may be
 used, copied, transmitted, or stored only in accord with that
 written license.
  
 The following legend is applicable only to US Government
 contracts under FAR:
  
                    RESTRICTED RIGHTS LEGEND
  
 Use, reproduction and disclosure by the US Government is
 subject to restrictions as set forth in subparagraphs (a)
 and (c) of the Commercial Computer Software - Restricted
 Rights clause in FAR 52.227-19.
  
 Gaussian, Inc.
 340 Quinnipiac St., Bldg. 40, Wallingford CT 06492
  
  
 ---------------------------------------------------------------
 Warning -- This program may not be used in any manner that
 competes with the business of Gaussian, Inc. or will provide
 assistance to any competitor of Gaussian, Inc.  The licensee
 of this program is prohibited from giving any competitor of
 Gaussian, Inc. access to this program.  By using this program,
 the user acknowledges that Gaussian, Inc. is engaged in the
 business of creating and licensing software in the field of
 computational chemistry and represents and warrants to the
 licensee that it is not a competitor of Gaussian, Inc. and that
 it will not use this program in any manner prohibited above.
 ---------------------------------------------------------------
  

 Cite this work as:
 Gaussian 16, Revision A.03,
 M. J. Frisch, G. W. Trucks, H. B. Schlegel, G. E. Scuseria, 
 M. A. Robb, J. R. Cheeseman, G. Scalmani, V. Barone, 
 G. A. Petersson, H. Nakatsuji, X. Li, M. Caricato, A. V. Marenich, 
 J. Bloino, B. G. Janesko, R. Gomperts, B. Mennucci, H. P. Hratchian, 
 J. V. Ortiz, A. F. Izmaylov, J. L. Sonnenberg, D. Williams-Young, 
 F. Ding, F. Lipparini, F. Egidi, J. Goings, B. Peng, A. Petrone, 
 T. Henderson, D. Ranasinghe, V. G. Zakrzewski, J. Gao, N. Rega, 
 G. Zheng, W. Liang, M. Hada, M. Ehara, K. Toyota, R. Fukuda, 
 J. Hasegawa, M. Ishida, T. Nakajima, Y. Honda, O. Kitao, H. Nakai, 
 T. Vreven, K. Throssell, J. A. Montgomery, Jr., J. E. Peralta, 
 F. Ogliaro, M. J. Bearpark, J. J. Heyd, E. N. Brothers, K. N. Kudin, 
 V. N. Staroverov, T. A. Keith, R. Kobayashi, J. Normand, 
 K. Raghavachari, A. P. Rendell, J. C. Burant, S. S. Iyengar, 
 J. Tomasi, M. Cossi, J. M. Millam, M. Klene, C. Adamo, R. Cammi, 
 J. W. Ochterski, R. L. Martin, K. Morokuma, O. Farkas, 
 J. B. Foresman, and D. J. Fox, Gaussian, Inc., Wallingford CT, 2016.
 
 ******************************************
 Gaussian 16:  EM64L-G16RevA.03 25-Dec-2016
                 5-Mar-2020 
 ******************************************
 %mem=50GB
 %nproc=16
 Will use up to   16 processors via shared memory.
 ----------------------------------------------------------------------
 #P uLC-wHPBE/6-31G iop(3/130=0277000000, 3/131=0277000000, 3/119=07230
 00000, 3/120=0723000000) scf=(conver=6,fermi,ndamp=35,noincfock,novara
 cc,vshift=500,xqc)
 ----------------------------------------------------------------------
 1/38=1,172=1/1;
 2/12=2,17=6,18=5,40=1/2;
 3/5=1,6=6,11=2,25=1,30=1,74=-71,116=2,119=723000000,120=723000000,130=277000000,131=277000000/1,2,3;
 4//1;
 5/5=100002,6=6,8=3,10=500,13=1,18=-1,22=13,38=1,93=35/2,8;
 6/7=2,8=2,9=2,10=2,28=1/1;
 99/5=1,9=1/99;
 Leave Link    1 at Thu Mar  5 12:52:10 2020, MaxMem=  6710886400 cpu:              15.0 elap:               1.0
 (Enter /opt/ohpc/pub/libs/gaussian/g16-A.03/sandybridge/g16/l101.exe)
 -----
 H6 C5
 -----
 Symbolic Z-matrix:
 Charge =  0 Multiplicity = 1
 C                     0.        0.8788   -0.93154 
 C                     0.        1.12816   0.42346 
 C                     0.        0.        1.24088 
 C                     0.       -1.12816   0.42346 
 C                     0.       -0.8788   -0.93154 
 H                     0.        0.       -1.73227 
 H                     0.        1.6083   -1.73405 
 H                     0.        2.15663   0.76567 
 H                     0.        0.        2.32078 
 H                     0.       -2.15663   0.76567 
 H                     0.       -1.6083   -1.73405 
 
 ITRead=  0  0  0  0  0  0  0  0  0  0  0
 MicOpt= -1 -1 -1 -1 -1 -1 -1 -1 -1 -1 -1
 NAtoms=     11 NQM=       11 NQMF=       0 NMMI=      0 NMMIF=      0
                NMic=       0 NMicF=      0.
                    Isotopes and Nuclear Properties:
 (Nuclear quadrupole moments (NQMom) in fm**2, nuclear magnetic moments (NMagM)
  in nuclear magnetons)

  Atom         1           2           3           4           5           6           7           8           9          10
 IAtWgt=          12          12          12          12          12           1           1           1           1           1
 AtmWgt=  12.0000000  12.0000000  12.0000000  12.0000000  12.0000000   1.0078250   1.0078250   1.0078250   1.0078250   1.0078250
 NucSpn=           0           0           0           0           0           1           1           1           1           1
 AtZEff=  -0.0000000  -0.0000000  -0.0000000  -0.0000000  -0.0000000  -0.0000000  -0.0000000  -0.0000000  -0.0000000  -0.0000000
 NQMom=    0.0000000   0.0000000   0.0000000   0.0000000   0.0000000   0.0000000   0.0000000   0.0000000   0.0000000   0.0000000
 NMagM=    0.0000000   0.0000000   0.0000000   0.0000000   0.0000000   2.7928460   2.7928460   2.7928460   2.7928460   2.7928460
 AtZNuc=   6.0000000   6.0000000   6.0000000   6.0000000   6.0000000   1.0000000   1.0000000   1.0000000   1.0000000   1.0000000

  Atom        11
 IAtWgt=           1
 AtmWgt=   1.0078250
 NucSpn=           1
 AtZEff=  -0.0000000
 NQMom=    0.0000000
 NMagM=    2.7928460
 AtZNuc=   1.0000000
 Leave Link  101 at Thu Mar  5 12:52:11 2020, MaxMem=  6710886400 cpu:               2.6 elap:               0.2
 (Enter /opt/ohpc/pub/libs/gaussian/g16-A.03/sandybridge/g16/l202.exe)
                          Input orientation:                          
 ---------------------------------------------------------------------
 Center     Atomic      Atomic             Coordinates (Angstroms)
 Number     Number       Type             X           Y           Z
 ---------------------------------------------------------------------
      1          6           0        0.000000    0.878804   -0.931542
      2          6           0        0.000000    1.128157    0.423457
      3          6           0        0.000000    0.000000    1.240879
      4          6           0        0.000000   -1.128157    0.423457
      5          6           0        0.000000   -0.878804   -0.931542
      6          1           0        0.000000    0.000000   -1.732269
      7          1           0        0.000000    1.608300   -1.734053
      8          1           0        0.000000    2.156626    0.765670
      9          1           0        0.000000    0.000000    2.320778
     10          1           0        0.000000   -2.156626    0.765670
     11          1           0        0.000000   -1.608300   -1.734053
 ---------------------------------------------------------------------
                    Distance matrix (angstroms):
                    1          2          3          4          5
     1  C    0.000000
     2  C    1.377752   0.000000
     3  C    2.343440   1.393168   0.000000
     4  C    2.421552   2.256314   1.393168   0.000000
     5  C    1.757608   2.421552   2.343440   1.377752   0.000000
     6  H    1.188890   2.433083   2.973148   2.433083   1.188890
     7  H    1.084522   2.210291   3.381841   3.484687   2.613371
     8  H    2.124466   1.083909   2.208361   3.302561   3.477695
     9  H    3.368959   2.207389   1.079899   2.207389   3.368959
    10  H    3.477695   3.302561   2.208361   1.083909   2.124466
    11  H    2.613371   3.484687   3.381841   2.210291   1.084522
                    6          7          8          9         10
     6  H    0.000000
     7  H    1.608301   0.000000
     8  H    3.300111   2.559155   0.000000
     9  H    4.053047   4.362142   2.658834   0.000000
    10  H    3.300111   4.519213   4.313252   2.658834   0.000000
    11  H    1.608301   3.216600   4.519213   4.362142   2.559155
                   11
    11  H    0.000000
 Stoichiometry    C5H6
 Framework group  C2V[C2(HCH),SGV(C4H4)]
 Deg. of freedom    10
 Full point group                 C2V     NOp   4
 Largest Abelian subgroup         C2V     NOp   4
 Largest concise Abelian subgroup C2      NOp   2
                         Standard orientation:                         
 ---------------------------------------------------------------------
 Center     Atomic      Atomic             Coordinates (Angstroms)
 Number     Number       Type             X           Y           Z
 ---------------------------------------------------------------------
      1          6           0        0.000000    0.878804   -0.931542
      2          6           0        0.000000    1.128157    0.423457
      3          6           0        0.000000   -0.000000    1.240879
      4          6           0       -0.000000   -1.128157    0.423457
      5          6           0       -0.000000   -0.878804   -0.931542
      6          1           0       -0.000000    0.000000   -1.732269
      7          1           0        0.000000    1.608300   -1.734053
      8          1           0        0.000000    2.156626    0.765670
      9          1           0        0.000000   -0.000000    2.320778
     10          1           0       -0.000000   -2.156626    0.765670
     11          1           0       -0.000000   -1.608300   -1.734053
 ---------------------------------------------------------------------
 Rotational constants (GHZ):           8.5259551           7.9375455           4.1106177
 Leave Link  202 at Thu Mar  5 12:52:11 2020, MaxMem=  6710886400 cpu:               0.3 elap:               0.0
 (Enter /opt/ohpc/pub/libs/gaussian/g16-A.03/sandybridge/g16/l301.exe)
 Standard basis: 6-31G (6D, 7F)
 Ernie: Thresh=  0.10000D-02 Tol=  0.10000D-05 Strict=F.
 There are    27 symmetry adapted cartesian basis functions of A1  symmetry.
 There are     4 symmetry adapted cartesian basis functions of A2  symmetry.
 There are     6 symmetry adapted cartesian basis functions of B1  symmetry.
 There are    20 symmetry adapted cartesian basis functions of B2  symmetry.
 There are    27 symmetry adapted basis functions of A1  symmetry.
 There are     4 symmetry adapted basis functions of A2  symmetry.
 There are     6 symmetry adapted basis functions of B1  symmetry.
 There are    20 symmetry adapted basis functions of B2  symmetry.
    57 basis functions,   134 primitive gaussians,    57 cartesian basis functions
    18 alpha electrons       18 beta electrons
       nuclear repulsion energy       156.0127424860 Hartrees.
 IExCor=33909 DFT=T Ex+Corr=LC-wHPBE ExCW=0 ScaHFX=  1.000000
 ScaDFX=  1.000000  1.000000  1.000000  1.000000 ScalE2=  1.000000  1.000000
 IRadAn=      5 IRanWt=     -1 IRanGd=            0 ICorTp=0 IEmpDi=  4
 HFx  wShort=  0.000000 wLong=  0.400000 cFull=  0.000000 cShort=  0.000000 cLong=  0.723000
 DFx  wShort=  0.000000 wLong=  0.400000 cFull=  0.000000 cShort=  1.000000 cLong=  0.723000
 NAtoms=   11 NActive=   11 NUniq=    7 SFac= 2.47D+00 NAtFMM=   60 NAOKFM=F Big=F
 Integral buffers will be    131072 words long.
 Raffenetti 2 integral format.
 Two-electron integral symmetry is turned on.
 Leave Link  301 at Thu Mar  5 12:52:11 2020, MaxMem=  6710886400 cpu:               0.8 elap:               0.1
 (Enter /opt/ohpc/pub/libs/gaussian/g16-A.03/sandybridge/g16/l302.exe)
 NPDir=0 NMtPBC=     1 NCelOv=     1 NCel=       1 NClECP=     1 NCelD=      1
         NCelK=      1 NCelE2=     1 NClLst=     1 CellRange=     0.0.
 One-electron integrals computed using PRISM.
 One-electron integral symmetry used in STVInt
 NBasis=    57 RedAO= T EigKep=  1.84D-03  NBF=    27     4     6    20
 NBsUse=    57 1.00D-06 EigRej= -1.00D+00 NBFU=    27     4     6    20
 Precomputing XC quadrature grid using
 IXCGrd= 4 IRadAn=           5 IRanWt=          -1 IRanGd=           0 AccXCQ= 0.00D+00.
 Generated NRdTot=       0 NPtTot=           0 NUsed=           0 NTot=          32
 NSgBfM=    57    57    57    57    57 MxSgAt=    11 MxSgA2=    11.
 Leave Link  302 at Thu Mar  5 12:52:11 2020, MaxMem=  6710886400 cpu:               1.9 elap:               0.1
 (Enter /opt/ohpc/pub/libs/gaussian/g16-A.03/sandybridge/g16/l303.exe)
 DipDrv:  MaxL=1.
 Leave Link  303 at Thu Mar  5 12:52:11 2020, MaxMem=  6710886400 cpu:               0.5 elap:               0.1
 (Enter /opt/ohpc/pub/libs/gaussian/g16-A.03/sandybridge/g16/l401.exe)
 ExpMin= 1.61D-01 ExpMax= 3.05D+03 ExpMxC= 4.57D+02 IAcc=3 IRadAn=         5 AccDes= 0.00D+00
 Harris functional with IExCor=33909 and IRadAn=       5 diagonalized for initial guess.
 HarFok:  IExCor=33909 AccDes= 0.00D+00 IRadAn=         5 IDoV= 1 UseB2=F ITyADJ=14
 ICtDFT=  3500011 ScaDFX=  1.000000  1.000000  1.000000  1.000000
 FoFCou: FMM=F IPFlag=           0 FMFlag=      100000 FMFlg1=           0
         NFxFlg=           0 DoJE=T BraDBF=F KetDBF=T FulRan=T
         wScrn=  0.000000 ICntrl=       500 IOpCl=  0 I1Cent=   200000004 NGrid=           0
         NMat0=    1 NMatS0=      1 NMatT0=    0 NMatD0=    1 NMtDS0=    0 NMtDT0=    0
 Petite list used in FoFCou.
 Harris En= -191.833782964827    
 JPrj=0 DoOrth=F DoCkMO=F.
 Initial guess orbital symmetries:
 Alpha Orbitals:
       Occupied  (A1) (B2) (A1) (B2) (A1) (A1) (A1) (B2) (A1) (B2)
                 (A1) (B2) (A1) (B2) (A1) (B1) (A2) (B1)
       Virtual   (A2) (B2) (B1) (A1) (A1) (B2) (A1) (B2) (A1) (B2)
                 (A1) (B2) (A1) (B2) (B1) (A1) (A2) (B1) (B2) (A1)
                 (A1) (A2) (B1) (B2) (B2) (A1) (B2) (A1) (A1) (B2)
                 (A1) (A1) (A1) (B2) (A1) (B2) (A1) (A1) (B2)
 Beta  Orbitals:
       Occupied  (A1) (B2) (A1) (B2) (A1) (A1) (A1) (B2) (A1) (B2)
                 (A1) (B2) (A1) (B2) (A1) (B1) (A2) (B1)
       Virtual   (A2) (B2) (B1) (A1) (A1) (B2) (A1) (B2) (A1) (B2)
                 (A1) (B2) (A1) (B2) (B1) (A1) (A2) (B1) (B2) (A1)
                 (A1) (A2) (B1) (B2) (B2) (A1) (B2) (A1) (A1) (B2)
                 (A1) (A1) (A1) (B2) (A1) (B2) (A1) (A1) (B2)
 The electronic state of the initial guess is 1-A1.
 Initial guess <Sx>= 0.0000 <Sy>= 0.0000 <Sz>= 0.0000 <S**2>= 0.0000 S= 0.0000
 Leave Link  401 at Thu Mar  5 12:52:11 2020, MaxMem=  6710886400 cpu:               3.2 elap:               0.2
 (Enter /opt/ohpc/pub/libs/gaussian/g16-A.03/sandybridge/g16/l502.exe)
 Keep R1 and R2 ints in memory in symmetry-blocked form, NReq=16815681.
 FoFCou: FMM=F IPFlag=           0 FMFlag=           0 FMFlg1=           0
         NFxFlg=           0 DoJE=F BraDBF=F KetDBF=F FulRan=T
         wScrn=  0.000000 ICntrl=       600 IOpCl=  0 I1Cent=           0 NGrid=           0
         NMat0=    1 NMatS0=   1653 NMatT0=    0 NMatD0=    1 NMtDS0=    0 NMtDT0=    0
 Petite list used in FoFCou.
 UHF open shell SCF:
 Using DIIS extrapolation, IDIIS=    10.
 NGot=  6710886400 LenX=  6710059561 LenY=  6710055871
 Requested convergence on RMS density matrix=1.00D-06 within  32 cycles.
 Requested convergence on MAX density matrix=1.00D-04.
 Requested convergence on             energy=1.00D-04.
 Virtual orbitals will be shifted by   0.500 hartree.
 No special actions if energy rises.
 Dynamic level shift is on during FON iterations.

 Cycle   1  Pass 1  IDiag  1:
 E= -196.757926750549    
 DIIS: error= 4.34D-02 at cycle   1 NSaved=   1.
 NSaved= 1 IEnMin= 1 EnMin= -196.757926750549     IErMin= 1 ErrMin= 4.34D-02
 ErrMax= 4.34D-02  0.00D+00 EMaxC= 1.00D+00 BMatC= 3.45D-01 BMatP= 3.45D-01
 IDIUse=1 WtCom= 1.00D+00 WtEn= 0.00D+00
 Coeff-Com:  0.100D+01
 Coeff:      0.100D+01
 Gap=     0.303 Goal=   None    Shift=    0.500
 T= 1718. Gap= 0.759 NK=0 IS=   19 IE=   57 IFin=   18
          NO(<0.9)=   0  NV(>0.1)=   0     18.00e < EF      0.00e >EF  Err=0.0D+00
 Gap=     0.303 Goal=   None    Shift=    0.500
 T= 1718. Gap= 0.759 NK=0 IS=   19 IE=   57 IFin=   18
          NO(<0.9)=   0  NV(>0.1)=   0     18.00e < EF      0.00e >EF  Err=0.0D+00
 GapD=    0.303 DampG=1.000 DampE=0.500 DampFc=0.5000 IDamp=-1.
 Damping current iteration by 5.00D-01
 RMSDP=7.23D-03 MaxDP=6.34D-02              OVMax= 8.32D-02

 Cycle   2  Pass 1  IDiag  1:
 E= -196.822485053889     Delta-E=       -0.064558303340 Rises=F Damp=T
 DIIS: error= 1.88D-02 at cycle   2 NSaved=   2.
 NSaved= 2 IEnMin= 2 EnMin= -196.822485053889     IErMin= 2 ErrMin= 1.88D-02
 ErrMax= 1.88D-02  0.00D+00 EMaxC= 1.00D+00 BMatC= 6.36D-02 BMatP= 3.45D-01
 IDIUse=1 WtCom= 1.00D+00 WtEn= 0.00D+00
 Coeff-Com: -0.673D+00 0.167D+01
 Coeff:     -0.673D+00 0.167D+01
 Gap=     0.362 Goal=   None    Shift=    0.500
 T= 1592. Gap= 0.849 NK=0 IS=   19 IE=   57 IFin=   18
          NO(<0.9)=   0  NV(>0.1)=   0     18.00e < EF      0.00e >EF  Err=0.0D+00
 Gap=     0.362 Goal=   None    Shift=    0.500
 T= 1592. Gap= 0.849 NK=0 IS=   19 IE=   57 IFin=   18
          NO(<0.9)=   0  NV(>0.1)=   0     18.00e < EF      0.00e >EF  Err=0.0D+00
 GapD=    0.362 DampG=1.000 DampE=0.500 DampFc=0.5000 IDamp=-1.
 Damping current iteration by 5.00D-01
 RMSDP=3.78D-03 MaxDP=2.52D-02 DE=-6.46D-02 OVMax= 9.25D-03

 Cycle   3  Pass 1  IDiag  1:
 E= -196.844925807129     Delta-E=       -0.022440753240 Rises=F Damp=T
 DIIS: error= 8.42D-03 at cycle   3 NSaved=   3.
 NSaved= 3 IEnMin= 3 EnMin= -196.844925807129     IErMin= 3 ErrMin= 8.42D-03
 ErrMax= 8.42D-03  0.00D+00 EMaxC= 1.00D+00 BMatC= 1.27D-02 BMatP= 6.36D-02
 IDIUse=1 WtCom= 1.00D+00 WtEn= 0.00D+00
 Coeff-Com:  0.141D+00-0.123D+01 0.209D+01
 Coeff:      0.141D+00-0.123D+01 0.209D+01
 Gap=     0.348 Goal=   None    Shift=    0.500
 T= 1351. Gap= 0.848 NK=0 IS=   19 IE=   57 IFin=   18
          NO(<0.9)=   0  NV(>0.1)=   0     18.00e < EF      0.00e >EF  Err=0.0D+00
 Gap=     0.348 Goal=   None    Shift=    0.500
 T= 1351. Gap= 0.848 NK=0 IS=   19 IE=   57 IFin=   18
          NO(<0.9)=   0  NV(>0.1)=   0     18.00e < EF      0.00e >EF  Err=0.0D+00
 GapD=    0.348 DampG=1.000 DampE=1.000 DampFc=1.0000 IDamp=-1.
 RMSDP=1.91D-03 MaxDP=1.24D-02 DE=-2.24D-02 OVMax= 6.78D-03

 Cycle   4  Pass 1  IDiag  1:
 E= -196.863101563386     Delta-E=       -0.018175756257 Rises=F Damp=F
 DIIS: error= 1.73D-03 at cycle   4 NSaved=   4.
 NSaved= 4 IEnMin= 4 EnMin= -196.863101563386     IErMin= 4 ErrMin= 1.73D-03
 ErrMax= 1.73D-03  0.00D+00 EMaxC= 1.00D+00 BMatC= 4.29D-04 BMatP= 1.27D-02
 IDIUse=1 WtCom= 1.00D+00 WtEn= 0.00D+00
 Coeff-Com:  0.112D+00-0.117D+00-0.202D+00 0.121D+01
 Coeff:      0.112D+00-0.117D+00-0.202D+00 0.121D+01
 Gap=     0.349 Goal=   None    Shift=    0.500
 T=  816. Gap= 0.849 NK=0 IS=   19 IE=   57 IFin=   18
          NO(<0.9)=   0  NV(>0.1)=   0     18.00e < EF      0.00e >EF  Err=0.0D+00
 Gap=     0.349 Goal=   None    Shift=    0.500
 T=  816. Gap= 0.849 NK=0 IS=   19 IE=   57 IFin=   18
          NO(<0.9)=   0  NV(>0.1)=   0     18.00e < EF      0.00e >EF  Err=0.0D+00
 GapD=    0.349 DampG=1.000 DampE=1.000 DampFc=1.0000 IDamp=-1.
 RMSDP=3.55D-04 MaxDP=2.86D-03 DE=-1.82D-02 OVMax= 2.85D-03

 Cycle   5  Pass 1  IDiag  1:
 E= -196.863270832003     Delta-E=       -0.000169268616 Rises=F Damp=F
 DIIS: error= 7.37D-04 at cycle   5 NSaved=   5.
 NSaved= 5 IEnMin= 5 EnMin= -196.863270832003     IErMin= 5 ErrMin= 7.37D-04
 ErrMax= 7.37D-04  0.00D+00 EMaxC= 1.00D+00 BMatC= 6.27D-05 BMatP= 4.29D-04
 IDIUse=1 WtCom= 1.00D+00 WtEn= 0.00D+00
 Coeff-Com: -0.421D-01 0.203D+00-0.264D+00-0.682D+00 0.178D+01
 Coeff:     -0.421D-01 0.203D+00-0.264D+00-0.682D+00 0.178D+01
 Gap=     0.349 Goal=   None    Shift=    0.500
 Gap=     0.349 Goal=   None    Shift=    0.500
 RMSDP=2.02D-04 MaxDP=1.66D-03 DE=-1.69D-04 OVMax= 2.51D-03

 Cycle   6  Pass 1  IDiag  1:
 E= -196.863314249216     Delta-E=       -0.000043417214 Rises=F Damp=F
 DIIS: error= 5.29D-04 at cycle   6 NSaved=   6.
 NSaved= 6 IEnMin= 6 EnMin= -196.863314249216     IErMin= 6 ErrMin= 5.29D-04
 ErrMax= 5.29D-04  0.00D+00 EMaxC= 1.00D+00 BMatC= 1.25D-05 BMatP= 6.27D-05
 IDIUse=1 WtCom= 1.00D+00 WtEn= 0.00D+00
 Coeff-Com: -0.146D-02-0.414D-01 0.849D-01 0.197D+00-0.164D+01 0.240D+01
 Coeff:     -0.146D-02-0.414D-01 0.849D-01 0.197D+00-0.164D+01 0.240D+01
 Gap=     0.349 Goal=   None    Shift=    0.500
 Gap=     0.349 Goal=   None    Shift=    0.500
 RMSDP=1.01D-04 MaxDP=7.96D-04 DE=-4.34D-05 OVMax= 1.60D-03

 Cycle   7  Pass 1  IDiag  1:
 E= -196.863326289359     Delta-E=       -0.000012040143 Rises=F Damp=F
 DIIS: error= 3.48D-04 at cycle   7 NSaved=   7.
 NSaved= 7 IEnMin= 7 EnMin= -196.863326289359     IErMin= 7 ErrMin= 3.48D-04
 ErrMax= 3.48D-04  0.00D+00 EMaxC= 1.00D+00 BMatC= 3.37D-06 BMatP= 1.25D-05
 IDIUse=1 WtCom= 1.00D+00 WtEn= 0.00D+00
 Coeff-Com:  0.893D-04 0.419D-01-0.859D-01 0.918D-01 0.463D+00-0.239D+01
 Coeff-Com:  0.287D+01
 Coeff:      0.893D-04 0.419D-01-0.859D-01 0.918D-01 0.463D+00-0.239D+01
 Coeff:      0.287D+01
 Gap=     0.349 Goal=   None    Shift=    0.500
 Gap=     0.349 Goal=   None    Shift=    0.500
 RMSDP=4.65D-05 MaxDP=3.75D-04 DE=-1.20D-05 OVMax= 9.58D-04

 Cycle   8  Pass 1  IDiag  1:
 E= -196.863329747703     Delta-E=       -0.000003458343 Rises=F Damp=F
 DIIS: error= 2.26D-04 at cycle   8 NSaved=   8.
 NSaved= 8 IEnMin= 8 EnMin= -196.863329747703     IErMin= 8 ErrMin= 2.26D-04
 ErrMax= 2.26D-04  0.00D+00 EMaxC= 1.00D+00 BMatC= 1.20D-06 BMatP= 3.37D-06
 IDIUse=1 WtCom= 1.00D+00 WtEn= 0.00D+00
 Coeff-Com: -0.150D-02 0.423D-01-0.801D-01 0.429D-01 0.485D+00-0.161D+01
 Coeff-Com:  0.903D+00 0.122D+01
 Coeff:     -0.150D-02 0.423D-01-0.801D-01 0.429D-01 0.485D+00-0.161D+01
 Coeff:      0.903D+00 0.122D+01
 Gap=     0.349 Goal=   None    Shift=    0.500
 Gap=     0.349 Goal=   None    Shift=    0.500
 RMSDP=2.14D-05 MaxDP=1.67D-04 DE=-3.46D-06 OVMax= 5.60D-04

 Cycle   9  Pass 1  IDiag  1:
 E= -196.863330772669     Delta-E=       -0.000001024966 Rises=F Damp=F
 DIIS: error= 1.32D-04 at cycle   9 NSaved=   9.
 NSaved= 9 IEnMin= 9 EnMin= -196.863330772669     IErMin= 9 ErrMin= 1.32D-04
 ErrMax= 1.32D-04  0.00D+00 EMaxC= 1.00D+00 BMatC= 4.06D-07 BMatP= 1.20D-06
 IDIUse=1 WtCom= 1.00D+00 WtEn= 0.00D+00
 Coeff-Com: -0.132D-02 0.872D-02-0.129D-01-0.201D-02 0.234D-01 0.254D+00
 Coeff-Com: -0.787D+00-0.494D+00 0.201D+01
 Coeff:     -0.132D-02 0.872D-02-0.129D-01-0.201D-02 0.234D-01 0.254D+00
 Coeff:     -0.787D+00-0.494D+00 0.201D+01
 Gap=     0.349 Goal=   None    Shift=    0.500
 Gap=     0.349 Goal=   None    Shift=    0.500
 RMSDP=1.08D-05 MaxDP=8.97D-05 DE=-1.02D-06 OVMax= 3.16D-04

 Cycle  10  Pass 1  IDiag  1:
 E= -196.863331079323     Delta-E=       -0.000000306654 Rises=F Damp=F
 DIIS: error= 8.02D-05 at cycle  10 NSaved=  10.
 NSaved=10 IEnMin=10 EnMin= -196.863331079323     IErMin=10 ErrMin= 8.02D-05
 ErrMax= 8.02D-05  0.00D+00 EMaxC= 1.00D+00 BMatC= 1.52D-07 BMatP= 4.06D-07
 IDIUse=1 WtCom= 1.00D+00 WtEn= 0.00D+00
 Coeff-Com:  0.666D-03-0.479D-02 0.686D-02 0.157D-01-0.952D-01 0.979D-01
 Coeff-Com:  0.377D+00-0.682D+00-0.137D+01 0.266D+01
 Coeff:      0.666D-03-0.479D-02 0.686D-02 0.157D-01-0.952D-01 0.979D-01
 Coeff:      0.377D+00-0.682D+00-0.137D+01 0.266D+01
 Gap=     0.349 Goal=   None    Shift=    0.500
 Gap=     0.349 Goal=   None    Shift=    0.500
 RMSDP=5.49D-06 MaxDP=4.82D-05 DE=-3.07D-07 OVMax= 1.82D-04

 Cycle  11  Pass 1  IDiag  1:
 E= -196.863331175546     Delta-E=       -0.000000096224 Rises=F Damp=F
 DIIS: error= 4.77D-05 at cycle  11 NSaved=  11.
 NSaved=11 IEnMin=11 EnMin= -196.863331175546     IErMin=11 ErrMin= 4.77D-05
 ErrMax= 4.77D-05  0.00D+00 EMaxC= 1.00D+00 BMatC= 5.67D-08 BMatP= 1.52D-07
 IDIUse=1 WtCom= 1.00D+00 WtEn= 0.00D+00
 Coeff-Com: -0.159D-03 0.168D-02-0.285D-02 0.121D-02 0.112D-01-0.161D-01
 Coeff-Com:  0.151D-02-0.242D-01 0.468D+00-0.241D+01 0.297D+01
 Coeff:     -0.159D-03 0.168D-02-0.285D-02 0.121D-02 0.112D-01-0.161D-01
 Coeff:      0.151D-02-0.242D-01 0.468D+00-0.241D+01 0.297D+01
 Gap=     0.349 Goal=   None    Shift=    0.500
 Gap=     0.349 Goal=   None    Shift=    0.500
 RMSDP=2.80D-06 MaxDP=2.60D-05 DE=-9.62D-08 OVMax= 1.04D-04

 Cycle  12  Pass 1  IDiag  1:
 E= -196.863331206600     Delta-E=       -0.000000031054 Rises=F Damp=F
 DIIS: error= 2.77D-05 at cycle  12 NSaved=  12.
 NSaved=12 IEnMin=12 EnMin= -196.863331206600     IErMin=12 ErrMin= 2.77D-05
 ErrMax= 2.77D-05  0.00D+00 EMaxC= 1.00D+00 BMatC= 2.01D-08 BMatP= 5.67D-08
 IDIUse=1 WtCom= 1.00D+00 WtEn= 0.00D+00
 Coeff-Com: -0.517D-04 0.351D-03-0.517D-03 0.704D-03-0.387D-02 0.119D-01
 Coeff-Com: -0.131D-01-0.227D-01 0.831D-01 0.596D+00-0.308D+01 0.343D+01
 Coeff:     -0.517D-04 0.351D-03-0.517D-03 0.704D-03-0.387D-02 0.119D-01
 Coeff:     -0.131D-01-0.227D-01 0.831D-01 0.596D+00-0.308D+01 0.343D+01
 Gap=     0.349 Goal=   None    Shift=    0.500
 Gap=     0.349 Goal=   None    Shift=    0.500
 RMSDP=1.47D-06 MaxDP=1.39D-05 DE=-3.11D-08 OVMax= 5.86D-05

 Cycle  13  Pass 1  IDiag  1:
 E= -196.863331216489     Delta-E=       -0.000000009889 Rises=F Damp=F
 DIIS: error= 1.60D-05 at cycle  13 NSaved=  13.
 NSaved=13 IEnMin=13 EnMin= -196.863331216489     IErMin=13 ErrMin= 1.60D-05
 ErrMax= 1.60D-05  0.00D+00 EMaxC= 1.00D+00 BMatC= 7.05D-09 BMatP= 2.01D-08
 IDIUse=1 WtCom= 1.00D+00 WtEn= 0.00D+00
 Coeff-Com:  0.967D-04-0.694D-03 0.101D-02 0.165D-02-0.118D-01 0.166D-01
 Coeff-Com:  0.301D-01-0.572D-01-0.124D+00 0.226D+00 0.716D+00-0.330D+01
 Coeff-Com:  0.350D+01
 Coeff:      0.967D-04-0.694D-03 0.101D-02 0.165D-02-0.118D-01 0.166D-01
 Coeff:      0.301D-01-0.572D-01-0.124D+00 0.226D+00 0.716D+00-0.330D+01
 Coeff:      0.350D+01
 Gap=     0.349 Goal=   None    Shift=    0.500
 Gap=     0.349 Goal=   None    Shift=    0.500
 RMSDP=7.96D-07 MaxDP=7.81D-06 DE=-9.89D-09 OVMax= 3.31D-05

 SCF Done:  E(ULC-wHPBE) =  -196.863331216     A.U. after   13 cycles
            NFock= 13  Conv=0.80D-06     -V/T= 2.0200
 <Sx>= 0.0000 <Sy>= 0.0000 <Sz>= 0.0000 <S**2>=-0.0000 S=-0.0000
 <L.S>= 0.000000000000E+00
 KE= 1.930100382359D+02 PE=-7.616726250351D+02 EE= 2.157865130967D+02
 Annihilation of the first spin contaminant:
 S**2 before annihilation    -0.0000,   after     0.0000
 Leave Link  502 at Thu Mar  5 12:52:12 2020, MaxMem=  6710886400 cpu:              20.8 elap:               1.3
 (Enter /opt/ohpc/pub/libs/gaussian/g16-A.03/sandybridge/g16/l508.exe)
 QCSCF skips out because SCF is already converged.
 Leave Link  508 at Thu Mar  5 12:52:13 2020, MaxMem=  6710886400 cpu:               0.2 elap:               0.0
 (Enter /opt/ohpc/pub/libs/gaussian/g16-A.03/sandybridge/g16/l601.exe)
 Copying SCF densities to generalized density rwf, IOpCl= 1 IROHF=0.

 **********************************************************************

            Population analysis using the SCF density.

 **********************************************************************

 Orbital symmetries:
 Alpha Orbitals:
       Occupied  (B2) (A1) (B2) (A1) (A1) (A1) (A1) (B2) (A1) (B2)
                 (A1) (B2) (A1) (A1) (B2) (B1) (A2) (B1)
       Virtual   (A2) (B2) (A1) (B1) (A1) (B2) (A1) (B2) (A1) (A1)
                 (B2) (A1) (B2) (B2) (B1) (A2) (A1) (B1) (A1) (B2)
                 (A1) (A2) (B1) (B2) (B2) (A1) (B2) (A1) (A1) (B2)
                 (A1) (A1) (A1) (B2) (A1) (B2) (A1) (A1) (B2)
 Beta  Orbitals:
       Occupied  (B2) (A1) (B2) (A1) (A1) (A1) (A1) (B2) (A1) (B2)
                 (A1) (B2) (A1) (A1) (B2) (B1) (A2) (B1)
       Virtual   (A2) (B2) (A1) (B1) (A1) (B2) (A1) (B2) (A1) (A1)
                 (B2) (A1) (B2) (B2) (B1) (A2) (A1) (B1) (A1) (B2)
                 (A1) (A2) (B1) (B2) (B2) (A1) (B2) (A1) (A1) (B2)
                 (A1) (A1) (A1) (B2) (A1) (B2) (A1) (A1) (B2)
 The electronic state is 1-A1.
 Alpha  occ. eigenvalues --  -10.16924 -10.16922 -10.13249 -10.13248 -10.09753
 Alpha  occ. eigenvalues --   -1.03510  -0.90687  -0.87695  -0.73269  -0.71939
 Alpha  occ. eigenvalues --   -0.67777  -0.57127  -0.56363  -0.53282  -0.51946
 Alpha  occ. eigenvalues --   -0.50972  -0.37214  -0.33013
 Alpha virt. eigenvalues --    0.01844   0.02605   0.07033   0.09240   0.11060
 Alpha virt. eigenvalues --    0.15837   0.17539   0.19362   0.20199   0.32585
 Alpha virt. eigenvalues --    0.33898   0.43907   0.44495   0.53405   0.54979
 Alpha virt. eigenvalues --    0.61509   0.62361   0.62410   0.64299   0.65714
 Alpha virt. eigenvalues --    0.66950   0.68011   0.70557   0.77796   0.83638
 Alpha virt. eigenvalues --    0.86462   0.88055   0.88233   0.90060   0.97000
 Alpha virt. eigenvalues --    0.97212   1.00377   1.04857   1.11334   1.19373
 Alpha virt. eigenvalues --    1.21030   1.27930   1.48982   1.50058
  Beta  occ. eigenvalues --  -10.16924 -10.16922 -10.13249 -10.13248 -10.09753
  Beta  occ. eigenvalues --   -1.03510  -0.90687  -0.87695  -0.73269  -0.71939
  Beta  occ. eigenvalues --   -0.67777  -0.57127  -0.56363  -0.53282  -0.51946
  Beta  occ. eigenvalues --   -0.50972  -0.37214  -0.33013
  Beta virt. eigenvalues --    0.01844   0.02605   0.07033   0.09240   0.11060
  Beta virt. eigenvalues --    0.15837   0.17539   0.19362   0.20199   0.32585
  Beta virt. eigenvalues --    0.33898   0.43907   0.44495   0.53405   0.54979
  Beta virt. eigenvalues --    0.61509   0.62361   0.62410   0.64299   0.65714
  Beta virt. eigenvalues --    0.66950   0.68011   0.70557   0.77796   0.83638
  Beta virt. eigenvalues --    0.86462   0.88055   0.88233   0.90060   0.97000
  Beta virt. eigenvalues --    0.97212   1.00377   1.04857   1.11334   1.19373
  Beta virt. eigenvalues --    1.21030   1.27930   1.48982   1.50058
          Condensed to atoms (all electrons):
               1          2          3          4          5          6
     1  C    5.446137   0.473271  -0.055783  -0.128455   0.255227   0.166823
     2  C    0.473271   4.908369   0.555543  -0.016736  -0.128455  -0.018833
     3  C   -0.055783   0.555543   4.841244   0.555543  -0.055783   0.004751
     4  C   -0.128455  -0.016736   0.555543   4.908369   0.473271  -0.018833
     5  C    0.255227  -0.128455  -0.055783   0.473271   5.446137   0.166823
     6  H    0.166823  -0.018833   0.004751  -0.018833   0.166823   0.387934
     7  H    0.345538  -0.000284  -0.000091   0.004025  -0.023969  -0.012329
     8  H   -0.037264   0.364303  -0.016478   0.004440   0.001759   0.000848
     9  H    0.006415  -0.038804   0.374168  -0.038804   0.006415  -0.000099
    10  H    0.001759   0.004440  -0.016478   0.364303  -0.037264   0.000848
    11  H   -0.023969   0.004025  -0.000091  -0.000284   0.345538  -0.012329
               7          8          9         10         11
     1  C    0.345538  -0.037264   0.006415   0.001759  -0.023969
     2  C   -0.000284   0.364303  -0.038804   0.004440   0.004025
     3  C   -0.000091  -0.016478   0.374168  -0.016478  -0.000091
     4  C    0.004025   0.004440  -0.038804   0.364303  -0.000284
     5  C   -0.023969   0.001759   0.006415  -0.037264   0.345538
     6  H   -0.012329   0.000848  -0.000099   0.000848  -0.012329
     7  H    0.458610  -0.000206  -0.000102  -0.000036   0.000805
     8  H   -0.000206   0.506066  -0.001994  -0.000161  -0.000036
     9  H   -0.000102  -0.001994   0.543190  -0.001994  -0.000102
    10  H   -0.000036  -0.000161  -0.001994   0.506066  -0.000206
    11  H    0.000805  -0.000036  -0.000102  -0.000206   0.458610
          Atomic-Atomic Spin Densities.
               1          2          3          4          5          6
     1  C    0.000000  -0.000000  -0.000000  -0.000000   0.000000   0.000000
     2  C   -0.000000   0.000000  -0.000000   0.000000  -0.000000  -0.000000
     3  C   -0.000000  -0.000000  -0.000000  -0.000000  -0.000000   0.000000
     4  C   -0.000000   0.000000  -0.000000   0.000000  -0.000000  -0.000000
     5  C    0.000000  -0.000000  -0.000000  -0.000000   0.000000   0.000000
     6  H    0.000000  -0.000000   0.000000  -0.000000   0.000000   0.000000
     7  H    0.000000   0.000000  -0.000000   0.000000   0.000000  -0.000000
     8  H    0.000000  -0.000000   0.000000   0.000000  -0.000000  -0.000000
     9  H    0.000000  -0.000000  -0.000000  -0.000000   0.000000   0.000000
    10  H   -0.000000   0.000000   0.000000  -0.000000   0.000000  -0.000000
    11  H    0.000000   0.000000  -0.000000   0.000000   0.000000  -0.000000
               7          8          9         10         11
     1  C    0.000000   0.000000   0.000000  -0.000000   0.000000
     2  C    0.000000  -0.000000  -0.000000   0.000000   0.000000
     3  C   -0.000000   0.000000  -0.000000   0.000000  -0.000000
     4  C    0.000000   0.000000  -0.000000  -0.000000   0.000000
     5  C    0.000000  -0.000000   0.000000   0.000000   0.000000
     6  H   -0.000000  -0.000000   0.000000  -0.000000  -0.000000
     7  H   -0.000000   0.000000  -0.000000   0.000000  -0.000000
     8  H    0.000000  -0.000000   0.000000  -0.000000   0.000000
     9  H   -0.000000   0.000000   0.000000   0.000000  -0.000000
    10  H    0.000000  -0.000000   0.000000  -0.000000   0.000000
    11  H   -0.000000   0.000000  -0.000000   0.000000  -0.000000
 Mulliken charges and spin densities:
               1          2
     1  C   -0.449700  -0.000000
     2  C   -0.106840   0.000000
     3  C   -0.186545  -0.000000
     4  C   -0.106840   0.000000
     5  C   -0.449700  -0.000000
     6  H    0.334393   0.000000
     7  H    0.228039  -0.000000
     8  H    0.178722  -0.000000
     9  H    0.151712  -0.000000
    10  H    0.178722  -0.000000
    11  H    0.228039  -0.000000
 Sum of Mulliken charges =  -0.00000  -0.00000
 Mulliken charges and spin densities with hydrogens summed into heavy atoms:
               1          2
     1  C    0.112732  -0.000000
     2  C    0.071882   0.000000
     3  C   -0.034834  -0.000000
     4  C    0.071882   0.000000
     5  C   -0.221662  -0.000000
 Electronic spatial extent (au):  <R**2>=            335.2507
 Charge=             -0.0000 electrons
 Dipole moment (field-independent basis, Debye):
    X=             -0.0000    Y=             -0.0000    Z=             -1.9817  Tot=              1.9817
 Quadrupole moment (field-independent basis, Debye-Ang):
   XX=            -35.0182   YY=            -25.5190   ZZ=            -23.4571
   XY=              0.0000   XZ=              0.0000   YZ=             -0.0000
 Traceless Quadrupole moment (field-independent basis, Debye-Ang):
   XX=             -7.0201   YY=              2.4791   ZZ=              4.5410
   XY=              0.0000   XZ=              0.0000   YZ=             -0.0000
 Octapole moment (field-independent basis, Debye-Ang**2):
  XXX=              0.0000  YYY=              0.0000  ZZZ=             -8.8543  XYY=              0.0000
  XXY=             -0.0000  XXZ=              0.8292  XZZ=              0.0000  YZZ=             -0.0000
  YYZ=             -1.0126  XYZ=             -0.0000
 Hexadecapole moment (field-independent basis, Debye-Ang**3):
 XXXX=            -37.1809 YYYY=           -182.1405 ZZZZ=           -169.1157 XXXY=             -0.0000
 XXXZ=             -0.0000 YYYX=             -0.0000 YYYZ=              0.0000 ZZZX=             -0.0000
 ZZZY=              0.0000 XXYY=            -46.5616 XXZZ=            -45.5132 YYZZ=            -57.7717
 XXYZ=              0.0000 YYXZ=             -0.0000 ZZXY=             -0.0000
 N-N= 1.560127424860D+02 E-N=-7.616726044385D+02  KE= 1.930100382359D+02
 Symmetry A1   KE= 1.110078666300D+02
 Symmetry A2   KE= 2.440744028461D+00
 Symmetry B1   KE= 4.285897007672D+00
 Symmetry B2   KE= 7.527553056977D+01
 Symmetry A1   SP= 1.930172827442D-15
 Symmetry A2   SP=-4.777058322133D-15
 Symmetry B1   SP=-6.414765908170D-16
 Symmetry B2   SP=-2.165484993220D-14
                          Isotropic Fermi Contact Couplings
        Atom                 a.u.       MegaHertz       Gauss      10(-4) cm-1
     1  C(13)             -0.00000      -0.00000      -0.00000      -0.00000
     2  C(13)             -0.00000      -0.00000      -0.00000      -0.00000
     3  C(13)              0.00000       0.00000       0.00000       0.00000
     4  C(13)             -0.00000      -0.00000      -0.00000      -0.00000
     5  C(13)             -0.00000      -0.00000      -0.00000      -0.00000
     6  H(1)              -0.00000      -0.00000      -0.00000      -0.00000
     7  H(1)              -0.00000      -0.00000      -0.00000      -0.00000
     8  H(1)              -0.00000      -0.00000      -0.00000      -0.00000
     9  H(1)               0.00000       0.00000       0.00000       0.00000
    10  H(1)              -0.00000      -0.00000      -0.00000      -0.00000
    11  H(1)              -0.00000      -0.00000      -0.00000      -0.00000
 --------------------------------------------------------
       Center         ----  Spin Dipole Couplings  ----
                      3XX-RR        3YY-RR        3ZZ-RR
 --------------------------------------------------------
     1   Atom        0.000000      0.000000      0.000000
     2   Atom        0.000000      0.000000      0.000000
     3   Atom        0.000000      0.000000      0.000000
     4   Atom        0.000000      0.000000      0.000000
     5   Atom        0.000000      0.000000      0.000000
     6   Atom        0.000000      0.000000      0.000000
     7   Atom        0.000000      0.000000      0.000000
     8   Atom        0.000000      0.000000      0.000000
     9   Atom        0.000000      0.000000      0.000000
    10   Atom        0.000000      0.000000      0.000000
    11   Atom        0.000000      0.000000      0.000000
 --------------------------------------------------------
                        XY            XZ            YZ
 --------------------------------------------------------
     1   Atom        0.000000      0.000000      0.000000
     2   Atom        0.000000      0.000000      0.000000
     3   Atom        0.000000      0.000000      0.000000
     4   Atom        0.000000      0.000000      0.000000
     5   Atom        0.000000      0.000000      0.000000
     6   Atom        0.000000      0.000000      0.000000
     7   Atom        0.000000      0.000000      0.000000
     8   Atom        0.000000      0.000000      0.000000
     9   Atom        0.000000      0.000000      0.000000
    10   Atom        0.000000      0.000000      0.000000
    11   Atom        0.000000      0.000000      0.000000
 --------------------------------------------------------


 ---------------------------------------------------------------------------------
              Anisotropic Spin Dipole Couplings in Principal Axis System
 ---------------------------------------------------------------------------------

       Atom             a.u.   MegaHertz   Gauss  10(-4) cm-1        Axes

              Baa     0.0000     0.000     0.000     0.000  1.0000  0.0000  0.0000
     1 C(13)  Bbb     0.0000     0.000     0.000     0.000 -0.0000  1.0000  0.0000
              Bcc     0.0000     0.000     0.000     0.000  0.0000  0.0000  1.0000
 
              Baa     0.0000     0.000     0.000     0.000  1.0000  0.0000  0.0000
     2 C(13)  Bbb     0.0000     0.000     0.000     0.000 -0.0000  1.0000  0.0000
              Bcc     0.0000     0.000     0.000     0.000  0.0000  0.0000  1.0000
 
              Baa     0.0000     0.000     0.000     0.000  1.0000  0.0000  0.0000
     3 C(13)  Bbb     0.0000     0.000     0.000     0.000 -0.0000  1.0000  0.0000
              Bcc     0.0000     0.000     0.000     0.000  0.0000  0.0000  1.0000
 
              Baa     0.0000     0.000     0.000     0.000  1.0000  0.0000  0.0000
     4 C(13)  Bbb     0.0000     0.000     0.000     0.000 -0.0000  1.0000  0.0000
              Bcc     0.0000     0.000     0.000     0.000  0.0000  0.0000  1.0000
 
              Baa     0.0000     0.000     0.000     0.000  1.0000  0.0000  0.0000
     5 C(13)  Bbb     0.0000     0.000     0.000     0.000 -0.0000  1.0000  0.0000
              Bcc     0.0000     0.000     0.000     0.000  0.0000  0.0000  1.0000
 
              Baa     0.0000     0.000     0.000     0.000  1.0000  0.0000  0.0000
     6 H(1)   Bbb     0.0000     0.000     0.000     0.000 -0.0000  1.0000  0.0000
              Bcc     0.0000     0.000     0.000     0.000  0.0000  0.0000  1.0000
 
              Baa     0.0000     0.000     0.000     0.000  1.0000  0.0000  0.0000
     7 H(1)   Bbb     0.0000     0.000     0.000     0.000 -0.0000  1.0000  0.0000
              Bcc     0.0000     0.000     0.000     0.000  0.0000  0.0000  1.0000
 
              Baa     0.0000     0.000     0.000     0.000  1.0000  0.0000  0.0000
     8 H(1)   Bbb     0.0000     0.000     0.000     0.000 -0.0000  1.0000  0.0000
              Bcc     0.0000     0.000     0.000     0.000  0.0000  0.0000  1.0000
 
              Baa     0.0000     0.000     0.000     0.000  1.0000  0.0000  0.0000
     9 H(1)   Bbb     0.0000     0.000     0.000     0.000 -0.0000  1.0000  0.0000
              Bcc     0.0000     0.000     0.000     0.000  0.0000  0.0000  1.0000
 
              Baa     0.0000     0.000     0.000     0.000  1.0000  0.0000  0.0000
    10 H(1)   Bbb     0.0000     0.000     0.000     0.000 -0.0000  1.0000  0.0000
              Bcc     0.0000     0.000     0.000     0.000  0.0000  0.0000  1.0000
 
              Baa     0.0000     0.000     0.000     0.000  1.0000  0.0000  0.0000
    11 H(1)   Bbb     0.0000     0.000     0.000     0.000 -0.0000  1.0000  0.0000
              Bcc     0.0000     0.000     0.000     0.000  0.0000  0.0000  1.0000
 

 ---------------------------------------------------------------------------------

 No NMR shielding tensors so no spin-rotation constants.
 Leave Link  601 at Thu Mar  5 12:52:13 2020, MaxMem=  6710886400 cpu:               2.0 elap:               0.1
 (Enter /opt/ohpc/pub/libs/gaussian/g16-A.03/sandybridge/g16/l9999.exe)

 Test job not archived.
 1\1\GINC-CNODE212\SP\ULC-wHPBE\6-31G\C5H6\SMGO234\05-Mar-2020\0\\#P uL
 C-wHPBE/6-31G iop(3/130=0277000000, 3/131=0277000000, 3/119=0723000000
 , 3/120=0723000000) scf=(conver=6,fermi,ndamp=35,noincfock,novaracc,vs
 hift=500,xqc)\\H6 C5\\0,1\C,0,0.,0.878804,-0.931542\C,0,0.,1.128157,0.
 423457\C,0,0.,0.,1.240879\C,0,0.,-1.128157,0.423457\C,0,0.,-0.878804,-
 0.931542\H,0,0.,0.,-1.732269\H,0,0.,1.6083,-1.734053\H,0,0.,2.156626,0
 .76567\H,0,0.,0.,2.320778\H,0,0.,-2.156626,0.76567\H,0,0.,-1.6083,-1.7
 34053\\Version=EM64L-G16RevA.03\State=1-A1\HF=-196.8633312\S2=0.\S2-1=
 0.\S2A=0.\RMSD=7.960e-07\Dipole=0.,0.,-0.7796527\Quadrupole=-5.2192881
 ,1.843138,3.3761501,0.,0.,0.\PG=C02V [C2(H1C1H1),SGV(C4H4)]\\@



 IN THIS SHORT LIFE

 THAT ONLY LASTS AN HOUR

 HOW MUCH, HOW LITTLE, IS WITHIN OUR POWER....


 EMILY DICKINSON BOLTS OF MELODY NO. 521
 Job cpu time:       0 days  0 hours  0 minutes 47.9 seconds.
 Elapsed time:       0 days  0 hours  0 minutes  3.3 seconds.
 File lengths (MBytes):  RWF=    272 Int=      0 D2E=      0 Chk=     32 Scr=     32
 Normal termination of Gaussian 16 at Thu Mar  5 12:52:13 2020.
