 Entering Gaussian System, Link 0=g16
 Input=a1b_tune_n6.gjf
 Output=a1b_tune_n6.log
 Initial command:
 /opt/ohpc/pub/libs/gaussian/g16-A.03/sandybridge/g16/l1.exe "/scratch/smgo234/Ocelot/test/a1b/tuning_a1b_acycle1/Gau-80352.inp" -scrdir="/scratch/smgo234/Ocelot/test/a1b/tuning_a1b_acycle1/"
 Entering Link 1 = /opt/ohpc/pub/libs/gaussian/g16-A.03/sandybridge/g16/l1.exe PID=     80353.
  
 Copyright (c) 1988,1990,1992,1993,1995,1998,2003,2009,2016,
            Gaussian, Inc.  All Rights Reserved.
  
 This is part of the Gaussian(R) 16 program.  It is based on
 the Gaussian(R) 09 system (copyright 2009, Gaussian, Inc.),
 the Gaussian(R) 03 system (copyright 2003, Gaussian, Inc.),
 the Gaussian(R) 98 system (copyright 1998, Gaussian, Inc.),
 the Gaussian(R) 94 system (copyright 1995, Gaussian, Inc.),
 the Gaussian 92(TM) system (copyright 1992, Gaussian, Inc.),
 the Gaussian 90(TM) system (copyright 1990, Gaussian, Inc.),
 the Gaussian 88(TM) system (copyright 1988, Gaussian, Inc.),
 the Gaussian 86(TM) system (copyright 1986, Carnegie Mellon
 University), and the Gaussian 82(TM) system (copyright 1983,
 Carnegie Mellon University). Gaussian is a federally registered
 trademark of Gaussian, Inc.
  
 This software contains proprietary and confidential information,
 including trade secrets, belonging to Gaussian, Inc.
  
 This software is provided under written license and may be
 used, copied, transmitted, or stored only in accord with that
 written license.
  
 The following legend is applicable only to US Government
 contracts under FAR:
  
                    RESTRICTED RIGHTS LEGEND
  
 Use, reproduction and disclosure by the US Government is
 subject to restrictions as set forth in subparagraphs (a)
 and (c) of the Commercial Computer Software - Restricted
 Rights clause in FAR 52.227-19.
  
 Gaussian, Inc.
 340 Quinnipiac St., Bldg. 40, Wallingford CT 06492
  
  
 ---------------------------------------------------------------
 Warning -- This program may not be used in any manner that
 competes with the business of Gaussian, Inc. or will provide
 assistance to any competitor of Gaussian, Inc.  The licensee
 of this program is prohibited from giving any competitor of
 Gaussian, Inc. access to this program.  By using this program,
 the user acknowledges that Gaussian, Inc. is engaged in the
 business of creating and licensing software in the field of
 computational chemistry and represents and warrants to the
 licensee that it is not a competitor of Gaussian, Inc. and that
 it will not use this program in any manner prohibited above.
 ---------------------------------------------------------------
  

 Cite this work as:
 Gaussian 16, Revision A.03,
 M. J. Frisch, G. W. Trucks, H. B. Schlegel, G. E. Scuseria, 
 M. A. Robb, J. R. Cheeseman, G. Scalmani, V. Barone, 
 G. A. Petersson, H. Nakatsuji, X. Li, M. Caricato, A. V. Marenich, 
 J. Bloino, B. G. Janesko, R. Gomperts, B. Mennucci, H. P. Hratchian, 
 J. V. Ortiz, A. F. Izmaylov, J. L. Sonnenberg, D. Williams-Young, 
 F. Ding, F. Lipparini, F. Egidi, J. Goings, B. Peng, A. Petrone, 
 T. Henderson, D. Ranasinghe, V. G. Zakrzewski, J. Gao, N. Rega, 
 G. Zheng, W. Liang, M. Hada, M. Ehara, K. Toyota, R. Fukuda, 
 J. Hasegawa, M. Ishida, T. Nakajima, Y. Honda, O. Kitao, H. Nakai, 
 T. Vreven, K. Throssell, J. A. Montgomery, Jr., J. E. Peralta, 
 F. Ogliaro, M. J. Bearpark, J. J. Heyd, E. N. Brothers, K. N. Kudin, 
 V. N. Staroverov, T. A. Keith, R. Kobayashi, J. Normand, 
 K. Raghavachari, A. P. Rendell, J. C. Burant, S. S. Iyengar, 
 J. Tomasi, M. Cossi, J. M. Millam, M. Klene, C. Adamo, R. Cammi, 
 J. W. Ochterski, R. L. Martin, K. Morokuma, O. Farkas, 
 J. B. Foresman, and D. J. Fox, Gaussian, Inc., Wallingford CT, 2016.
 
 ******************************************
 Gaussian 16:  EM64L-G16RevA.03 25-Dec-2016
                 5-Mar-2020 
 ******************************************
 %mem=50GB
 %nproc=16
 Will use up to   16 processors via shared memory.
 ----------------------------------------------------------------------
 #P uLC-wHPBE/6-31G iop(3/130=0245600000, 3/131=0245600000, 3/119=07544
 00000, 3/120=0754400000) scf=(conver=6,fermi,ndamp=35,noincfock,novara
 cc,vshift=500,xqc)
 ----------------------------------------------------------------------
 1/38=1,172=1/1;
 2/12=2,17=6,18=5,40=1/2;
 3/5=1,6=6,11=2,25=1,30=1,74=-71,116=2,119=754400000,120=754400000,130=245600000,131=245600000/1,2,3;
 4//1;
 5/5=100002,6=6,8=3,10=500,13=1,18=-1,22=13,38=1,93=35/2,8;
 6/7=2,8=2,9=2,10=2,28=1/1;
 99/5=1,9=1/99;
 Leave Link    1 at Thu Mar  5 12:52:26 2020, MaxMem=  6710886400 cpu:              15.5 elap:               1.0
 (Enter /opt/ohpc/pub/libs/gaussian/g16-A.03/sandybridge/g16/l101.exe)
 -----
 H6 C5
 -----
 Symbolic Z-matrix:
 Charge =  0 Multiplicity = 1
 C                     0.        0.8788   -0.93154 
 C                     0.        1.12816   0.42346 
 C                     0.        0.        1.24088 
 C                     0.       -1.12816   0.42346 
 C                     0.       -0.8788   -0.93154 
 H                     0.        0.       -1.73227 
 H                     0.        1.6083   -1.73405 
 H                     0.        2.15663   0.76567 
 H                     0.        0.        2.32078 
 H                     0.       -2.15663   0.76567 
 H                     0.       -1.6083   -1.73405 
 
 ITRead=  0  0  0  0  0  0  0  0  0  0  0
 MicOpt= -1 -1 -1 -1 -1 -1 -1 -1 -1 -1 -1
 NAtoms=     11 NQM=       11 NQMF=       0 NMMI=      0 NMMIF=      0
                NMic=       0 NMicF=      0.
                    Isotopes and Nuclear Properties:
 (Nuclear quadrupole moments (NQMom) in fm**2, nuclear magnetic moments (NMagM)
  in nuclear magnetons)

  Atom         1           2           3           4           5           6           7           8           9          10
 IAtWgt=          12          12          12          12          12           1           1           1           1           1
 AtmWgt=  12.0000000  12.0000000  12.0000000  12.0000000  12.0000000   1.0078250   1.0078250   1.0078250   1.0078250   1.0078250
 NucSpn=           0           0           0           0           0           1           1           1           1           1
 AtZEff=  -0.0000000  -0.0000000  -0.0000000  -0.0000000  -0.0000000  -0.0000000  -0.0000000  -0.0000000  -0.0000000  -0.0000000
 NQMom=    0.0000000   0.0000000   0.0000000   0.0000000   0.0000000   0.0000000   0.0000000   0.0000000   0.0000000   0.0000000
 NMagM=    0.0000000   0.0000000   0.0000000   0.0000000   0.0000000   2.7928460   2.7928460   2.7928460   2.7928460   2.7928460
 AtZNuc=   6.0000000   6.0000000   6.0000000   6.0000000   6.0000000   1.0000000   1.0000000   1.0000000   1.0000000   1.0000000

  Atom        11
 IAtWgt=           1
 AtmWgt=   1.0078250
 NucSpn=           1
 AtZEff=  -0.0000000
 NQMom=    0.0000000
 NMagM=    2.7928460
 AtZNuc=   1.0000000
 Leave Link  101 at Thu Mar  5 12:52:26 2020, MaxMem=  6710886400 cpu:               2.5 elap:               0.2
 (Enter /opt/ohpc/pub/libs/gaussian/g16-A.03/sandybridge/g16/l202.exe)
                          Input orientation:                          
 ---------------------------------------------------------------------
 Center     Atomic      Atomic             Coordinates (Angstroms)
 Number     Number       Type             X           Y           Z
 ---------------------------------------------------------------------
      1          6           0        0.000000    0.878804   -0.931542
      2          6           0        0.000000    1.128157    0.423457
      3          6           0        0.000000    0.000000    1.240879
      4          6           0        0.000000   -1.128157    0.423457
      5          6           0        0.000000   -0.878804   -0.931542
      6          1           0        0.000000    0.000000   -1.732269
      7          1           0        0.000000    1.608300   -1.734053
      8          1           0        0.000000    2.156626    0.765670
      9          1           0        0.000000    0.000000    2.320778
     10          1           0        0.000000   -2.156626    0.765670
     11          1           0        0.000000   -1.608300   -1.734053
 ---------------------------------------------------------------------
                    Distance matrix (angstroms):
                    1          2          3          4          5
     1  C    0.000000
     2  C    1.377752   0.000000
     3  C    2.343440   1.393168   0.000000
     4  C    2.421552   2.256314   1.393168   0.000000
     5  C    1.757608   2.421552   2.343440   1.377752   0.000000
     6  H    1.188890   2.433083   2.973148   2.433083   1.188890
     7  H    1.084522   2.210291   3.381841   3.484687   2.613371
     8  H    2.124466   1.083909   2.208361   3.302561   3.477695
     9  H    3.368959   2.207389   1.079899   2.207389   3.368959
    10  H    3.477695   3.302561   2.208361   1.083909   2.124466
    11  H    2.613371   3.484687   3.381841   2.210291   1.084522
                    6          7          8          9         10
     6  H    0.000000
     7  H    1.608301   0.000000
     8  H    3.300111   2.559155   0.000000
     9  H    4.053047   4.362142   2.658834   0.000000
    10  H    3.300111   4.519213   4.313252   2.658834   0.000000
    11  H    1.608301   3.216600   4.519213   4.362142   2.559155
                   11
    11  H    0.000000
 Stoichiometry    C5H6
 Framework group  C2V[C2(HCH),SGV(C4H4)]
 Deg. of freedom    10
 Full point group                 C2V     NOp   4
 Largest Abelian subgroup         C2V     NOp   4
 Largest concise Abelian subgroup C2      NOp   2
                         Standard orientation:                         
 ---------------------------------------------------------------------
 Center     Atomic      Atomic             Coordinates (Angstroms)
 Number     Number       Type             X           Y           Z
 ---------------------------------------------------------------------
      1          6           0        0.000000    0.878804   -0.931542
      2          6           0        0.000000    1.128157    0.423457
      3          6           0        0.000000   -0.000000    1.240879
      4          6           0       -0.000000   -1.128157    0.423457
      5          6           0       -0.000000   -0.878804   -0.931542
      6          1           0       -0.000000    0.000000   -1.732269
      7          1           0        0.000000    1.608300   -1.734053
      8          1           0        0.000000    2.156626    0.765670
      9          1           0        0.000000   -0.000000    2.320778
     10          1           0       -0.000000   -2.156626    0.765670
     11          1           0       -0.000000   -1.608300   -1.734053
 ---------------------------------------------------------------------
 Rotational constants (GHZ):           8.5259551           7.9375455           4.1106177
 Leave Link  202 at Thu Mar  5 12:52:26 2020, MaxMem=  6710886400 cpu:               0.8 elap:               0.1
 (Enter /opt/ohpc/pub/libs/gaussian/g16-A.03/sandybridge/g16/l301.exe)
 Standard basis: 6-31G (6D, 7F)
 Ernie: Thresh=  0.10000D-02 Tol=  0.10000D-05 Strict=F.
 There are    27 symmetry adapted cartesian basis functions of A1  symmetry.
 There are     4 symmetry adapted cartesian basis functions of A2  symmetry.
 There are     6 symmetry adapted cartesian basis functions of B1  symmetry.
 There are    20 symmetry adapted cartesian basis functions of B2  symmetry.
 There are    27 symmetry adapted basis functions of A1  symmetry.
 There are     4 symmetry adapted basis functions of A2  symmetry.
 There are     6 symmetry adapted basis functions of B1  symmetry.
 There are    20 symmetry adapted basis functions of B2  symmetry.
    57 basis functions,   134 primitive gaussians,    57 cartesian basis functions
    18 alpha electrons       18 beta electrons
       nuclear repulsion energy       156.0127424860 Hartrees.
 IExCor=33909 DFT=T Ex+Corr=LC-wHPBE ExCW=0 ScaHFX=  1.000000
 ScaDFX=  1.000000  1.000000  1.000000  1.000000 ScalE2=  1.000000  1.000000
 IRadAn=      5 IRanWt=     -1 IRanGd=            0 ICorTp=0 IEmpDi=  4
 HFx  wShort=  0.000000 wLong=  0.400000 cFull=  0.000000 cShort=  0.000000 cLong=  0.754400
 DFx  wShort=  0.000000 wLong=  0.400000 cFull=  0.000000 cShort=  1.000000 cLong=  0.754400
 NAtoms=   11 NActive=   11 NUniq=    7 SFac= 2.47D+00 NAtFMM=   60 NAOKFM=F Big=F
 Integral buffers will be    131072 words long.
 Raffenetti 2 integral format.
 Two-electron integral symmetry is turned on.
 Leave Link  301 at Thu Mar  5 12:52:26 2020, MaxMem=  6710886400 cpu:               0.9 elap:               0.1
 (Enter /opt/ohpc/pub/libs/gaussian/g16-A.03/sandybridge/g16/l302.exe)
 NPDir=0 NMtPBC=     1 NCelOv=     1 NCel=       1 NClECP=     1 NCelD=      1
         NCelK=      1 NCelE2=     1 NClLst=     1 CellRange=     0.0.
 One-electron integrals computed using PRISM.
 One-electron integral symmetry used in STVInt
 NBasis=    57 RedAO= T EigKep=  1.84D-03  NBF=    27     4     6    20
 NBsUse=    57 1.00D-06 EigRej= -1.00D+00 NBFU=    27     4     6    20
 Precomputing XC quadrature grid using
 IXCGrd= 4 IRadAn=           5 IRanWt=          -1 IRanGd=           0 AccXCQ= 0.00D+00.
 Generated NRdTot=       0 NPtTot=           0 NUsed=           0 NTot=          32
 NSgBfM=    57    57    57    57    57 MxSgAt=    11 MxSgA2=    11.
 Leave Link  302 at Thu Mar  5 12:52:26 2020, MaxMem=  6710886400 cpu:               2.7 elap:               0.2
 (Enter /opt/ohpc/pub/libs/gaussian/g16-A.03/sandybridge/g16/l303.exe)
 DipDrv:  MaxL=1.
 Leave Link  303 at Thu Mar  5 12:52:26 2020, MaxMem=  6710886400 cpu:               0.4 elap:               0.0
 (Enter /opt/ohpc/pub/libs/gaussian/g16-A.03/sandybridge/g16/l401.exe)
 ExpMin= 1.61D-01 ExpMax= 3.05D+03 ExpMxC= 4.57D+02 IAcc=3 IRadAn=         5 AccDes= 0.00D+00
 Harris functional with IExCor=33909 and IRadAn=       5 diagonalized for initial guess.
 HarFok:  IExCor=33909 AccDes= 0.00D+00 IRadAn=         5 IDoV= 1 UseB2=F ITyADJ=14
 ICtDFT=  3500011 ScaDFX=  1.000000  1.000000  1.000000  1.000000
 FoFCou: FMM=F IPFlag=           0 FMFlag=      100000 FMFlg1=           0
         NFxFlg=           0 DoJE=T BraDBF=F KetDBF=T FulRan=T
         wScrn=  0.000000 ICntrl=       500 IOpCl=  0 I1Cent=   200000004 NGrid=           0
         NMat0=    1 NMatS0=      1 NMatT0=    0 NMatD0=    1 NMtDS0=    0 NMtDT0=    0
 Petite list used in FoFCou.
 Harris En= -192.054608839382    
 JPrj=0 DoOrth=F DoCkMO=F.
 Initial guess orbital symmetries:
 Alpha Orbitals:
       Occupied  (A1) (B2) (A1) (B2) (A1) (A1) (A1) (B2) (A1) (B2)
                 (A1) (B2) (A1) (B2) (A1) (B1) (A2) (B1)
       Virtual   (A2) (B2) (B1) (A1) (A1) (B2) (A1) (B2) (A1) (B2)
                 (A1) (B2) (A1) (B2) (B1) (A1) (A2) (B1) (B2) (A1)
                 (A1) (A2) (B1) (B2) (B2) (A1) (B2) (A1) (A1) (B2)
                 (A1) (A1) (A1) (B2) (A1) (B2) (A1) (A1) (B2)
 Beta  Orbitals:
       Occupied  (A1) (B2) (A1) (B2) (A1) (A1) (A1) (B2) (A1) (B2)
                 (A1) (B2) (A1) (B2) (A1) (B1) (A2) (B1)
       Virtual   (A2) (B2) (B1) (A1) (A1) (B2) (A1) (B2) (A1) (B2)
                 (A1) (B2) (A1) (B2) (B1) (A1) (A2) (B1) (B2) (A1)
                 (A1) (A2) (B1) (B2) (B2) (A1) (B2) (A1) (A1) (B2)
                 (A1) (A1) (A1) (B2) (A1) (B2) (A1) (A1) (B2)
 The electronic state of the initial guess is 1-A1.
 Initial guess <Sx>= 0.0000 <Sy>= 0.0000 <Sz>= 0.0000 <S**2>= 0.0000 S= 0.0000
 Leave Link  401 at Thu Mar  5 12:52:27 2020, MaxMem=  6710886400 cpu:               3.0 elap:               0.2
 (Enter /opt/ohpc/pub/libs/gaussian/g16-A.03/sandybridge/g16/l502.exe)
 Keep R1 and R2 ints in memory in symmetry-blocked form, NReq=16815681.
 FoFCou: FMM=F IPFlag=           0 FMFlag=           0 FMFlg1=           0
         NFxFlg=           0 DoJE=F BraDBF=F KetDBF=F FulRan=T
         wScrn=  0.000000 ICntrl=       600 IOpCl=  0 I1Cent=           0 NGrid=           0
         NMat0=    1 NMatS0=   1653 NMatT0=    0 NMatD0=    1 NMtDS0=    0 NMtDT0=    0
 Petite list used in FoFCou.
 UHF open shell SCF:
 Using DIIS extrapolation, IDIIS=    10.
 NGot=  6710886400 LenX=  6710059561 LenY=  6710055871
 Requested convergence on RMS density matrix=1.00D-06 within  32 cycles.
 Requested convergence on MAX density matrix=1.00D-04.
 Requested convergence on             energy=1.00D-04.
 Virtual orbitals will be shifted by   0.500 hartree.
 No special actions if energy rises.
 Dynamic level shift is on during FON iterations.

 Cycle   1  Pass 1  IDiag  1:
 E= -197.201575783882    
 DIIS: error= 4.35D-02 at cycle   1 NSaved=   1.
 NSaved= 1 IEnMin= 1 EnMin= -197.201575783882     IErMin= 1 ErrMin= 4.35D-02
 ErrMax= 4.35D-02  0.00D+00 EMaxC= 1.00D+00 BMatC= 3.45D-01 BMatP= 3.45D-01
 IDIUse=1 WtCom= 1.00D+00 WtEn= 0.00D+00
 Coeff-Com:  0.100D+01
 Coeff:      0.100D+01
 Gap=     0.312 Goal=   None    Shift=    0.500
 T= 1719. Gap= 0.768 NK=0 IS=   19 IE=   57 IFin=   18
          NO(<0.9)=   0  NV(>0.1)=   0     18.00e < EF      0.00e >EF  Err=0.0D+00
 Gap=     0.312 Goal=   None    Shift=    0.500
 T= 1719. Gap= 0.768 NK=0 IS=   19 IE=   57 IFin=   18
          NO(<0.9)=   0  NV(>0.1)=   0     18.00e < EF      0.00e >EF  Err=0.0D+00
 GapD=    0.312 DampG=1.000 DampE=0.500 DampFc=0.5000 IDamp=-1.
 Damping current iteration by 5.00D-01
 RMSDP=7.19D-03 MaxDP=6.29D-02              OVMax= 8.27D-02

 Cycle   2  Pass 1  IDiag  1:
 E= -197.265749447969     Delta-E=       -0.064173664087 Rises=F Damp=T
 DIIS: error= 1.91D-02 at cycle   2 NSaved=   2.
 NSaved= 2 IEnMin= 2 EnMin= -197.265749447969     IErMin= 2 ErrMin= 1.91D-02
 ErrMax= 1.91D-02  0.00D+00 EMaxC= 1.00D+00 BMatC= 6.49D-02 BMatP= 3.45D-01
 IDIUse=1 WtCom= 1.00D+00 WtEn= 0.00D+00
 Coeff-Com: -0.686D+00 0.169D+01
 Coeff:     -0.686D+00 0.169D+01
 Gap=     0.370 Goal=   None    Shift=    0.500
 T= 1595. Gap= 0.857 NK=0 IS=   19 IE=   57 IFin=   18
          NO(<0.9)=   0  NV(>0.1)=   0     18.00e < EF      0.00e >EF  Err=0.0D+00
 Gap=     0.370 Goal=   None    Shift=    0.500
 T= 1595. Gap= 0.857 NK=0 IS=   19 IE=   57 IFin=   18
          NO(<0.9)=   0  NV(>0.1)=   0     18.00e < EF      0.00e >EF  Err=0.0D+00
 GapD=    0.370 DampG=1.000 DampE=0.500 DampFc=0.5000 IDamp=-1.
 Damping current iteration by 5.00D-01
 RMSDP=3.80D-03 MaxDP=2.51D-02 DE=-6.42D-02 OVMax= 9.21D-03

 Cycle   3  Pass 1  IDiag  1:
 E= -197.288313711927     Delta-E=       -0.022564263958 Rises=F Damp=T
 DIIS: error= 8.64D-03 at cycle   3 NSaved=   3.
 NSaved= 3 IEnMin= 3 EnMin= -197.288313711927     IErMin= 3 ErrMin= 8.64D-03
 ErrMax= 8.64D-03  0.00D+00 EMaxC= 1.00D+00 BMatC= 1.33D-02 BMatP= 6.49D-02
 IDIUse=1 WtCom= 1.00D+00 WtEn= 0.00D+00
 Coeff-Com:  0.141D+00-0.125D+01 0.211D+01
 Coeff:      0.141D+00-0.125D+01 0.211D+01
 Gap=     0.355 Goal=   None    Shift=    0.500
 T= 1356. Gap= 0.855 NK=0 IS=   19 IE=   57 IFin=   18
          NO(<0.9)=   0  NV(>0.1)=   0     18.00e < EF      0.00e >EF  Err=0.0D+00
 Gap=     0.355 Goal=   None    Shift=    0.500
 T= 1356. Gap= 0.855 NK=0 IS=   19 IE=   57 IFin=   18
          NO(<0.9)=   0  NV(>0.1)=   0     18.00e < EF      0.00e >EF  Err=0.0D+00
 GapD=    0.355 DampG=1.000 DampE=1.000 DampFc=1.0000 IDamp=-1.
 RMSDP=1.94D-03 MaxDP=1.27D-02 DE=-2.26D-02 OVMax= 7.03D-03

 Cycle   4  Pass 1  IDiag  1:
 E= -197.306700964578     Delta-E=       -0.018387252651 Rises=F Damp=F
 DIIS: error= 1.70D-03 at cycle   4 NSaved=   4.
 NSaved= 4 IEnMin= 4 EnMin= -197.306700964578     IErMin= 4 ErrMin= 1.70D-03
 ErrMax= 1.70D-03  0.00D+00 EMaxC= 1.00D+00 BMatC= 4.17D-04 BMatP= 1.33D-02
 IDIUse=1 WtCom= 1.00D+00 WtEn= 0.00D+00
 Coeff-Com:  0.112D+00-0.101D+00-0.242D+00 0.123D+01
 Coeff:      0.112D+00-0.101D+00-0.242D+00 0.123D+01
 Gap=     0.356 Goal=   None    Shift=    0.500
 T=  825. Gap= 0.856 NK=0 IS=   19 IE=   57 IFin=   18
          NO(<0.9)=   0  NV(>0.1)=   0     18.00e < EF      0.00e >EF  Err=0.0D+00
 Gap=     0.356 Goal=   None    Shift=    0.500
 T=  825. Gap= 0.856 NK=0 IS=   19 IE=   57 IFin=   18
          NO(<0.9)=   0  NV(>0.1)=   0     18.00e < EF      0.00e >EF  Err=0.0D+00
 GapD=    0.356 DampG=1.000 DampE=1.000 DampFc=1.0000 IDamp=-1.
 RMSDP=3.58D-04 MaxDP=2.86D-03 DE=-1.84D-02 OVMax= 3.04D-03

 Cycle   5  Pass 1  IDiag  1:
 E= -197.306874417126     Delta-E=       -0.000173452548 Rises=F Damp=F
 DIIS: error= 8.29D-04 at cycle   5 NSaved=   5.
 NSaved= 5 IEnMin= 5 EnMin= -197.306874417126     IErMin= 5 ErrMin= 8.29D-04
 ErrMax= 8.29D-04  0.00D+00 EMaxC= 1.00D+00 BMatC= 6.37D-05 BMatP= 4.17D-04
 IDIUse=1 WtCom= 1.00D+00 WtEn= 0.00D+00
 Coeff-Com: -0.441D-01 0.214D+00-0.278D+00-0.685D+00 0.179D+01
 Coeff:     -0.441D-01 0.214D+00-0.278D+00-0.685D+00 0.179D+01
 Gap=     0.356 Goal=   None    Shift=    0.500
 Gap=     0.356 Goal=   None    Shift=    0.500
 RMSDP=2.06D-04 MaxDP=1.67D-03 DE=-1.73D-04 OVMax= 2.72D-03

 Cycle   6  Pass 1  IDiag  1:
 E= -197.306921111363     Delta-E=       -0.000046694237 Rises=F Damp=F
 DIIS: error= 5.82D-04 at cycle   6 NSaved=   6.
 NSaved= 6 IEnMin= 6 EnMin= -197.306921111363     IErMin= 6 ErrMin= 5.82D-04
 ErrMax= 5.82D-04  0.00D+00 EMaxC= 1.00D+00 BMatC= 1.34D-05 BMatP= 6.37D-05
 IDIUse=1 WtCom= 1.00D+00 WtEn= 0.00D+00
 Coeff-Com: -0.125D-03-0.485D-01 0.942D-01 0.220D+00-0.172D+01 0.245D+01
 Coeff:     -0.125D-03-0.485D-01 0.942D-01 0.220D+00-0.172D+01 0.245D+01
 Gap=     0.356 Goal=   None    Shift=    0.500
 Gap=     0.356 Goal=   None    Shift=    0.500
 RMSDP=1.04D-04 MaxDP=8.06D-04 DE=-4.67D-05 OVMax= 1.74D-03

 Cycle   7  Pass 1  IDiag  1:
 E= -197.306934383711     Delta-E=       -0.000013272348 Rises=F Damp=F
 DIIS: error= 3.78D-04 at cycle   7 NSaved=   7.
 NSaved= 7 IEnMin= 7 EnMin= -197.306934383711     IErMin= 7 ErrMin= 3.78D-04
 ErrMax= 3.78D-04  0.00D+00 EMaxC= 1.00D+00 BMatC= 3.73D-06 BMatP= 1.34D-05
 IDIUse=1 WtCom= 1.00D+00 WtEn= 0.00D+00
 Coeff-Com: -0.854D-03 0.515D-01-0.102D+00 0.821D-01 0.564D+00-0.254D+01
 Coeff-Com:  0.295D+01
 Coeff:     -0.854D-03 0.515D-01-0.102D+00 0.821D-01 0.564D+00-0.254D+01
 Coeff:      0.295D+01
 Gap=     0.356 Goal=   None    Shift=    0.500
 Gap=     0.356 Goal=   None    Shift=    0.500
 RMSDP=4.80D-05 MaxDP=3.80D-04 DE=-1.33D-05 OVMax= 1.04D-03

 Cycle   8  Pass 1  IDiag  1:
 E= -197.306938206123     Delta-E=       -0.000003822412 Rises=F Damp=F
 DIIS: error= 2.42D-04 at cycle   8 NSaved=   8.
 NSaved= 8 IEnMin= 8 EnMin= -197.306938206123     IErMin= 8 ErrMin= 2.42D-04
 ErrMax= 2.42D-04  0.00D+00 EMaxC= 1.00D+00 BMatC= 1.34D-06 BMatP= 3.73D-06
 IDIUse=1 WtCom= 1.00D+00 WtEn= 0.00D+00
 Coeff-Com: -0.230D-02 0.479D-01-0.884D-01 0.365D-01 0.520D+00-0.161D+01
 Coeff-Com:  0.828D+00 0.127D+01
 Coeff:     -0.230D-02 0.479D-01-0.884D-01 0.365D-01 0.520D+00-0.161D+01
 Coeff:      0.828D+00 0.127D+01
 Gap=     0.356 Goal=   None    Shift=    0.500
 Gap=     0.356 Goal=   None    Shift=    0.500
 RMSDP=2.21D-05 MaxDP=1.68D-04 DE=-3.82D-06 OVMax= 6.02D-04

 Cycle   9  Pass 1  IDiag  1:
 E= -197.306939333316     Delta-E=       -0.000001127193 Rises=F Damp=F
 DIIS: error= 1.40D-04 at cycle   9 NSaved=   9.
 NSaved= 9 IEnMin= 9 EnMin= -197.306939333316     IErMin= 9 ErrMin= 1.40D-04
 ErrMax= 1.40D-04  0.00D+00 EMaxC= 1.00D+00 BMatC= 4.51D-07 BMatP= 1.34D-06
 IDIUse=1 WtCom= 1.00D+00 WtEn= 0.00D+00
 Coeff-Com: -0.132D-02 0.828D-02-0.120D-01 0.504D-03 0.535D-02 0.292D+00
 Coeff-Com: -0.835D+00-0.425D+00 0.197D+01
 Coeff:     -0.132D-02 0.828D-02-0.120D-01 0.504D-03 0.535D-02 0.292D+00
 Coeff:     -0.835D+00-0.425D+00 0.197D+01
 Gap=     0.356 Goal=   None    Shift=    0.500
 Gap=     0.356 Goal=   None    Shift=    0.500
 RMSDP=1.11D-05 MaxDP=9.40D-05 DE=-1.13D-06 OVMax= 3.37D-04

 Cycle  10  Pass 1  IDiag  1:
 E= -197.306939668649     Delta-E=       -0.000000335333 Rises=F Damp=F
 DIIS: error= 8.42D-05 at cycle  10 NSaved=  10.
 NSaved=10 IEnMin=10 EnMin= -197.306939668649     IErMin=10 ErrMin= 8.42D-05
 ErrMax= 8.42D-05  0.00D+00 EMaxC= 1.00D+00 BMatC= 1.67D-07 BMatP= 4.51D-07
 IDIUse=1 WtCom= 1.00D+00 WtEn= 0.00D+00
 Coeff-Com:  0.768D-03-0.521D-02 0.734D-02 0.151D-01-0.908D-01 0.851D-01
 Coeff-Com:  0.406D+00-0.795D+00-0.116D+01 0.254D+01
 Coeff:      0.768D-03-0.521D-02 0.734D-02 0.151D-01-0.908D-01 0.851D-01
 Coeff:      0.406D+00-0.795D+00-0.116D+01 0.254D+01
 Gap=     0.356 Goal=   None    Shift=    0.500
 Gap=     0.356 Goal=   None    Shift=    0.500
 RMSDP=5.62D-06 MaxDP=4.99D-05 DE=-3.35D-07 OVMax= 1.92D-04

 Cycle  11  Pass 1  IDiag  1:
 E= -197.306939773052     Delta-E=       -0.000000104403 Rises=F Damp=F
 DIIS: error= 4.96D-05 at cycle  11 NSaved=  11.
 NSaved=11 IEnMin=11 EnMin= -197.306939773052     IErMin=11 ErrMin= 4.96D-05
 ErrMax= 4.96D-05  0.00D+00 EMaxC= 1.00D+00 BMatC= 6.11D-08 BMatP= 1.67D-07
 IDIUse=1 WtCom= 1.00D+00 WtEn= 0.00D+00
 Coeff-Com: -0.164D-03 0.176D-02-0.299D-02 0.126D-02 0.117D-01-0.170D-01
 Coeff-Com: -0.412D-04-0.160D-01 0.415D+00-0.228D+01 0.289D+01
 Coeff:     -0.164D-03 0.176D-02-0.299D-02 0.126D-02 0.117D-01-0.170D-01
 Coeff:     -0.412D-04-0.160D-01 0.415D+00-0.228D+01 0.289D+01
 Gap=     0.356 Goal=   None    Shift=    0.500
 Gap=     0.356 Goal=   None    Shift=    0.500
 RMSDP=2.87D-06 MaxDP=2.67D-05 DE=-1.04D-07 OVMax= 1.10D-04

 Cycle  12  Pass 1  IDiag  1:
 E= -197.306939806395     Delta-E=       -0.000000033342 Rises=F Damp=F
 DIIS: error= 2.85D-05 at cycle  12 NSaved=  12.
 NSaved=12 IEnMin=12 EnMin= -197.306939806395     IErMin=12 ErrMin= 2.85D-05
 ErrMax= 2.85D-05  0.00D+00 EMaxC= 1.00D+00 BMatC= 2.12D-08 BMatP= 6.11D-08
 IDIUse=1 WtCom= 1.00D+00 WtEn= 0.00D+00
 Coeff-Com: -0.407D-04 0.234D-03-0.324D-03 0.890D-03-0.564D-02 0.151D-01
 Coeff-Com: -0.144D-01-0.243D-01 0.679D-01 0.638D+00-0.309D+01 0.341D+01
 Coeff:     -0.407D-04 0.234D-03-0.324D-03 0.890D-03-0.564D-02 0.151D-01
 Coeff:     -0.144D-01-0.243D-01 0.679D-01 0.638D+00-0.309D+01 0.341D+01
 Gap=     0.356 Goal=   None    Shift=    0.500
 Gap=     0.356 Goal=   None    Shift=    0.500
 RMSDP=1.51D-06 MaxDP=1.43D-05 DE=-3.33D-08 OVMax= 6.12D-05

 Cycle  13  Pass 1  IDiag  1:
 E= -197.306939816865     Delta-E=       -0.000000010470 Rises=F Damp=F
 DIIS: error= 1.63D-05 at cycle  13 NSaved=  13.
 NSaved=13 IEnMin=13 EnMin= -197.306939816865     IErMin=13 ErrMin= 1.63D-05
 ErrMax= 1.63D-05  0.00D+00 EMaxC= 1.00D+00 BMatC= 7.31D-09 BMatP= 2.12D-08
 IDIUse=1 WtCom= 1.00D+00 WtEn= 0.00D+00
 Coeff-Com:  0.971D-04-0.675D-03 0.967D-03 0.155D-02-0.108D-01 0.152D-01
 Coeff-Com:  0.298D-01-0.663D-01-0.867D-01 0.134D+00 0.873D+00-0.339D+01
 Coeff-Com:  0.350D+01
 Coeff:      0.971D-04-0.675D-03 0.967D-03 0.155D-02-0.108D-01 0.152D-01
 Coeff:      0.298D-01-0.663D-01-0.867D-01 0.134D+00 0.873D+00-0.339D+01
 Coeff:      0.350D+01
 Gap=     0.356 Goal=   None    Shift=    0.500
 Gap=     0.356 Goal=   None    Shift=    0.500
 RMSDP=8.11D-07 MaxDP=7.98D-06 DE=-1.05D-08 OVMax= 3.42D-05

 SCF Done:  E(ULC-wHPBE) =  -197.306939817     A.U. after   13 cycles
            NFock= 13  Conv=0.81D-06     -V/T= 2.0221
 <Sx>= 0.0000 <Sy>= 0.0000 <Sz>= 0.0000 <S**2>=-0.0000 S=-0.0000
 <L.S>= 0.000000000000E+00
 KE= 1.930492206611D+02 PE=-7.617733258500D+02 EE= 2.154044228861D+02
 Annihilation of the first spin contaminant:
 S**2 before annihilation    -0.0000,   after     0.0000
 Leave Link  502 at Thu Mar  5 12:52:29 2020, MaxMem=  6710886400 cpu:              28.5 elap:               1.8
 (Enter /opt/ohpc/pub/libs/gaussian/g16-A.03/sandybridge/g16/l508.exe)
 QCSCF skips out because SCF is already converged.
 Leave Link  508 at Thu Mar  5 12:52:29 2020, MaxMem=  6710886400 cpu:               0.1 elap:               0.0
 (Enter /opt/ohpc/pub/libs/gaussian/g16-A.03/sandybridge/g16/l601.exe)
 Copying SCF densities to generalized density rwf, IOpCl= 1 IROHF=0.

 **********************************************************************

            Population analysis using the SCF density.

 **********************************************************************

 Orbital symmetries:
 Alpha Orbitals:
       Occupied  (B2) (A1) (B2) (A1) (A1) (A1) (A1) (B2) (A1) (B2)
                 (A1) (B2) (A1) (A1) (B2) (B1) (A2) (B1)
       Virtual   (A2) (B2) (A1) (B1) (A1) (B2) (A1) (B2) (A1) (A1)
                 (B2) (A1) (B2) (B2) (B1) (A2) (A1) (B1) (A1) (B2)
                 (A1) (A2) (B1) (B2) (B2) (A1) (B2) (A1) (A1) (B2)
                 (A1) (A1) (A1) (B2) (A1) (B2) (A1) (A1) (B2)
 Beta  Orbitals:
       Occupied  (B2) (A1) (B2) (A1) (A1) (A1) (A1) (B2) (A1) (B2)
                 (A1) (B2) (A1) (A1) (B2) (B1) (A2) (B1)
       Virtual   (A2) (B2) (A1) (B1) (A1) (B2) (A1) (B2) (A1) (A1)
                 (B2) (A1) (B2) (B2) (B1) (A2) (A1) (B1) (A1) (B2)
                 (A1) (A2) (B1) (B2) (B2) (A1) (B2) (A1) (A1) (B2)
                 (A1) (A1) (A1) (B2) (A1) (B2) (A1) (A1) (B2)
 The electronic state is 1-A1.
 Alpha  occ. eigenvalues --  -10.18738 -10.18736 -10.15106 -10.15106 -10.11561
 Alpha  occ. eigenvalues --   -1.05287  -0.92431  -0.89451  -0.74950  -0.73625
 Alpha  occ. eigenvalues --   -0.69427  -0.58745  -0.57965  -0.54896  -0.53562
 Alpha  occ. eigenvalues --   -0.52570  -0.38723  -0.34472
 Alpha virt. eigenvalues --    0.01155   0.02026   0.06479   0.08615   0.10596
 Alpha virt. eigenvalues --    0.15361   0.17067   0.18897   0.19735   0.32105
 Alpha virt. eigenvalues --    0.33408   0.43425   0.43995   0.52939   0.54529
 Alpha virt. eigenvalues --    0.61055   0.61872   0.61961   0.63807   0.65224
 Alpha virt. eigenvalues --    0.66465   0.67565   0.70115   0.77313   0.83198
 Alpha virt. eigenvalues --    0.86031   0.87601   0.87773   0.89614   0.96541
 Alpha virt. eigenvalues --    0.96746   0.99903   1.04392   1.10872   1.18906
 Alpha virt. eigenvalues --    1.20559   1.27473   1.48525   1.49598
  Beta  occ. eigenvalues --  -10.18738 -10.18736 -10.15106 -10.15106 -10.11561
  Beta  occ. eigenvalues --   -1.05287  -0.92431  -0.89451  -0.74950  -0.73625
  Beta  occ. eigenvalues --   -0.69427  -0.58745  -0.57965  -0.54896  -0.53562
  Beta  occ. eigenvalues --   -0.52570  -0.38723  -0.34472
  Beta virt. eigenvalues --    0.01155   0.02026   0.06479   0.08615   0.10596
  Beta virt. eigenvalues --    0.15361   0.17067   0.18897   0.19735   0.32105
  Beta virt. eigenvalues --    0.33408   0.43425   0.43995   0.52939   0.54529
  Beta virt. eigenvalues --    0.61055   0.61872   0.61961   0.63807   0.65224
  Beta virt. eigenvalues --    0.66465   0.67565   0.70115   0.77313   0.83198
  Beta virt. eigenvalues --    0.86031   0.87601   0.87773   0.89614   0.96541
  Beta virt. eigenvalues --    0.96746   0.99903   1.04392   1.10872   1.18906
  Beta virt. eigenvalues --    1.20559   1.27473   1.48525   1.49598
          Condensed to atoms (all electrons):
               1          2          3          4          5          6
     1  C    5.448329   0.472942  -0.055872  -0.128038   0.254801   0.167001
     2  C    0.472942   4.910186   0.553744  -0.017080  -0.128038  -0.019030
     3  C   -0.055872   0.553744   4.848444   0.553744  -0.055872   0.004930
     4  C   -0.128038  -0.017080   0.553744   4.910186   0.472942  -0.019030
     5  C    0.254801  -0.128038  -0.055872   0.472942   5.448329   0.167001
     6  H    0.167001  -0.019030   0.004930  -0.019030   0.167001   0.386612
     7  H    0.346128  -0.000023  -0.000176   0.003982  -0.023474  -0.012619
     8  H   -0.036822   0.364744  -0.016197   0.004360   0.001682   0.000814
     9  H    0.006266  -0.038209   0.374468  -0.038209   0.006266  -0.000092
    10  H    0.001682   0.004360  -0.016197   0.364744  -0.036822   0.000814
    11  H   -0.023474   0.003982  -0.000176  -0.000023   0.346128  -0.012619
               7          8          9         10         11
     1  C    0.346128  -0.036822   0.006266   0.001682  -0.023474
     2  C   -0.000023   0.364744  -0.038209   0.004360   0.003982
     3  C   -0.000176  -0.016197   0.374468  -0.016197  -0.000176
     4  C    0.003982   0.004360  -0.038209   0.364744  -0.000023
     5  C   -0.023474   0.001682   0.006266  -0.036822   0.346128
     6  H   -0.012619   0.000814  -0.000092   0.000814  -0.012619
     7  H    0.455726  -0.000131  -0.000100  -0.000035   0.000793
     8  H   -0.000131   0.502825  -0.001896  -0.000156  -0.000035
     9  H   -0.000100  -0.001896   0.539321  -0.001896  -0.000100
    10  H   -0.000035  -0.000156  -0.001896   0.502825  -0.000131
    11  H    0.000793  -0.000035  -0.000100  -0.000131   0.455726
          Atomic-Atomic Spin Densities.
               1          2          3          4          5          6
     1  C    0.000000   0.000000  -0.000000   0.000000  -0.000000   0.000000
     2  C    0.000000  -0.000000   0.000000   0.000000   0.000000   0.000000
     3  C   -0.000000   0.000000   0.000000   0.000000  -0.000000   0.000000
     4  C    0.000000   0.000000   0.000000  -0.000000   0.000000   0.000000
     5  C   -0.000000   0.000000  -0.000000   0.000000   0.000000   0.000000
     6  H    0.000000   0.000000   0.000000   0.000000   0.000000   0.000000
     7  H   -0.000000  -0.000000   0.000000  -0.000000  -0.000000   0.000000
     8  H   -0.000000  -0.000000   0.000000  -0.000000   0.000000   0.000000
     9  H   -0.000000   0.000000  -0.000000   0.000000  -0.000000   0.000000
    10  H    0.000000  -0.000000   0.000000  -0.000000  -0.000000   0.000000
    11  H   -0.000000  -0.000000   0.000000  -0.000000  -0.000000   0.000000
               7          8          9         10         11
     1  C   -0.000000  -0.000000  -0.000000   0.000000  -0.000000
     2  C   -0.000000  -0.000000   0.000000  -0.000000  -0.000000
     3  C    0.000000   0.000000  -0.000000   0.000000   0.000000
     4  C   -0.000000  -0.000000   0.000000  -0.000000  -0.000000
     5  C   -0.000000   0.000000  -0.000000  -0.000000  -0.000000
     6  H    0.000000   0.000000   0.000000   0.000000   0.000000
     7  H    0.000000  -0.000000   0.000000  -0.000000   0.000000
     8  H   -0.000000  -0.000000   0.000000  -0.000000  -0.000000
     9  H    0.000000   0.000000  -0.000000   0.000000   0.000000
    10  H   -0.000000  -0.000000   0.000000  -0.000000  -0.000000
    11  H    0.000000  -0.000000   0.000000  -0.000000   0.000000
 Mulliken charges and spin densities:
               1          2
     1  C   -0.452943   0.000000
     2  C   -0.107578  -0.000000
     3  C   -0.190840   0.000000
     4  C   -0.107578  -0.000000
     5  C   -0.452943   0.000000
     6  H    0.336218   0.000000
     7  H    0.229928   0.000000
     8  H    0.180813  -0.000000
     9  H    0.154181  -0.000000
    10  H    0.180813  -0.000000
    11  H    0.229928   0.000000
 Sum of Mulliken charges =  -0.00000   0.00000
 Mulliken charges and spin densities with hydrogens summed into heavy atoms:
               1          2
     1  C    0.113203   0.000000
     2  C    0.073235  -0.000000
     3  C   -0.036658   0.000000
     4  C    0.073235  -0.000000
     5  C   -0.223015   0.000000
 Electronic spatial extent (au):  <R**2>=            335.0630
 Charge=             -0.0000 electrons
 Dipole moment (field-independent basis, Debye):
    X=             -0.0000    Y=             -0.0000    Z=             -1.9792  Tot=              1.9792
 Quadrupole moment (field-independent basis, Debye-Ang):
   XX=            -34.9471   YY=            -25.4214   ZZ=            -23.3734
   XY=              0.0000   XZ=              0.0000   YZ=              0.0000
 Traceless Quadrupole moment (field-independent basis, Debye-Ang):
   XX=             -7.0331   YY=              2.4925   ZZ=              4.5406
   XY=              0.0000   XZ=              0.0000   YZ=              0.0000
 Octapole moment (field-independent basis, Debye-Ang**2):
  XXX=              0.0000  YYY=              0.0000  ZZZ=             -8.8574  XYY=              0.0000
  XXY=              0.0000  XXZ=              0.8289  XZZ=              0.0000  YZZ=             -0.0000
  YYZ=             -0.9889  XYZ=             -0.0000
 Hexadecapole moment (field-independent basis, Debye-Ang**3):
 XXXX=            -37.0335 YYYY=           -181.2294 ZZZZ=           -168.2781 XXXY=             -0.0000
 XXXZ=             -0.0000 YYYX=             -0.0000 YYYZ=             -0.0000 ZZZX=             -0.0000
 ZZZY=             -0.0000 XXYY=            -46.4157 XXZZ=            -45.3849 YYZZ=            -57.4959
 XXYZ=              0.0000 YYXZ=             -0.0000 ZZXY=             -0.0000
 N-N= 1.560127424860D+02 E-N=-7.617733046343D+02  KE= 1.930492206611D+02
 Symmetry A1   KE= 1.110214225945D+02
 Symmetry A2   KE= 2.446067102877D+00
 Symmetry B1   KE= 4.297188114369D+00
 Symmetry B2   KE= 7.528454284935D+01
 Symmetry A1   SP= 1.471015411282D-14
 Symmetry A2   SP=-8.615806853038D-16
 Symmetry B1   SP= 3.670623031501D-15
 Symmetry B2   SP= 1.598403970086D-14
                          Isotropic Fermi Contact Couplings
        Atom                 a.u.       MegaHertz       Gauss      10(-4) cm-1
     1  C(13)              0.00000       0.00000       0.00000       0.00000
     2  C(13)              0.00000       0.00000       0.00000       0.00000
     3  C(13)              0.00000       0.00000       0.00000       0.00000
     4  C(13)              0.00000       0.00000       0.00000       0.00000
     5  C(13)              0.00000       0.00000       0.00000       0.00000
     6  H(1)               0.00000       0.00000       0.00000       0.00000
     7  H(1)               0.00000       0.00000       0.00000       0.00000
     8  H(1)              -0.00000      -0.00000      -0.00000      -0.00000
     9  H(1)              -0.00000      -0.00000      -0.00000      -0.00000
    10  H(1)              -0.00000      -0.00000      -0.00000      -0.00000
    11  H(1)               0.00000       0.00000       0.00000       0.00000
 --------------------------------------------------------
       Center         ----  Spin Dipole Couplings  ----
                      3XX-RR        3YY-RR        3ZZ-RR
 --------------------------------------------------------
     1   Atom        0.000000      0.000000      0.000000
     2   Atom        0.000000      0.000000      0.000000
     3   Atom        0.000000      0.000000      0.000000
     4   Atom        0.000000      0.000000      0.000000
     5   Atom        0.000000      0.000000      0.000000
     6   Atom        0.000000      0.000000      0.000000
     7   Atom        0.000000      0.000000      0.000000
     8   Atom        0.000000      0.000000      0.000000
     9   Atom        0.000000      0.000000      0.000000
    10   Atom        0.000000      0.000000      0.000000
    11   Atom        0.000000      0.000000      0.000000
 --------------------------------------------------------
                        XY            XZ            YZ
 --------------------------------------------------------
     1   Atom        0.000000      0.000000      0.000000
     2   Atom        0.000000      0.000000      0.000000
     3   Atom        0.000000      0.000000      0.000000
     4   Atom        0.000000      0.000000      0.000000
     5   Atom        0.000000      0.000000      0.000000
     6   Atom        0.000000      0.000000      0.000000
     7   Atom        0.000000      0.000000      0.000000
     8   Atom        0.000000      0.000000      0.000000
     9   Atom        0.000000      0.000000      0.000000
    10   Atom        0.000000      0.000000      0.000000
    11   Atom        0.000000      0.000000      0.000000
 --------------------------------------------------------


 ---------------------------------------------------------------------------------
              Anisotropic Spin Dipole Couplings in Principal Axis System
 ---------------------------------------------------------------------------------

       Atom             a.u.   MegaHertz   Gauss  10(-4) cm-1        Axes

              Baa     0.0000     0.000     0.000     0.000  1.0000  0.0000  0.0000
     1 C(13)  Bbb     0.0000     0.000     0.000     0.000 -0.0000  1.0000  0.0000
              Bcc     0.0000     0.000     0.000     0.000  0.0000  0.0000  1.0000
 
              Baa     0.0000     0.000     0.000     0.000  1.0000  0.0000  0.0000
     2 C(13)  Bbb     0.0000     0.000     0.000     0.000 -0.0000  1.0000  0.0000
              Bcc     0.0000     0.000     0.000     0.000  0.0000  0.0000  1.0000
 
              Baa     0.0000     0.000     0.000     0.000  1.0000  0.0000  0.0000
     3 C(13)  Bbb     0.0000     0.000     0.000     0.000 -0.0000  1.0000  0.0000
              Bcc     0.0000     0.000     0.000     0.000  0.0000  0.0000  1.0000
 
              Baa     0.0000     0.000     0.000     0.000  1.0000  0.0000  0.0000
     4 C(13)  Bbb     0.0000     0.000     0.000     0.000 -0.0000  1.0000  0.0000
              Bcc     0.0000     0.000     0.000     0.000  0.0000  0.0000  1.0000
 
              Baa     0.0000     0.000     0.000     0.000  1.0000  0.0000  0.0000
     5 C(13)  Bbb     0.0000     0.000     0.000     0.000 -0.0000  1.0000  0.0000
              Bcc     0.0000     0.000     0.000     0.000  0.0000  0.0000  1.0000
 
              Baa     0.0000     0.000     0.000     0.000  1.0000  0.0000  0.0000
     6 H(1)   Bbb     0.0000     0.000     0.000     0.000 -0.0000  1.0000  0.0000
              Bcc     0.0000     0.000     0.000     0.000  0.0000  0.0000  1.0000
 
              Baa     0.0000     0.000     0.000     0.000  1.0000  0.0000  0.0000
     7 H(1)   Bbb     0.0000     0.000     0.000     0.000 -0.0000  1.0000  0.0000
              Bcc     0.0000     0.000     0.000     0.000  0.0000  0.0000  1.0000
 
              Baa     0.0000     0.000     0.000     0.000  1.0000  0.0000  0.0000
     8 H(1)   Bbb     0.0000     0.000     0.000     0.000 -0.0000  1.0000  0.0000
              Bcc     0.0000     0.000     0.000     0.000  0.0000  0.0000  1.0000
 
              Baa     0.0000     0.000     0.000     0.000  1.0000  0.0000  0.0000
     9 H(1)   Bbb     0.0000     0.000     0.000     0.000 -0.0000  1.0000  0.0000
              Bcc     0.0000     0.000     0.000     0.000  0.0000  0.0000  1.0000
 
              Baa     0.0000     0.000     0.000     0.000  1.0000  0.0000  0.0000
    10 H(1)   Bbb     0.0000     0.000     0.000     0.000 -0.0000  1.0000  0.0000
              Bcc     0.0000     0.000     0.000     0.000  0.0000  0.0000  1.0000
 
              Baa     0.0000     0.000     0.000     0.000  1.0000  0.0000  0.0000
    11 H(1)   Bbb     0.0000     0.000     0.000     0.000 -0.0000  1.0000  0.0000
              Bcc     0.0000     0.000     0.000     0.000  0.0000  0.0000  1.0000
 

 ---------------------------------------------------------------------------------

 No NMR shielding tensors so no spin-rotation constants.
 Leave Link  601 at Thu Mar  5 12:52:29 2020, MaxMem=  6710886400 cpu:               2.2 elap:               0.2
 (Enter /opt/ohpc/pub/libs/gaussian/g16-A.03/sandybridge/g16/l9999.exe)

 Test job not archived.
 1\1\GINC-CNODE212\SP\ULC-wHPBE\6-31G\C5H6\SMGO234\05-Mar-2020\0\\#P uL
 C-wHPBE/6-31G iop(3/130=0245600000, 3/131=0245600000, 3/119=0754400000
 , 3/120=0754400000) scf=(conver=6,fermi,ndamp=35,noincfock,novaracc,vs
 hift=500,xqc)\\H6 C5\\0,1\C,0,0.,0.878804,-0.931542\C,0,0.,1.128157,0.
 423457\C,0,0.,0.,1.240879\C,0,0.,-1.128157,0.423457\C,0,0.,-0.878804,-
 0.931542\H,0,0.,0.,-1.732269\H,0,0.,1.6083,-1.734053\H,0,0.,2.156626,0
 .76567\H,0,0.,0.,2.320778\H,0,0.,-2.156626,0.76567\H,0,0.,-1.6083,-1.7
 34053\\Version=EM64L-G16RevA.03\State=1-A1\HF=-197.3069398\S2=0.\S2-1=
 0.\S2A=0.\RMSD=8.113e-07\Dipole=0.,0.,-0.7786943\Quadrupole=-5.2289599
 ,1.8531392,3.3758207,0.,0.,0.\PG=C02V [C2(H1C1H1),SGV(C4H4)]\\@


 HE THAT WALD REACHE THE SWEITE ROSE
 SULD NOW AND THEN BE SCRATCHED WT THE SCHARPE BREERES.
 -- PROVERBS AND REASONS OF THE YEAR 1585
           AS REPRINTED IN PAISLEY MAGAZINE 1828.
 Job cpu time:       0 days  0 hours  0 minutes 57.0 seconds.
 Elapsed time:       0 days  0 hours  0 minutes  3.9 seconds.
 File lengths (MBytes):  RWF=    272 Int=      0 D2E=      0 Chk=     32 Scr=     32
 Normal termination of Gaussian 16 at Thu Mar  5 12:52:29 2020.
