 Entering Gaussian System, Link 0=g16
 Input=a1b_tune_n9.gjf
 Output=a1b_tune_n9.log
 Initial command:
 /opt/ohpc/pub/libs/gaussian/g16-A.03/sandybridge/g16/l1.exe "/scratch/smgo234/Ocelot/test/a1b/tuning_a1b_acycle1/Gau-81378.inp" -scrdir="/scratch/smgo234/Ocelot/test/a1b/tuning_a1b_acycle1/"
 Entering Link 1 = /opt/ohpc/pub/libs/gaussian/g16-A.03/sandybridge/g16/l1.exe PID=     81379.
  
 Copyright (c) 1988,1990,1992,1993,1995,1998,2003,2009,2016,
            Gaussian, Inc.  All Rights Reserved.
  
 This is part of the Gaussian(R) 16 program.  It is based on
 the Gaussian(R) 09 system (copyright 2009, Gaussian, Inc.),
 the Gaussian(R) 03 system (copyright 2003, Gaussian, Inc.),
 the Gaussian(R) 98 system (copyright 1998, Gaussian, Inc.),
 the Gaussian(R) 94 system (copyright 1995, Gaussian, Inc.),
 the Gaussian 92(TM) system (copyright 1992, Gaussian, Inc.),
 the Gaussian 90(TM) system (copyright 1990, Gaussian, Inc.),
 the Gaussian 88(TM) system (copyright 1988, Gaussian, Inc.),
 the Gaussian 86(TM) system (copyright 1986, Carnegie Mellon
 University), and the Gaussian 82(TM) system (copyright 1983,
 Carnegie Mellon University). Gaussian is a federally registered
 trademark of Gaussian, Inc.
  
 This software contains proprietary and confidential information,
 including trade secrets, belonging to Gaussian, Inc.
  
 This software is provided under written license and may be
 used, copied, transmitted, or stored only in accord with that
 written license.
  
 The following legend is applicable only to US Government
 contracts under FAR:
  
                    RESTRICTED RIGHTS LEGEND
  
 Use, reproduction and disclosure by the US Government is
 subject to restrictions as set forth in subparagraphs (a)
 and (c) of the Commercial Computer Software - Restricted
 Rights clause in FAR 52.227-19.
  
 Gaussian, Inc.
 340 Quinnipiac St., Bldg. 40, Wallingford CT 06492
  
  
 ---------------------------------------------------------------
 Warning -- This program may not be used in any manner that
 competes with the business of Gaussian, Inc. or will provide
 assistance to any competitor of Gaussian, Inc.  The licensee
 of this program is prohibited from giving any competitor of
 Gaussian, Inc. access to this program.  By using this program,
 the user acknowledges that Gaussian, Inc. is engaged in the
 business of creating and licensing software in the field of
 computational chemistry and represents and warrants to the
 licensee that it is not a competitor of Gaussian, Inc. and that
 it will not use this program in any manner prohibited above.
 ---------------------------------------------------------------
  

 Cite this work as:
 Gaussian 16, Revision A.03,
 M. J. Frisch, G. W. Trucks, H. B. Schlegel, G. E. Scuseria, 
 M. A. Robb, J. R. Cheeseman, G. Scalmani, V. Barone, 
 G. A. Petersson, H. Nakatsuji, X. Li, M. Caricato, A. V. Marenich, 
 J. Bloino, B. G. Janesko, R. Gomperts, B. Mennucci, H. P. Hratchian, 
 J. V. Ortiz, A. F. Izmaylov, J. L. Sonnenberg, D. Williams-Young, 
 F. Ding, F. Lipparini, F. Egidi, J. Goings, B. Peng, A. Petrone, 
 T. Henderson, D. Ranasinghe, V. G. Zakrzewski, J. Gao, N. Rega, 
 G. Zheng, W. Liang, M. Hada, M. Ehara, K. Toyota, R. Fukuda, 
 J. Hasegawa, M. Ishida, T. Nakajima, Y. Honda, O. Kitao, H. Nakai, 
 T. Vreven, K. Throssell, J. A. Montgomery, Jr., J. E. Peralta, 
 F. Ogliaro, M. J. Bearpark, J. J. Heyd, E. N. Brothers, K. N. Kudin, 
 V. N. Staroverov, T. A. Keith, R. Kobayashi, J. Normand, 
 K. Raghavachari, A. P. Rendell, J. C. Burant, S. S. Iyengar, 
 J. Tomasi, M. Cossi, J. M. Millam, M. Klene, C. Adamo, R. Cammi, 
 J. W. Ochterski, R. L. Martin, K. Morokuma, O. Farkas, 
 J. B. Foresman, and D. J. Fox, Gaussian, Inc., Wallingford CT, 2016.
 
 ******************************************
 Gaussian 16:  EM64L-G16RevA.03 25-Dec-2016
                 5-Mar-2020 
 ******************************************
 %mem=50GB
 %nproc=16
 Will use up to   16 processors via shared memory.
 ----------------------------------------------------------------------
 #P uLC-wHPBE/6-31G iop(3/130=0242800000, 3/131=0242800000, 3/119=07572
 00000, 3/120=0757200000) scf=(conver=6,fermi,ndamp=35,noincfock,novara
 cc,vshift=500,xqc)
 ----------------------------------------------------------------------
 1/38=1,172=1/1;
 2/12=2,17=6,18=5,40=1/2;
 3/5=1,6=6,11=2,25=1,30=1,74=-71,116=2,119=757200000,120=757200000,130=242800000,131=242800000/1,2,3;
 4//1;
 5/5=100002,6=6,8=3,10=500,13=1,18=-1,22=13,38=1,93=35/2,8;
 6/7=2,8=2,9=2,10=2,28=1/1;
 99/5=1,9=1/99;
 Leave Link    1 at Thu Mar  5 12:52:52 2020, MaxMem=  6710886400 cpu:              16.3 elap:               1.1
 (Enter /opt/ohpc/pub/libs/gaussian/g16-A.03/sandybridge/g16/l101.exe)
 -----
 H6 C5
 -----
 Symbolic Z-matrix:
 Charge =  0 Multiplicity = 1
 C                     0.        0.8788   -0.93154 
 C                     0.        1.12816   0.42346 
 C                     0.        0.        1.24088 
 C                     0.       -1.12816   0.42346 
 C                     0.       -0.8788   -0.93154 
 H                     0.        0.       -1.73227 
 H                     0.        1.6083   -1.73405 
 H                     0.        2.15663   0.76567 
 H                     0.        0.        2.32078 
 H                     0.       -2.15663   0.76567 
 H                     0.       -1.6083   -1.73405 
 
 ITRead=  0  0  0  0  0  0  0  0  0  0  0
 MicOpt= -1 -1 -1 -1 -1 -1 -1 -1 -1 -1 -1
 NAtoms=     11 NQM=       11 NQMF=       0 NMMI=      0 NMMIF=      0
                NMic=       0 NMicF=      0.
                    Isotopes and Nuclear Properties:
 (Nuclear quadrupole moments (NQMom) in fm**2, nuclear magnetic moments (NMagM)
  in nuclear magnetons)

  Atom         1           2           3           4           5           6           7           8           9          10
 IAtWgt=          12          12          12          12          12           1           1           1           1           1
 AtmWgt=  12.0000000  12.0000000  12.0000000  12.0000000  12.0000000   1.0078250   1.0078250   1.0078250   1.0078250   1.0078250
 NucSpn=           0           0           0           0           0           1           1           1           1           1
 AtZEff=  -0.0000000  -0.0000000  -0.0000000  -0.0000000  -0.0000000  -0.0000000  -0.0000000  -0.0000000  -0.0000000  -0.0000000
 NQMom=    0.0000000   0.0000000   0.0000000   0.0000000   0.0000000   0.0000000   0.0000000   0.0000000   0.0000000   0.0000000
 NMagM=    0.0000000   0.0000000   0.0000000   0.0000000   0.0000000   2.7928460   2.7928460   2.7928460   2.7928460   2.7928460
 AtZNuc=   6.0000000   6.0000000   6.0000000   6.0000000   6.0000000   1.0000000   1.0000000   1.0000000   1.0000000   1.0000000

  Atom        11
 IAtWgt=           1
 AtmWgt=   1.0078250
 NucSpn=           1
 AtZEff=  -0.0000000
 NQMom=    0.0000000
 NMagM=    2.7928460
 AtZNuc=   1.0000000
 Leave Link  101 at Thu Mar  5 12:52:52 2020, MaxMem=  6710886400 cpu:               3.0 elap:               0.2
 (Enter /opt/ohpc/pub/libs/gaussian/g16-A.03/sandybridge/g16/l202.exe)
                          Input orientation:                          
 ---------------------------------------------------------------------
 Center     Atomic      Atomic             Coordinates (Angstroms)
 Number     Number       Type             X           Y           Z
 ---------------------------------------------------------------------
      1          6           0        0.000000    0.878804   -0.931542
      2          6           0        0.000000    1.128157    0.423457
      3          6           0        0.000000    0.000000    1.240879
      4          6           0        0.000000   -1.128157    0.423457
      5          6           0        0.000000   -0.878804   -0.931542
      6          1           0        0.000000    0.000000   -1.732269
      7          1           0        0.000000    1.608300   -1.734053
      8          1           0        0.000000    2.156626    0.765670
      9          1           0        0.000000    0.000000    2.320778
     10          1           0        0.000000   -2.156626    0.765670
     11          1           0        0.000000   -1.608300   -1.734053
 ---------------------------------------------------------------------
                    Distance matrix (angstroms):
                    1          2          3          4          5
     1  C    0.000000
     2  C    1.377752   0.000000
     3  C    2.343440   1.393168   0.000000
     4  C    2.421552   2.256314   1.393168   0.000000
     5  C    1.757608   2.421552   2.343440   1.377752   0.000000
     6  H    1.188890   2.433083   2.973148   2.433083   1.188890
     7  H    1.084522   2.210291   3.381841   3.484687   2.613371
     8  H    2.124466   1.083909   2.208361   3.302561   3.477695
     9  H    3.368959   2.207389   1.079899   2.207389   3.368959
    10  H    3.477695   3.302561   2.208361   1.083909   2.124466
    11  H    2.613371   3.484687   3.381841   2.210291   1.084522
                    6          7          8          9         10
     6  H    0.000000
     7  H    1.608301   0.000000
     8  H    3.300111   2.559155   0.000000
     9  H    4.053047   4.362142   2.658834   0.000000
    10  H    3.300111   4.519213   4.313252   2.658834   0.000000
    11  H    1.608301   3.216600   4.519213   4.362142   2.559155
                   11
    11  H    0.000000
 Stoichiometry    C5H6
 Framework group  C2V[C2(HCH),SGV(C4H4)]
 Deg. of freedom    10
 Full point group                 C2V     NOp   4
 Largest Abelian subgroup         C2V     NOp   4
 Largest concise Abelian subgroup C2      NOp   2
                         Standard orientation:                         
 ---------------------------------------------------------------------
 Center     Atomic      Atomic             Coordinates (Angstroms)
 Number     Number       Type             X           Y           Z
 ---------------------------------------------------------------------
      1          6           0        0.000000    0.878804   -0.931542
      2          6           0        0.000000    1.128157    0.423457
      3          6           0        0.000000   -0.000000    1.240879
      4          6           0       -0.000000   -1.128157    0.423457
      5          6           0       -0.000000   -0.878804   -0.931542
      6          1           0       -0.000000    0.000000   -1.732269
      7          1           0        0.000000    1.608300   -1.734053
      8          1           0        0.000000    2.156626    0.765670
      9          1           0        0.000000   -0.000000    2.320778
     10          1           0       -0.000000   -2.156626    0.765670
     11          1           0       -0.000000   -1.608300   -1.734053
 ---------------------------------------------------------------------
 Rotational constants (GHZ):           8.5259551           7.9375455           4.1106177
 Leave Link  202 at Thu Mar  5 12:52:52 2020, MaxMem=  6710886400 cpu:               0.1 elap:               0.0
 (Enter /opt/ohpc/pub/libs/gaussian/g16-A.03/sandybridge/g16/l301.exe)
 Standard basis: 6-31G (6D, 7F)
 Ernie: Thresh=  0.10000D-02 Tol=  0.10000D-05 Strict=F.
 There are    27 symmetry adapted cartesian basis functions of A1  symmetry.
 There are     4 symmetry adapted cartesian basis functions of A2  symmetry.
 There are     6 symmetry adapted cartesian basis functions of B1  symmetry.
 There are    20 symmetry adapted cartesian basis functions of B2  symmetry.
 There are    27 symmetry adapted basis functions of A1  symmetry.
 There are     4 symmetry adapted basis functions of A2  symmetry.
 There are     6 symmetry adapted basis functions of B1  symmetry.
 There are    20 symmetry adapted basis functions of B2  symmetry.
    57 basis functions,   134 primitive gaussians,    57 cartesian basis functions
    18 alpha electrons       18 beta electrons
       nuclear repulsion energy       156.0127424860 Hartrees.
 IExCor=33909 DFT=T Ex+Corr=LC-wHPBE ExCW=0 ScaHFX=  1.000000
 ScaDFX=  1.000000  1.000000  1.000000  1.000000 ScalE2=  1.000000  1.000000
 IRadAn=      5 IRanWt=     -1 IRanGd=            0 ICorTp=0 IEmpDi=  4
 HFx  wShort=  0.000000 wLong=  0.400000 cFull=  0.000000 cShort=  0.000000 cLong=  0.000000
 DFx  wShort=  0.000000 wLong=  0.400000 cFull=  0.000000 cShort=  1.000000 cLong=  0.000000
 NAtoms=   11 NActive=   11 NUniq=    7 SFac= 2.47D+00 NAtFMM=   60 NAOKFM=F Big=F
 Integral buffers will be    131072 words long.
 Raffenetti 2 integral format.
 Two-electron integral symmetry is turned on.
 Leave Link  301 at Thu Mar  5 12:52:52 2020, MaxMem=  6710886400 cpu:               0.9 elap:               0.1
 (Enter /opt/ohpc/pub/libs/gaussian/g16-A.03/sandybridge/g16/l302.exe)
 NPDir=0 NMtPBC=     1 NCelOv=     1 NCel=       1 NClECP=     1 NCelD=      1
         NCelK=      1 NCelE2=     1 NClLst=     1 CellRange=     0.0.
 One-electron integrals computed using PRISM.
 One-electron integral symmetry used in STVInt
 NBasis=    57 RedAO= T EigKep=  1.84D-03  NBF=    27     4     6    20
 NBsUse=    57 1.00D-06 EigRej= -1.00D+00 NBFU=    27     4     6    20
 Precomputing XC quadrature grid using
 IXCGrd= 4 IRadAn=           5 IRanWt=          -1 IRanGd=           0 AccXCQ= 0.00D+00.
 Generated NRdTot=       0 NPtTot=           0 NUsed=           0 NTot=          32
 NSgBfM=    57    57    57    57    57 MxSgAt=    11 MxSgA2=    11.
 Leave Link  302 at Thu Mar  5 12:52:52 2020, MaxMem=  6710886400 cpu:               2.1 elap:               0.2
 (Enter /opt/ohpc/pub/libs/gaussian/g16-A.03/sandybridge/g16/l303.exe)
 DipDrv:  MaxL=1.
 Leave Link  303 at Thu Mar  5 12:52:53 2020, MaxMem=  6710886400 cpu:               0.3 elap:               0.0
 (Enter /opt/ohpc/pub/libs/gaussian/g16-A.03/sandybridge/g16/l401.exe)
 ExpMin= 1.61D-01 ExpMax= 3.05D+03 ExpMxC= 4.57D+02 IAcc=3 IRadAn=         5 AccDes= 0.00D+00
 Harris functional with IExCor=33909 and IRadAn=       5 diagonalized for initial guess.
 HarFok:  IExCor=33909 AccDes= 0.00D+00 IRadAn=         5 IDoV= 1 UseB2=F ITyADJ=14
 ICtDFT=  3500011 ScaDFX=  1.000000  1.000000  1.000000  1.000000
 FoFCou: FMM=F IPFlag=           0 FMFlag=      100000 FMFlg1=           0
         NFxFlg=           0 DoJE=T BraDBF=F KetDBF=T FulRan=T
         wScrn=  0.000000 ICntrl=       500 IOpCl=  0 I1Cent=   200000004 NGrid=           0
         NMat0=    1 NMatS0=      1 NMatT0=    0 NMatD0=    1 NMtDS0=    0 NMtDT0=    0
 Petite list used in FoFCou.
 Harris En= -186.755599203770    
 JPrj=0 DoOrth=F DoCkMO=F.
 Initial guess orbital symmetries:
 Alpha Orbitals:
       Occupied  (A1) (B2) (A1) (B2) (A1) (A1) (A1) (B2) (A1) (B2)
                 (A1) (B2) (A1) (B2) (A1) (B1) (A2) (B1)
       Virtual   (A2) (B2) (B1) (A1) (A1) (B2) (A1) (B2) (A1) (B2)
                 (A1) (B2) (A1) (B2) (B1) (A2) (B1) (A1) (B2) (A1)
                 (A1) (A2) (B1) (B2) (B2) (A1) (B2) (A1) (A1) (B2)
                 (A1) (A1) (A1) (B2) (A1) (B2) (A1) (A1) (B2)
 Beta  Orbitals:
       Occupied  (A1) (B2) (A1) (B2) (A1) (A1) (A1) (B2) (A1) (B2)
                 (A1) (B2) (A1) (B2) (A1) (B1) (A2) (B1)
       Virtual   (A2) (B2) (B1) (A1) (A1) (B2) (A1) (B2) (A1) (B2)
                 (A1) (B2) (A1) (B2) (B1) (A2) (B1) (A1) (B2) (A1)
                 (A1) (A2) (B1) (B2) (B2) (A1) (B2) (A1) (A1) (B2)
                 (A1) (A1) (A1) (B2) (A1) (B2) (A1) (A1) (B2)
 The electronic state of the initial guess is 1-A1.
 Initial guess <Sx>= 0.0000 <Sy>= 0.0000 <Sz>= 0.0000 <S**2>= 0.0000 S= 0.0000
 Leave Link  401 at Thu Mar  5 12:52:53 2020, MaxMem=  6710886400 cpu:               3.2 elap:               0.2
 (Enter /opt/ohpc/pub/libs/gaussian/g16-A.03/sandybridge/g16/l502.exe)
 Keep R1 and R2 ints in memory in symmetry-blocked form, NReq=16815681.
 FoFCou: FMM=F IPFlag=           0 FMFlag=           0 FMFlg1=           0
         NFxFlg=           0 DoJE=F BraDBF=F KetDBF=F FulRan=T
         wScrn=  0.000000 ICntrl=       600 IOpCl=  0 I1Cent=           0 NGrid=           0
         NMat0=    1 NMatS0=   1653 NMatT0=    0 NMatD0=    1 NMtDS0=    0 NMtDT0=    0
 Petite list used in FoFCou.
 UHF open shell SCF:
 Using DIIS extrapolation, IDIIS=    10.
 NGot=  6710886400 LenX=  6710059561 LenY=  6710055871
 Requested convergence on RMS density matrix=1.00D-06 within  32 cycles.
 Requested convergence on MAX density matrix=1.00D-04.
 Requested convergence on             energy=1.00D-04.
 Virtual orbitals will be shifted by   0.500 hartree.
 No special actions if energy rises.
 Dynamic level shift is on during FON iterations.

 Cycle   1  Pass 1  IDiag  1:
 E= -186.560992815999    
 DIIS: error= 4.14D-02 at cycle   1 NSaved=   1.
 NSaved= 1 IEnMin= 1 EnMin= -186.560992815999     IErMin= 1 ErrMin= 4.14D-02
 ErrMax= 4.14D-02  0.00D+00 EMaxC= 1.00D+00 BMatC= 3.49D-01 BMatP= 3.49D-01
 IDIUse=1 WtCom= 1.00D+00 WtEn= 0.00D+00
 Coeff-Com:  0.100D+01
 Coeff:      0.100D+01
 Gap=     0.104 Goal=   None    Shift=    0.500
 T= 1690. Gap= 0.557 NK=0 IS=   19 IE=   57 IFin=   18
          NO(<0.9)=   0  NV(>0.1)=   0     18.00e < EF      0.00e >EF  Err=0.0D+00
 Gap=     0.104 Goal=   None    Shift=    0.500
 T= 1690. Gap= 0.557 NK=0 IS=   19 IE=   57 IFin=   18
          NO(<0.9)=   0  NV(>0.1)=   0     18.00e < EF      0.00e >EF  Err=0.0D+00
 GapD=    0.104 DampG=1.000 DampE=0.500 DampFc=0.5000 IDamp=-1.
 Damping current iteration by 5.00D-01
 RMSDP=9.80D-03 MaxDP=7.66D-02              OVMax= 9.81D-02

 Cycle   2  Pass 1  IDiag  1:
 E= -186.637624868680     Delta-E=       -0.076632052681 Rises=F Damp=T
 DIIS: error= 1.32D-02 at cycle   2 NSaved=   2.
 NSaved= 2 IEnMin= 2 EnMin= -186.637624868680     IErMin= 2 ErrMin= 1.32D-02
 ErrMax= 1.32D-02  0.00D+00 EMaxC= 1.00D+00 BMatC= 3.59D-02 BMatP= 3.49D-01
 IDIUse=1 WtCom= 1.00D+00 WtEn= 0.00D+00
 Coeff-Com: -0.377D+00 0.138D+01
 Coeff:     -0.377D+00 0.138D+01
 Gap=     0.174 Goal=   None    Shift=    0.500
 T= 1535. Gap= 0.656 NK=0 IS=   19 IE=   57 IFin=   18
          NO(<0.9)=   0  NV(>0.1)=   0     18.00e < EF      0.00e >EF  Err=0.0D+00
 Gap=     0.174 Goal=   None    Shift=    0.500
 T= 1535. Gap= 0.656 NK=0 IS=   19 IE=   57 IFin=   18
          NO(<0.9)=   0  NV(>0.1)=   0     18.00e < EF      0.00e >EF  Err=0.0D+00
 GapD=    0.174 DampG=1.000 DampE=0.500 DampFc=0.5000 IDamp=-1.
 Damping current iteration by 5.00D-01
 RMSDP=4.94D-03 MaxDP=4.00D-02 DE=-7.66D-02 OVMax= 1.41D-02

 Cycle   3  Pass 1  IDiag  1:
 E= -186.657120117045     Delta-E=       -0.019495248365 Rises=F Damp=T
 DIIS: error= 3.21D-03 at cycle   3 NSaved=   3.
 NSaved= 3 IEnMin= 3 EnMin= -186.657120117045     IErMin= 3 ErrMin= 3.21D-03
 ErrMax= 3.21D-03  0.00D+00 EMaxC= 1.00D+00 BMatC= 3.26D-03 BMatP= 3.59D-02
 IDIUse=1 WtCom= 1.00D+00 WtEn= 0.00D+00
 Coeff-Com:  0.217D+00-0.107D+01 0.185D+01
 Coeff:      0.217D+00-0.107D+01 0.185D+01
 Gap=     0.156 Goal=   None    Shift=    0.500
 T= 1231. Gap= 0.656 NK=0 IS=   19 IE=   57 IFin=   18
          NO(<0.9)=   0  NV(>0.1)=   0     18.00e < EF      0.00e >EF  Err=0.0D+00
 Gap=     0.156 Goal=   None    Shift=    0.500
 T= 1231. Gap= 0.656 NK=0 IS=   19 IE=   57 IFin=   18
          NO(<0.9)=   0  NV(>0.1)=   0     18.00e < EF      0.00e >EF  Err=0.0D+00
 GapD=    0.156 DampG=1.000 DampE=1.000 DampFc=1.0000 IDamp=-1.
 RMSDP=2.19D-03 MaxDP=1.81D-02 DE=-1.95D-02 OVMax= 6.02D-03

 Cycle   4  Pass 1  IDiag  1:
 E= -186.671422539321     Delta-E=       -0.014302422277 Rises=F Damp=F
 DIIS: error= 3.88D-03 at cycle   4 NSaved=   4.
 NSaved= 4 IEnMin= 4 EnMin= -186.671422539321     IErMin= 3 ErrMin= 3.21D-03
 ErrMax= 3.88D-03  0.00D+00 EMaxC= 1.00D+00 BMatC= 2.71D-03 BMatP= 3.26D-03
 IDIUse=1 WtCom= 1.00D+00 WtEn= 0.00D+00
 Coeff-Com:  0.154D+00-0.364D+00 0.400D+00 0.810D+00
 Coeff:      0.154D+00-0.364D+00 0.400D+00 0.810D+00
 Gap=     0.159 Goal=   None    Shift=    0.500
 T=  604. Gap= 0.659 NK=0 IS=   19 IE=   57 IFin=   18
          NO(<0.9)=   0  NV(>0.1)=   0     18.00e < EF      0.00e >EF  Err=0.0D+00
 Gap=     0.159 Goal=   None    Shift=    0.500
 T=  604. Gap= 0.659 NK=0 IS=   19 IE=   57 IFin=   18
          NO(<0.9)=   0  NV(>0.1)=   0     18.00e < EF      0.00e >EF  Err=0.0D+00
 GapD=    0.159 DampG=1.000 DampE=1.000 DampFc=1.0000 IDamp=-1.
 RMSDP=5.47D-04 MaxDP=3.64D-03 DE=-1.43D-02 OVMax= 4.26D-03

 Cycle   5  Pass 1  IDiag  1:
 E= -186.672088131378     Delta-E=       -0.000665592056 Rises=F Damp=F
 DIIS: error= 1.77D-03 at cycle   5 NSaved=   5.
 NSaved= 5 IEnMin= 5 EnMin= -186.672088131378     IErMin= 5 ErrMin= 1.77D-03
 ErrMax= 1.77D-03  0.00D+00 EMaxC= 1.00D+00 BMatC= 4.65D-04 BMatP= 2.71D-03
 IDIUse=1 WtCom= 1.00D+00 WtEn= 0.00D+00
 Coeff-Com: -0.713D-02 0.484D-01-0.241D-01-0.590D+00 0.157D+01
 Coeff:     -0.713D-02 0.484D-01-0.241D-01-0.590D+00 0.157D+01
 Gap=     0.158 Goal=   None    Shift=    0.500
 T=  105. Gap= 0.658 NK=0 IS=   19 IE=   57 IFin=   18
          NO(<0.9)=   0  NV(>0.1)=   0     18.00e < EF      0.00e >EF  Err=0.0D+00
 Gap=     0.158 Goal=   None    Shift=    0.500
 T=  105. Gap= 0.658 NK=0 IS=   19 IE=   57 IFin=   18
          NO(<0.9)=   0  NV(>0.1)=   0     18.00e < EF      0.00e >EF  Err=0.0D+00
 GapD=    0.158 DampG=1.000 DampE=1.000 DampFc=1.0000 IDamp=-1.
 RMSDP=2.14D-04 MaxDP=1.61D-03 DE=-6.66D-04 OVMax= 2.10D-03

 Cycle   6  Pass 1  IDiag  1:
 E= -186.672208943459     Delta-E=       -0.000120812081 Rises=F Damp=F
 DIIS: error= 9.98D-04 at cycle   6 NSaved=   6.
 NSaved= 6 IEnMin= 6 EnMin= -186.672208943459     IErMin= 6 ErrMin= 9.98D-04
 ErrMax= 9.98D-04  0.00D+00 EMaxC= 1.00D+00 BMatC= 9.22D-05 BMatP= 4.65D-04
 IDIUse=1 WtCom= 1.00D+00 WtEn= 0.00D+00
 Coeff-Com: -0.102D-01-0.103D-01 0.637D-01-0.219D+00-0.461D+00 0.164D+01
 Coeff:     -0.102D-01-0.103D-01 0.637D-01-0.219D+00-0.461D+00 0.164D+01
 Gap=     0.158 Goal=   None    Shift=    0.500
 Gap=     0.158 Goal=   None    Shift=    0.500
 RMSDP=1.00D-04 MaxDP=8.26D-04 DE=-1.21D-04 OVMax= 1.38D-03

 Cycle   7  Pass 1  IDiag  1:
 E= -186.672235350443     Delta-E=       -0.000026406984 Rises=F Damp=F
 DIIS: error= 5.44D-04 at cycle   7 NSaved=   7.
 NSaved= 7 IEnMin= 7 EnMin= -186.672235350443     IErMin= 7 ErrMin= 5.44D-04
 ErrMax= 5.44D-04  0.00D+00 EMaxC= 1.00D+00 BMatC= 2.07D-05 BMatP= 9.22D-05
 IDIUse=1 WtCom= 1.00D+00 WtEn= 0.00D+00
 Coeff-Com:  0.179D-02-0.293D-01 0.489D-01 0.625D-01-0.365D+00-0.669D+00
 Coeff-Com:  0.195D+01
 Coeff:      0.179D-02-0.293D-01 0.489D-01 0.625D-01-0.365D+00-0.669D+00
 Coeff:      0.195D+01
 Gap=     0.158 Goal=   None    Shift=    0.500
 Gap=     0.158 Goal=   None    Shift=    0.500
 RMSDP=4.26D-05 MaxDP=4.23D-04 DE=-2.64D-05 OVMax= 7.36D-04

 Cycle   8  Pass 1  IDiag  1:
 E= -186.672241506772     Delta-E=       -0.000006156329 Rises=F Damp=F
 DIIS: error= 3.54D-04 at cycle   8 NSaved=   8.
 NSaved= 8 IEnMin= 8 EnMin= -186.672241506772     IErMin= 8 ErrMin= 3.54D-04
 ErrMax= 3.54D-04  0.00D+00 EMaxC= 1.00D+00 BMatC= 6.01D-06 BMatP= 2.07D-05
 IDIUse=1 WtCom= 1.00D+00 WtEn= 0.00D+00
 Coeff-Com:  0.551D-02-0.248D-01 0.263D-01 0.106D+00-0.818D-01-0.117D+01
 Coeff-Com:  0.113D+01 0.101D+01
 Coeff:      0.551D-02-0.248D-01 0.263D-01 0.106D+00-0.818D-01-0.117D+01
 Coeff:      0.113D+01 0.101D+01
 Gap=     0.158 Goal=   None    Shift=    0.500
 Gap=     0.158 Goal=   None    Shift=    0.500
 RMSDP=2.02D-05 MaxDP=2.03D-04 DE=-6.16D-06 OVMax= 4.88D-04

 Cycle   9  Pass 1  IDiag  1:
 E= -186.672243367473     Delta-E=       -0.000001860701 Rises=F Damp=F
 DIIS: error= 2.27D-04 at cycle   9 NSaved=   9.
 NSaved= 9 IEnMin= 9 EnMin= -186.672243367473     IErMin= 9 ErrMin= 2.27D-04
 ErrMax= 2.27D-04  0.00D+00 EMaxC= 1.00D+00 BMatC= 2.02D-06 BMatP= 6.01D-06
 IDIUse=1 WtCom= 1.00D+00 WtEn= 0.00D+00
 Coeff-Com: -0.100D-03 0.521D-02-0.104D-01-0.371D-01 0.248D+00-0.539D-01
 Coeff-Com: -0.586D+00-0.163D+01 0.307D+01
 Coeff:     -0.100D-03 0.521D-02-0.104D-01-0.371D-01 0.248D+00-0.539D-01
 Coeff:     -0.586D+00-0.163D+01 0.307D+01
 Gap=     0.158 Goal=   None    Shift=    0.500
 Gap=     0.158 Goal=   None    Shift=    0.500
 RMSDP=1.08D-05 MaxDP=9.89D-05 DE=-1.86D-06 OVMax= 3.01D-04

 Cycle  10  Pass 1  IDiag  1:
 E= -186.672243987909     Delta-E=       -0.000000620436 Rises=F Damp=F
 DIIS: error= 1.58D-04 at cycle  10 NSaved=  10.
 NSaved=10 IEnMin=10 EnMin= -186.672243987909     IErMin=10 ErrMin= 1.58D-04
 ErrMax= 1.58D-04  0.00D+00 EMaxC= 1.00D+00 BMatC= 8.69D-07 BMatP= 2.02D-06
 IDIUse=1 WtCom= 1.00D+00 WtEn= 0.00D+00
 Coeff-Com: -0.239D-03 0.158D-02-0.339D-02-0.408D-01 0.165D+00 0.691D-01
 Coeff-Com: -0.410D+00-0.785D+00-0.985D-01 0.210D+01
 Coeff:     -0.239D-03 0.158D-02-0.339D-02-0.408D-01 0.165D+00 0.691D-01
 Coeff:     -0.410D+00-0.785D+00-0.985D-01 0.210D+01
 Gap=     0.158 Goal=   None    Shift=    0.500
 Gap=     0.158 Goal=   None    Shift=    0.500
 RMSDP=6.48D-06 MaxDP=6.06D-05 DE=-6.20D-07 OVMax= 2.09D-04

 Cycle  11  Pass 1  IDiag  1:
 E= -186.672244255826     Delta-E=       -0.000000267917 Rises=F Damp=F
 DIIS: error= 1.09D-04 at cycle  11 NSaved=  11.
 NSaved=11 IEnMin=11 EnMin= -186.672244255826     IErMin=11 ErrMin= 1.09D-04
 ErrMax= 1.09D-04  0.00D+00 EMaxC= 1.00D+00 BMatC= 3.86D-07 BMatP= 8.69D-07
 IDIUse=1 WtCom= 1.00D+00 WtEn= 0.00D+00
 Coeff-Com:  0.151D-03-0.330D-02 0.547D-02-0.794D-02-0.186D-01 0.368D-01
 Coeff-Com:  0.163D+00 0.290D+00-0.103D+01-0.233D+01 0.390D+01
 Coeff:      0.151D-03-0.330D-02 0.547D-02-0.794D-02-0.186D-01 0.368D-01
 Coeff:      0.163D+00 0.290D+00-0.103D+01-0.233D+01 0.390D+01
 Gap=     0.158 Goal=   None    Shift=    0.500
 Gap=     0.158 Goal=   None    Shift=    0.500
 RMSDP=3.97D-06 MaxDP=3.87D-05 DE=-2.68D-07 OVMax= 1.40D-04

 Cycle  12  Pass 1  IDiag  1:
 E= -186.672244371296     Delta-E=       -0.000000115471 Rises=F Damp=F
 DIIS: error= 7.73D-05 at cycle  12 NSaved=  12.
 NSaved=12 IEnMin=12 EnMin= -186.672244371296     IErMin=12 ErrMin= 7.73D-05
 ErrMax= 7.73D-05  0.00D+00 EMaxC= 1.00D+00 BMatC= 1.85D-07 BMatP= 3.86D-07
 IDIUse=1 WtCom= 1.00D+00 WtEn= 0.00D+00
 Coeff-Com:  0.756D-04-0.268D-02 0.481D-02-0.170D-02-0.343D-01 0.120D-01
 Coeff-Com:  0.219D+00 0.195D+00-0.487D+00-0.168D+01 0.536D+00 0.224D+01
 Coeff:      0.756D-04-0.268D-02 0.481D-02-0.170D-02-0.343D-01 0.120D-01
 Coeff:      0.219D+00 0.195D+00-0.487D+00-0.168D+01 0.536D+00 0.224D+01
 Gap=     0.158 Goal=   None    Shift=    0.500
 Gap=     0.158 Goal=   None    Shift=    0.500
 RMSDP=2.53D-06 MaxDP=2.56D-05 DE=-1.15D-07 OVMax= 9.87D-05

 Cycle  13  Pass 1  IDiag  1:
 E= -186.672244426046     Delta-E=       -0.000000054749 Rises=F Damp=F
 DIIS: error= 5.44D-05 at cycle  13 NSaved=  13.
 NSaved=13 IEnMin=13 EnMin= -186.672244426046     IErMin=13 ErrMin= 5.44D-05
 ErrMax= 5.44D-05  0.00D+00 EMaxC= 1.00D+00 BMatC= 8.96D-08 BMatP= 1.85D-07
 IDIUse=1 WtCom= 1.00D+00 WtEn= 0.00D+00
 Coeff-Com:  0.449D-04-0.579D-03 0.101D-02 0.296D-02-0.168D-01-0.788D-02
 Coeff-Com:  0.722D-01 0.510D-01-0.328D-01 0.256D+00-0.495D+00-0.327D+01
 Coeff-Com:  0.444D+01
 Coeff:      0.449D-04-0.579D-03 0.101D-02 0.296D-02-0.168D-01-0.788D-02
 Coeff:      0.722D-01 0.510D-01-0.328D-01 0.256D+00-0.495D+00-0.327D+01
 Coeff:      0.444D+01
 Gap=     0.158 Goal=   None    Shift=    0.500
 Gap=     0.158 Goal=   None    Shift=    0.500
 RMSDP=1.67D-06 MaxDP=1.71D-05 DE=-5.47D-08 OVMax= 6.79D-05

 Cycle  14  Pass 1  IDiag  1:
 E= -186.672244451602     Delta-E=       -0.000000025557 Rises=F Damp=F
 DIIS: error= 3.87D-05 at cycle  14 NSaved=  14.
 NSaved=14 IEnMin=14 EnMin= -186.672244451602     IErMin=14 ErrMin= 3.87D-05
 ErrMax= 3.87D-05  0.00D+00 EMaxC= 1.00D+00 BMatC= 4.54D-08 BMatP= 8.96D-08
 IDIUse=1 WtCom= 1.00D+00 WtEn= 0.00D+00
 Coeff-Com:  0.469D-04-0.391D-03 0.670D-03 0.125D-02-0.626D-02-0.760D-02
 Coeff-Com:  0.122D-01 0.683D-01-0.381D-01 0.322D+00-0.155D-01-0.205D+01
 Coeff-Com: -0.273D+00 0.299D+01
 Coeff:      0.469D-04-0.391D-03 0.670D-03 0.125D-02-0.626D-02-0.760D-02
 Coeff:      0.122D-01 0.683D-01-0.381D-01 0.322D+00-0.155D-01-0.205D+01
 Coeff:     -0.273D+00 0.299D+01
 Gap=     0.158 Goal=   None    Shift=    0.500
 Gap=     0.158 Goal=   None    Shift=    0.500
 RMSDP=1.12D-06 MaxDP=1.17D-05 DE=-2.56D-08 OVMax= 4.80D-05

 Cycle  15  Pass 1  IDiag  1:
 E= -186.672244464354     Delta-E=       -0.000000012752 Rises=F Damp=F
 DIIS: error= 2.75D-05 at cycle  15 NSaved=  15.
 NSaved=15 IEnMin=15 EnMin= -186.672244464354     IErMin=15 ErrMin= 2.75D-05
 ErrMax= 2.75D-05  0.00D+00 EMaxC= 1.00D+00 BMatC= 2.30D-08 BMatP= 4.54D-08
 IDIUse=1 WtCom= 1.00D+00 WtEn= 0.00D+00
 Coeff-Com:  0.191D-04 0.222D-04-0.763D-04-0.108D-03 0.331D-02-0.532D-02
 Coeff-Com: -0.181D-01 0.136D-01 0.239D-01 0.548D-01 0.204D+00 0.370D+00
 Coeff-Com: -0.134D+01-0.296D+01 0.465D+01
 Coeff:      0.191D-04 0.222D-04-0.763D-04-0.108D-03 0.331D-02-0.532D-02
 Coeff:     -0.181D-01 0.136D-01 0.239D-01 0.548D-01 0.204D+00 0.370D+00
 Coeff:     -0.134D+01-0.296D+01 0.465D+01
 Gap=     0.158 Goal=   None    Shift=    0.500
 Gap=     0.158 Goal=   None    Shift=    0.500
 RMSDP=7.73D-07 MaxDP=8.15D-06 DE=-1.28D-08 OVMax= 3.38D-05

 SCF Done:  E(ULC-wHPBE) =  -186.672244464     A.U. after   15 cycles
            NFock= 15  Conv=0.77D-06     -V/T= 1.9717
 <Sx>= 0.0000 <Sy>= 0.0000 <Sz>= 0.0000 <S**2>=-0.0000 S=-0.0000
 <L.S>= 0.000000000000E+00
 KE= 1.921168933279D+02 PE=-7.592667629659D+02 EE= 2.244648826877D+02
 Annihilation of the first spin contaminant:
 S**2 before annihilation    -0.0000,   after     0.0000
 Leave Link  502 at Thu Mar  5 12:52:55 2020, MaxMem=  6710886400 cpu:              28.5 elap:               1.8
 (Enter /opt/ohpc/pub/libs/gaussian/g16-A.03/sandybridge/g16/l508.exe)
 QCSCF skips out because SCF is already converged.
 Leave Link  508 at Thu Mar  5 12:52:55 2020, MaxMem=  6710886400 cpu:               0.1 elap:               0.2
 (Enter /opt/ohpc/pub/libs/gaussian/g16-A.03/sandybridge/g16/l601.exe)
 Copying SCF densities to generalized density rwf, IOpCl= 1 IROHF=0.

 **********************************************************************

            Population analysis using the SCF density.

 **********************************************************************

 Orbital symmetries:
 Alpha Orbitals:
       Occupied  (B2) (A1) (A1) (B2) (A1) (A1) (A1) (B2) (A1) (B2)
                 (A1) (B2) (A1) (A1) (B2) (B1) (A2) (B1)
       Virtual   (B2) (A2) (A1) (A1) (B1) (B2) (A1) (B2) (A1) (A1)
                 (B2) (A1) (B2) (B2) (B1) (A2) (B1) (A1) (A1) (B2)
                 (A1) (A2) (B1) (B2) (B2) (A1) (B2) (A1) (A1) (B2)
                 (A1) (A1) (A1) (B2) (A1) (B2) (A1) (A1) (B2)
 Beta  Orbitals:
       Occupied  (B2) (A1) (A1) (B2) (A1) (A1) (A1) (B2) (A1) (B2)
                 (A1) (B2) (A1) (A1) (B2) (B1) (A2) (B1)
       Virtual   (B2) (A2) (A1) (A1) (B1) (B2) (A1) (B2) (A1) (A1)
                 (B2) (A1) (B2) (B2) (B1) (A2) (B1) (A1) (A1) (B2)
                 (A1) (A2) (B1) (B2) (B2) (A1) (B2) (A1) (A1) (B2)
                 (A1) (A1) (A1) (B2) (A1) (B2) (A1) (A1) (B2)
 The electronic state is 1-A1.
 Alpha  occ. eigenvalues --   -9.75302  -9.75295  -9.70897  -9.70896  -9.68368
 Alpha  occ. eigenvalues --   -0.62792  -0.50746  -0.47530  -0.34858  -0.33408
 Alpha  occ. eigenvalues --   -0.30119  -0.20320  -0.19899  -0.16582  -0.15280
 Alpha  occ. eigenvalues --   -0.14519  -0.02861   0.00191
 Alpha virt. eigenvalues --    0.15976   0.17539   0.19805   0.21734   0.23453
 Alpha virt. eigenvalues --    0.26847   0.28466   0.30090   0.30904   0.43665
 Alpha virt. eigenvalues --    0.45140   0.54995   0.55860   0.64036   0.65187
 Alpha virt. eigenvalues --    0.71818   0.72615   0.73513   0.75483   0.76844
 Alpha virt. eigenvalues --    0.78012   0.78130   0.80568   0.88889   0.93690
 Alpha virt. eigenvalues --    0.96363   0.98443   0.98721   1.00356   1.07406
 Alpha virt. eigenvalues --    1.07797   1.11344   1.15496   1.21881   1.30000
 Alpha virt. eigenvalues --    1.31780   1.38414   1.59403   1.60543
  Beta  occ. eigenvalues --   -9.75302  -9.75295  -9.70897  -9.70896  -9.68368
  Beta  occ. eigenvalues --   -0.62792  -0.50746  -0.47530  -0.34858  -0.33408
  Beta  occ. eigenvalues --   -0.30119  -0.20320  -0.19899  -0.16582  -0.15280
  Beta  occ. eigenvalues --   -0.14519  -0.02861   0.00191
  Beta virt. eigenvalues --    0.15976   0.17539   0.19805   0.21734   0.23453
  Beta virt. eigenvalues --    0.26847   0.28466   0.30090   0.30904   0.43665
  Beta virt. eigenvalues --    0.45140   0.54995   0.55860   0.64036   0.65187
  Beta virt. eigenvalues --    0.71818   0.72615   0.73513   0.75483   0.76844
  Beta virt. eigenvalues --    0.78012   0.78130   0.80568   0.88889   0.93690
  Beta virt. eigenvalues --    0.96363   0.98443   0.98721   1.00356   1.07406
  Beta virt. eigenvalues --    1.07797   1.11344   1.15496   1.21881   1.30000
  Beta virt. eigenvalues --    1.31780   1.38414   1.59403   1.60543
          Condensed to atoms (all electrons):
               1          2          3          4          5          6
     1  C    5.423229   0.468321  -0.046449  -0.135711   0.253850   0.151176
     2  C    0.468321   4.890429   0.576374   0.000936  -0.135711  -0.013530
     3  C   -0.046449   0.576374   4.707637   0.576374  -0.046449  -0.000446
     4  C   -0.135711   0.000936   0.576374   4.890429   0.468321  -0.013530
     5  C    0.253850  -0.135711  -0.046449   0.468321   5.423229   0.151176
     6  H    0.151176  -0.013530  -0.000446  -0.013530   0.151176   0.445132
     7  H    0.320150  -0.009562   0.002964   0.005217  -0.038760  -0.001548
     8  H   -0.049524   0.342754  -0.025663   0.007216   0.004160   0.001870
     9  H    0.010861  -0.056390   0.358579  -0.056390   0.010861  -0.000376
    10  H    0.004160   0.007216  -0.025663   0.342754  -0.049524   0.001870
    11  H   -0.038760   0.005217   0.002964  -0.009562   0.320150  -0.001548
               7          8          9         10         11
     1  C    0.320150  -0.049524   0.010861   0.004160  -0.038760
     2  C   -0.009562   0.342754  -0.056390   0.007216   0.005217
     3  C    0.002964  -0.025663   0.358579  -0.025663   0.002964
     4  C    0.005217   0.007216  -0.056390   0.342754  -0.009562
     5  C   -0.038760   0.004160   0.010861  -0.049524   0.320150
     6  H   -0.001548   0.001870  -0.000376   0.001870  -0.001548
     7  H    0.548796  -0.002434  -0.000180  -0.000092   0.001181
     8  H   -0.002434   0.606183  -0.005169  -0.000335  -0.000092
     9  H   -0.000180  -0.005169   0.658968  -0.005169  -0.000180
    10  H   -0.000092  -0.000335  -0.005169   0.606183  -0.002434
    11  H    0.001181  -0.000092  -0.000180  -0.002434   0.548796
          Atomic-Atomic Spin Densities.
               1          2          3          4          5          6
     1  C    0.000000   0.000000   0.000000   0.000000  -0.000000  -0.000000
     2  C    0.000000  -0.000000   0.000000  -0.000000   0.000000   0.000000
     3  C    0.000000   0.000000   0.000000   0.000000   0.000000   0.000000
     4  C    0.000000  -0.000000   0.000000  -0.000000   0.000000   0.000000
     5  C   -0.000000   0.000000   0.000000   0.000000   0.000000  -0.000000
     6  H   -0.000000   0.000000   0.000000   0.000000  -0.000000  -0.000000
     7  H    0.000000   0.000000   0.000000  -0.000000  -0.000000   0.000000
     8  H    0.000000  -0.000000   0.000000  -0.000000   0.000000  -0.000000
     9  H   -0.000000   0.000000   0.000000   0.000000  -0.000000  -0.000000
    10  H    0.000000  -0.000000   0.000000  -0.000000   0.000000  -0.000000
    11  H   -0.000000  -0.000000   0.000000   0.000000   0.000000   0.000000
               7          8          9         10         11
     1  C    0.000000   0.000000  -0.000000   0.000000  -0.000000
     2  C    0.000000  -0.000000   0.000000  -0.000000  -0.000000
     3  C    0.000000   0.000000   0.000000   0.000000   0.000000
     4  C   -0.000000  -0.000000   0.000000  -0.000000   0.000000
     5  C   -0.000000   0.000000  -0.000000   0.000000   0.000000
     6  H    0.000000  -0.000000  -0.000000  -0.000000   0.000000
     7  H   -0.000000   0.000000  -0.000000   0.000000   0.000000
     8  H    0.000000  -0.000000   0.000000   0.000000   0.000000
     9  H   -0.000000   0.000000   0.000000   0.000000  -0.000000
    10  H    0.000000   0.000000   0.000000  -0.000000   0.000000
    11  H    0.000000   0.000000  -0.000000   0.000000  -0.000000
 Mulliken charges and spin densities:
               1          2
     1  C   -0.361303   0.000000
     2  C   -0.076055  -0.000000
     3  C   -0.080223   0.000000
     4  C   -0.076055  -0.000000
     5  C   -0.361303   0.000000
     6  H    0.279753  -0.000000
     7  H    0.174268   0.000000
     8  H    0.121033  -0.000000
     9  H    0.084585   0.000000
    10  H    0.121033  -0.000000
    11  H    0.174268   0.000000
 Sum of Mulliken charges =  -0.00000   0.00000
 Mulliken charges and spin densities with hydrogens summed into heavy atoms:
               1          2
     1  C    0.092718   0.000000
     2  C    0.044978  -0.000000
     3  C    0.004362   0.000000
     4  C    0.044978  -0.000000
     5  C   -0.187035   0.000000
 Electronic spatial extent (au):  <R**2>=            340.0379
 Charge=             -0.0000 electrons
 Dipole moment (field-independent basis, Debye):
    X=             -0.0000    Y=             -0.0000    Z=             -1.9863  Tot=              1.9863
 Quadrupole moment (field-independent basis, Debye-Ang):
   XX=            -36.6892   YY=            -27.9958   ZZ=            -25.7482
   XY=              0.0000   XZ=              0.0000   YZ=              0.0000
 Traceless Quadrupole moment (field-independent basis, Debye-Ang):
   XX=             -6.5448   YY=              2.1486   ZZ=              4.3962
   XY=              0.0000   XZ=              0.0000   YZ=              0.0000
 Octapole moment (field-independent basis, Debye-Ang**2):
  XXX=              0.0000  YYY=              0.0000  ZZZ=             -8.6153  XYY=              0.0000
  XXY=              0.0000  XXZ=              0.8423  XZZ=              0.0000  YZZ=              0.0000
  YYZ=             -1.4444  XYZ=             -0.0000
 Hexadecapole moment (field-independent basis, Debye-Ang**3):
 XXXX=            -40.6581 YYYY=           -206.0255 ZZZZ=           -191.8357 XXXY=             -0.0000
 XXXZ=             -0.0000 YYYX=             -0.0000 YYYZ=              0.0000 ZZZX=             -0.0000
 ZZZY=              0.0000 XXYY=            -50.0961 XXZZ=            -48.6976 YYZZ=            -65.1651
 XXYZ=              0.0000 YYXZ=             -0.0000 ZZXY=             -0.0000
 N-N= 1.560127424860D+02 E-N=-7.592668277912D+02  KE= 1.921168933279D+02
 Symmetry A1   KE= 1.106962543718D+02
 Symmetry A2   KE= 2.321786694515D+00
 Symmetry B1   KE= 4.031601954252D+00
 Symmetry B2   KE= 7.506725030730D+01
 Symmetry A1   SP= 1.370912253531D-14
 Symmetry A2   SP= 1.247127328933D-15
 Symmetry B1   SP=-8.854563810413D-15
 Symmetry B2   SP= 1.929599120156D-14
                          Isotropic Fermi Contact Couplings
        Atom                 a.u.       MegaHertz       Gauss      10(-4) cm-1
     1  C(13)              0.00000       0.00000       0.00000       0.00000
     2  C(13)              0.00000       0.00000       0.00000       0.00000
     3  C(13)              0.00000       0.00000       0.00000       0.00000
     4  C(13)              0.00000       0.00000       0.00000       0.00000
     5  C(13)              0.00000       0.00000       0.00000       0.00000
     6  H(1)               0.00000       0.00000       0.00000       0.00000
     7  H(1)               0.00000       0.00000       0.00000       0.00000
     8  H(1)               0.00000       0.00000       0.00000       0.00000
     9  H(1)               0.00000       0.00000       0.00000       0.00000
    10  H(1)               0.00000       0.00000       0.00000       0.00000
    11  H(1)               0.00000       0.00000       0.00000       0.00000
 --------------------------------------------------------
       Center         ----  Spin Dipole Couplings  ----
                      3XX-RR        3YY-RR        3ZZ-RR
 --------------------------------------------------------
     1   Atom        0.000000      0.000000      0.000000
     2   Atom        0.000000      0.000000      0.000000
     3   Atom        0.000000      0.000000      0.000000
     4   Atom        0.000000      0.000000      0.000000
     5   Atom        0.000000      0.000000      0.000000
     6   Atom        0.000000      0.000000      0.000000
     7   Atom        0.000000      0.000000      0.000000
     8   Atom        0.000000      0.000000      0.000000
     9   Atom        0.000000      0.000000      0.000000
    10   Atom        0.000000      0.000000      0.000000
    11   Atom        0.000000      0.000000      0.000000
 --------------------------------------------------------
                        XY            XZ            YZ
 --------------------------------------------------------
     1   Atom        0.000000      0.000000      0.000000
     2   Atom        0.000000      0.000000      0.000000
     3   Atom        0.000000      0.000000      0.000000
     4   Atom        0.000000      0.000000      0.000000
     5   Atom        0.000000      0.000000      0.000000
     6   Atom        0.000000      0.000000      0.000000
     7   Atom        0.000000      0.000000      0.000000
     8   Atom        0.000000      0.000000      0.000000
     9   Atom        0.000000      0.000000      0.000000
    10   Atom        0.000000      0.000000      0.000000
    11   Atom        0.000000      0.000000      0.000000
 --------------------------------------------------------


 ---------------------------------------------------------------------------------
              Anisotropic Spin Dipole Couplings in Principal Axis System
 ---------------------------------------------------------------------------------

       Atom             a.u.   MegaHertz   Gauss  10(-4) cm-1        Axes

              Baa     0.0000     0.000     0.000     0.000  1.0000  0.0000  0.0000
     1 C(13)  Bbb     0.0000     0.000     0.000     0.000 -0.0000  1.0000  0.0000
              Bcc     0.0000     0.000     0.000     0.000  0.0000  0.0000  1.0000
 
              Baa     0.0000     0.000     0.000     0.000  1.0000  0.0000  0.0000
     2 C(13)  Bbb     0.0000     0.000     0.000     0.000 -0.0000  1.0000  0.0000
              Bcc     0.0000     0.000     0.000     0.000  0.0000  0.0000  1.0000
 
              Baa     0.0000     0.000     0.000     0.000  1.0000  0.0000  0.0000
     3 C(13)  Bbb     0.0000     0.000     0.000     0.000 -0.0000  1.0000  0.0000
              Bcc     0.0000     0.000     0.000     0.000  0.0000  0.0000  1.0000
 
              Baa     0.0000     0.000     0.000     0.000  1.0000  0.0000  0.0000
     4 C(13)  Bbb     0.0000     0.000     0.000     0.000 -0.0000  1.0000  0.0000
              Bcc     0.0000     0.000     0.000     0.000  0.0000  0.0000  1.0000
 
              Baa     0.0000     0.000     0.000     0.000  1.0000  0.0000  0.0000
     5 C(13)  Bbb     0.0000     0.000     0.000     0.000 -0.0000  1.0000  0.0000
              Bcc     0.0000     0.000     0.000     0.000  0.0000  0.0000  1.0000
 
              Baa     0.0000     0.000     0.000     0.000  1.0000  0.0000  0.0000
     6 H(1)   Bbb     0.0000     0.000     0.000     0.000 -0.0000  1.0000  0.0000
              Bcc     0.0000     0.000     0.000     0.000  0.0000  0.0000  1.0000
 
              Baa     0.0000     0.000     0.000     0.000  1.0000  0.0000  0.0000
     7 H(1)   Bbb     0.0000     0.000     0.000     0.000 -0.0000  1.0000  0.0000
              Bcc     0.0000     0.000     0.000     0.000  0.0000  0.0000  1.0000
 
              Baa     0.0000     0.000     0.000     0.000  1.0000  0.0000  0.0000
     8 H(1)   Bbb     0.0000     0.000     0.000     0.000 -0.0000  1.0000  0.0000
              Bcc     0.0000     0.000     0.000     0.000  0.0000  0.0000  1.0000
 
              Baa     0.0000     0.000     0.000     0.000  1.0000  0.0000  0.0000
     9 H(1)   Bbb     0.0000     0.000     0.000     0.000 -0.0000  1.0000  0.0000
              Bcc     0.0000     0.000     0.000     0.000  0.0000  0.0000  1.0000
 
              Baa     0.0000     0.000     0.000     0.000  1.0000  0.0000  0.0000
    10 H(1)   Bbb     0.0000     0.000     0.000     0.000 -0.0000  1.0000  0.0000
              Bcc     0.0000     0.000     0.000     0.000  0.0000  0.0000  1.0000
 
              Baa     0.0000     0.000     0.000     0.000  1.0000  0.0000  0.0000
    11 H(1)   Bbb     0.0000     0.000     0.000     0.000 -0.0000  1.0000  0.0000
              Bcc     0.0000     0.000     0.000     0.000  0.0000  0.0000  1.0000
 

 ---------------------------------------------------------------------------------

 No NMR shielding tensors so no spin-rotation constants.
 Leave Link  601 at Thu Mar  5 12:52:55 2020, MaxMem=  6710886400 cpu:               3.4 elap:               0.2
 (Enter /opt/ohpc/pub/libs/gaussian/g16-A.03/sandybridge/g16/l9999.exe)

 Test job not archived.
 1\1\GINC-CNODE212\SP\ULC-wHPBE\6-31G\C5H6\SMGO234\05-Mar-2020\0\\#P uL
 C-wHPBE/6-31G iop(3/130=0242800000, 3/131=0242800000, 3/119=0757200000
 , 3/120=0757200000) scf=(conver=6,fermi,ndamp=35,noincfock,novaracc,vs
 hift=500,xqc)\\H6 C5\\0,1\C,0,0.,0.878804,-0.931542\C,0,0.,1.128157,0.
 423457\C,0,0.,0.,1.240879\C,0,0.,-1.128157,0.423457\C,0,0.,-0.878804,-
 0.931542\H,0,0.,0.,-1.732269\H,0,0.,1.6083,-1.734053\H,0,0.,2.156626,0
 .76567\H,0,0.,0.,2.320778\H,0,0.,-2.156626,0.76567\H,0,0.,-1.6083,-1.7
 34053\\Version=EM64L-G16RevA.03\State=1-A1\HF=-186.6722445\S2=0.\S2-1=
 0.\S2A=0.\RMSD=7.734e-07\Dipole=0.,0.,-0.781488\Quadrupole=-4.8658997,
 1.5974305,3.2684692,0.,0.,0.\PG=C02V [C2(H1C1H1),SGV(C4H4)]\\@


 UNLESS WE CHANGE DIRECTIONS, WE WILL WIND UP WHERE WE ARE HEADED.
     -- CONFUCIUS
 Job cpu time:       0 days  0 hours  0 minutes 58.4 seconds.
 Elapsed time:       0 days  0 hours  0 minutes  4.2 seconds.
 File lengths (MBytes):  RWF=    272 Int=      0 D2E=      0 Chk=     32 Scr=     32
 Normal termination of Gaussian 16 at Thu Mar  5 12:52:56 2020.
