 Entering Gaussian System, Link 0=g16
 Input=a1b_tune_c0.gjf
 Output=a1b_tune_c0.log
 Initial command:
 /opt/ohpc/pub/libs/gaussian/g16-A.03/sandybridge/g16/l1.exe "/scratch/smgo234/Ocelot/test/a1b/tuning_a1b_acycle1/Gau-78477.inp" -scrdir="/scratch/smgo234/Ocelot/test/a1b/tuning_a1b_acycle1/"
 Entering Link 1 = /opt/ohpc/pub/libs/gaussian/g16-A.03/sandybridge/g16/l1.exe PID=     78478.
  
 Copyright (c) 1988,1990,1992,1993,1995,1998,2003,2009,2016,
            Gaussian, Inc.  All Rights Reserved.
  
 This is part of the Gaussian(R) 16 program.  It is based on
 the Gaussian(R) 09 system (copyright 2009, Gaussian, Inc.),
 the Gaussian(R) 03 system (copyright 2003, Gaussian, Inc.),
 the Gaussian(R) 98 system (copyright 1998, Gaussian, Inc.),
 the Gaussian(R) 94 system (copyright 1995, Gaussian, Inc.),
 the Gaussian 92(TM) system (copyright 1992, Gaussian, Inc.),
 the Gaussian 90(TM) system (copyright 1990, Gaussian, Inc.),
 the Gaussian 88(TM) system (copyright 1988, Gaussian, Inc.),
 the Gaussian 86(TM) system (copyright 1986, Carnegie Mellon
 University), and the Gaussian 82(TM) system (copyright 1983,
 Carnegie Mellon University). Gaussian is a federally registered
 trademark of Gaussian, Inc.
  
 This software contains proprietary and confidential information,
 including trade secrets, belonging to Gaussian, Inc.
  
 This software is provided under written license and may be
 used, copied, transmitted, or stored only in accord with that
 written license.
  
 The following legend is applicable only to US Government
 contracts under FAR:
  
                    RESTRICTED RIGHTS LEGEND
  
 Use, reproduction and disclosure by the US Government is
 subject to restrictions as set forth in subparagraphs (a)
 and (c) of the Commercial Computer Software - Restricted
 Rights clause in FAR 52.227-19.
  
 Gaussian, Inc.
 340 Quinnipiac St., Bldg. 40, Wallingford CT 06492
  
  
 ---------------------------------------------------------------
 Warning -- This program may not be used in any manner that
 competes with the business of Gaussian, Inc. or will provide
 assistance to any competitor of Gaussian, Inc.  The licensee
 of this program is prohibited from giving any competitor of
 Gaussian, Inc. access to this program.  By using this program,
 the user acknowledges that Gaussian, Inc. is engaged in the
 business of creating and licensing software in the field of
 computational chemistry and represents and warrants to the
 licensee that it is not a competitor of Gaussian, Inc. and that
 it will not use this program in any manner prohibited above.
 ---------------------------------------------------------------
  

 Cite this work as:
 Gaussian 16, Revision A.03,
 M. J. Frisch, G. W. Trucks, H. B. Schlegel, G. E. Scuseria, 
 M. A. Robb, J. R. Cheeseman, G. Scalmani, V. Barone, 
 G. A. Petersson, H. Nakatsuji, X. Li, M. Caricato, A. V. Marenich, 
 J. Bloino, B. G. Janesko, R. Gomperts, B. Mennucci, H. P. Hratchian, 
 J. V. Ortiz, A. F. Izmaylov, J. L. Sonnenberg, D. Williams-Young, 
 F. Ding, F. Lipparini, F. Egidi, J. Goings, B. Peng, A. Petrone, 
 T. Henderson, D. Ranasinghe, V. G. Zakrzewski, J. Gao, N. Rega, 
 G. Zheng, W. Liang, M. Hada, M. Ehara, K. Toyota, R. Fukuda, 
 J. Hasegawa, M. Ishida, T. Nakajima, Y. Honda, O. Kitao, H. Nakai, 
 T. Vreven, K. Throssell, J. A. Montgomery, Jr., J. E. Peralta, 
 F. Ogliaro, M. J. Bearpark, J. J. Heyd, E. N. Brothers, K. N. Kudin, 
 V. N. Staroverov, T. A. Keith, R. Kobayashi, J. Normand, 
 K. Raghavachari, A. P. Rendell, J. C. Burant, S. S. Iyengar, 
 J. Tomasi, M. Cossi, J. M. Millam, M. Klene, C. Adamo, R. Cammi, 
 J. W. Ochterski, R. L. Martin, K. Morokuma, O. Farkas, 
 J. B. Foresman, and D. J. Fox, Gaussian, Inc., Wallingford CT, 2016.
 
 ******************************************
 Gaussian 16:  EM64L-G16RevA.03 25-Dec-2016
                 5-Mar-2020 
 ******************************************
 %mem=50GB
 %nproc=16
 Will use up to   16 processors via shared memory.
 ----------------------------------------------------------------------
 #P uLC-wHPBE/6-31G iop(3/130=0226200000, 3/131=0226200000, 3/119=07738
 00000, 3/120=0773800000) scf=(conver=6,fermi,ndamp=35,noincfock,novara
 cc,vshift=500,xqc)
 ----------------------------------------------------------------------
 1/38=1,172=1/1;
 2/12=2,17=6,18=5,40=1/2;
 3/5=1,6=6,11=2,25=1,30=1,74=-71,116=2,119=773800000,120=773800000,130=226200000,131=226200000/1,2,3;
 4//1;
 5/5=100002,6=6,8=3,10=500,13=1,18=-1,22=13,38=1,93=35/2,8;
 6/7=2,8=2,9=2,10=2,28=1/1;
 99/5=1,9=1/99;
 Leave Link    1 at Thu Mar  5 12:51:42 2020, MaxMem=  6710886400 cpu:              17.3 elap:               1.2
 (Enter /opt/ohpc/pub/libs/gaussian/g16-A.03/sandybridge/g16/l101.exe)
 -----
 H6 C5
 -----
 Symbolic Z-matrix:
 Charge =  1 Multiplicity = 2
 C                     0.        0.8788   -0.93154 
 C                     0.        1.12816   0.42346 
 C                     0.        0.        1.24088 
 C                     0.       -1.12816   0.42346 
 C                     0.       -0.8788   -0.93154 
 H                     0.        0.       -1.73227 
 H                     0.        1.6083   -1.73405 
 H                     0.        2.15663   0.76567 
 H                     0.        0.        2.32078 
 H                     0.       -2.15663   0.76567 
 H                     0.       -1.6083   -1.73405 
 
 ITRead=  0  0  0  0  0  0  0  0  0  0  0
 MicOpt= -1 -1 -1 -1 -1 -1 -1 -1 -1 -1 -1
 NAtoms=     11 NQM=       11 NQMF=       0 NMMI=      0 NMMIF=      0
                NMic=       0 NMicF=      0.
                    Isotopes and Nuclear Properties:
 (Nuclear quadrupole moments (NQMom) in fm**2, nuclear magnetic moments (NMagM)
  in nuclear magnetons)

  Atom         1           2           3           4           5           6           7           8           9          10
 IAtWgt=          12          12          12          12          12           1           1           1           1           1
 AtmWgt=  12.0000000  12.0000000  12.0000000  12.0000000  12.0000000   1.0078250   1.0078250   1.0078250   1.0078250   1.0078250
 NucSpn=           0           0           0           0           0           1           1           1           1           1
 AtZEff=  -0.0000000  -0.0000000  -0.0000000  -0.0000000  -0.0000000  -0.0000000  -0.0000000  -0.0000000  -0.0000000  -0.0000000
 NQMom=    0.0000000   0.0000000   0.0000000   0.0000000   0.0000000   0.0000000   0.0000000   0.0000000   0.0000000   0.0000000
 NMagM=    0.0000000   0.0000000   0.0000000   0.0000000   0.0000000   2.7928460   2.7928460   2.7928460   2.7928460   2.7928460
 AtZNuc=   6.0000000   6.0000000   6.0000000   6.0000000   6.0000000   1.0000000   1.0000000   1.0000000   1.0000000   1.0000000

  Atom        11
 IAtWgt=           1
 AtmWgt=   1.0078250
 NucSpn=           1
 AtZEff=  -0.0000000
 NQMom=    0.0000000
 NMagM=    2.7928460
 AtZNuc=   1.0000000
 Leave Link  101 at Thu Mar  5 12:51:42 2020, MaxMem=  6710886400 cpu:               2.5 elap:               0.2
 (Enter /opt/ohpc/pub/libs/gaussian/g16-A.03/sandybridge/g16/l202.exe)
                          Input orientation:                          
 ---------------------------------------------------------------------
 Center     Atomic      Atomic             Coordinates (Angstroms)
 Number     Number       Type             X           Y           Z
 ---------------------------------------------------------------------
      1          6           0        0.000000    0.878804   -0.931542
      2          6           0        0.000000    1.128157    0.423457
      3          6           0        0.000000    0.000000    1.240879
      4          6           0        0.000000   -1.128157    0.423457
      5          6           0        0.000000   -0.878804   -0.931542
      6          1           0        0.000000    0.000000   -1.732269
      7          1           0        0.000000    1.608300   -1.734053
      8          1           0        0.000000    2.156626    0.765670
      9          1           0        0.000000    0.000000    2.320778
     10          1           0        0.000000   -2.156626    0.765670
     11          1           0        0.000000   -1.608300   -1.734053
 ---------------------------------------------------------------------
                    Distance matrix (angstroms):
                    1          2          3          4          5
     1  C    0.000000
     2  C    1.377752   0.000000
     3  C    2.343440   1.393168   0.000000
     4  C    2.421552   2.256314   1.393168   0.000000
     5  C    1.757608   2.421552   2.343440   1.377752   0.000000
     6  H    1.188890   2.433083   2.973148   2.433083   1.188890
     7  H    1.084522   2.210291   3.381841   3.484687   2.613371
     8  H    2.124466   1.083909   2.208361   3.302561   3.477695
     9  H    3.368959   2.207389   1.079899   2.207389   3.368959
    10  H    3.477695   3.302561   2.208361   1.083909   2.124466
    11  H    2.613371   3.484687   3.381841   2.210291   1.084522
                    6          7          8          9         10
     6  H    0.000000
     7  H    1.608301   0.000000
     8  H    3.300111   2.559155   0.000000
     9  H    4.053047   4.362142   2.658834   0.000000
    10  H    3.300111   4.519213   4.313252   2.658834   0.000000
    11  H    1.608301   3.216600   4.519213   4.362142   2.559155
                   11
    11  H    0.000000
 Stoichiometry    C5H6(1+,2)
 Framework group  C2V[C2(HCH),SGV(C4H4)]
 Deg. of freedom    10
 Full point group                 C2V     NOp   4
 Largest Abelian subgroup         C2V     NOp   4
 Largest concise Abelian subgroup C2      NOp   2
                         Standard orientation:                         
 ---------------------------------------------------------------------
 Center     Atomic      Atomic             Coordinates (Angstroms)
 Number     Number       Type             X           Y           Z
 ---------------------------------------------------------------------
      1          6           0        0.000000    0.878804   -0.931542
      2          6           0        0.000000    1.128157    0.423457
      3          6           0        0.000000   -0.000000    1.240879
      4          6           0       -0.000000   -1.128157    0.423457
      5          6           0       -0.000000   -0.878804   -0.931542
      6          1           0       -0.000000    0.000000   -1.732269
      7          1           0        0.000000    1.608300   -1.734053
      8          1           0        0.000000    2.156626    0.765670
      9          1           0        0.000000   -0.000000    2.320778
     10          1           0       -0.000000   -2.156626    0.765670
     11          1           0       -0.000000   -1.608300   -1.734053
 ---------------------------------------------------------------------
 Rotational constants (GHZ):           8.5259551           7.9375455           4.1106177
 Leave Link  202 at Thu Mar  5 12:51:42 2020, MaxMem=  6710886400 cpu:               0.3 elap:               0.0
 (Enter /opt/ohpc/pub/libs/gaussian/g16-A.03/sandybridge/g16/l301.exe)
 Standard basis: 6-31G (6D, 7F)
 Ernie: Thresh=  0.10000D-02 Tol=  0.10000D-05 Strict=F.
 There are    27 symmetry adapted cartesian basis functions of A1  symmetry.
 There are     4 symmetry adapted cartesian basis functions of A2  symmetry.
 There are     6 symmetry adapted cartesian basis functions of B1  symmetry.
 There are    20 symmetry adapted cartesian basis functions of B2  symmetry.
 There are    27 symmetry adapted basis functions of A1  symmetry.
 There are     4 symmetry adapted basis functions of A2  symmetry.
 There are     6 symmetry adapted basis functions of B1  symmetry.
 There are    20 symmetry adapted basis functions of B2  symmetry.
    57 basis functions,   134 primitive gaussians,    57 cartesian basis functions
    18 alpha electrons       17 beta electrons
       nuclear repulsion energy       156.0127424860 Hartrees.
 IExCor=33909 DFT=T Ex+Corr=LC-wHPBE ExCW=0 ScaHFX=  1.000000
 ScaDFX=  1.000000  1.000000  1.000000  1.000000 ScalE2=  1.000000  1.000000
 IRadAn=      5 IRanWt=     -1 IRanGd=            0 ICorTp=0 IEmpDi=  4
 HFx  wShort=  0.000000 wLong=  0.400000 cFull=  0.000000 cShort=  0.000000 cLong=  0.773800
 DFx  wShort=  0.000000 wLong=  0.400000 cFull=  0.000000 cShort=  0.000000 cLong=  0.773800
 NAtoms=   11 NActive=   11 NUniq=    7 SFac= 2.47D+00 NAtFMM=   60 NAOKFM=F Big=F
 Integral buffers will be    131072 words long.
 Raffenetti 2 integral format.
 Two-electron integral symmetry is turned on.
 Leave Link  301 at Thu Mar  5 12:51:42 2020, MaxMem=  6710886400 cpu:               0.9 elap:               0.1
 (Enter /opt/ohpc/pub/libs/gaussian/g16-A.03/sandybridge/g16/l302.exe)
 NPDir=0 NMtPBC=     1 NCelOv=     1 NCel=       1 NClECP=     1 NCelD=      1
         NCelK=      1 NCelE2=     1 NClLst=     1 CellRange=     0.0.
 One-electron integrals computed using PRISM.
 One-electron integral symmetry used in STVInt
 NBasis=    57 RedAO= T EigKep=  1.84D-03  NBF=    27     4     6    20
 NBsUse=    57 1.00D-06 EigRej= -1.00D+00 NBFU=    27     4     6    20
 Precomputing XC quadrature grid using
 IXCGrd= 4 IRadAn=           5 IRanWt=          -1 IRanGd=           0 AccXCQ= 0.00D+00.
 Generated NRdTot=       0 NPtTot=           0 NUsed=           0 NTot=          32
 NSgBfM=    57    57    57    57    57 MxSgAt=    11 MxSgA2=    11.
 Leave Link  302 at Thu Mar  5 12:51:42 2020, MaxMem=  6710886400 cpu:               3.3 elap:               0.3
 (Enter /opt/ohpc/pub/libs/gaussian/g16-A.03/sandybridge/g16/l303.exe)
 DipDrv:  MaxL=1.
 Leave Link  303 at Thu Mar  5 12:51:42 2020, MaxMem=  6710886400 cpu:               0.3 elap:               0.0
 (Enter /opt/ohpc/pub/libs/gaussian/g16-A.03/sandybridge/g16/l401.exe)
 ExpMin= 1.61D-01 ExpMax= 3.05D+03 ExpMxC= 4.57D+02 IAcc=3 IRadAn=         5 AccDes= 0.00D+00
 Harris functional with IExCor=33909 and IRadAn=       5 diagonalized for initial guess.
 HarFok:  IExCor=33909 AccDes= 0.00D+00 IRadAn=         5 IDoV= 1 UseB2=F ITyADJ=14
 ICtDFT=  3500011 ScaDFX=  1.000000  1.000000  1.000000  1.000000
 FoFCou: FMM=F IPFlag=           0 FMFlag=      100000 FMFlg1=           0
         NFxFlg=           0 DoJE=T BraDBF=F KetDBF=T FulRan=T
         wScrn=  0.000000 ICntrl=       500 IOpCl=  0 I1Cent=   200000004 NGrid=           0
         NMat0=    1 NMatS0=      1 NMatT0=    0 NMatD0=    1 NMtDS0=    0 NMtDT0=    0
 Petite list used in FoFCou.
 Harris En= -171.773145386442    
 JPrj=0 DoOrth=F DoCkMO=F.
 Initial guess orbital symmetries:
 Alpha Orbitals:
       Occupied  (A1) (B2) (A1) (B2) (A1) (A1) (A1) (B2) (A1) (A1)
                 (B2) (B1) (B2) (A1) (A1) (B2) (A2) (B1)
       Virtual   (A2) (A1) (B2) (B1) (A1) (B2) (A1) (A1) (B2) (A1)
                 (B2) (B2) (A1) (B1) (B2) (A2) (A1) (B1) (A1) (B2)
                 (A2) (A1) (B1) (B2) (A1) (B2) (B2) (A1) (A1) (B2)
                 (A1) (A1) (A1) (B2) (B2) (A1) (A1) (A1) (B2)
 Beta  Orbitals:
       Occupied  (A1) (B2) (A1) (B2) (A1) (A1) (A1) (B2) (A1) (A1)
                 (B2) (B1) (B2) (A1) (A1) (B2) (A2)
       Virtual   (B1) (A2) (A1) (B2) (B1) (A1) (B2) (A1) (A1) (B2)
                 (A1) (B2) (B2) (A1) (B1) (B2) (A2) (A1) (B1) (A1)
                 (B2) (A2) (A1) (B1) (B2) (A1) (B2) (B2) (A1) (A1)
                 (B2) (A1) (A1) (A1) (B2) (B2) (A1) (A1) (A1) (B2)
 The electronic state of the initial guess is 2-B1.
 Initial guess <Sx>= 0.0000 <Sy>= 0.0000 <Sz>= 0.5000 <S**2>= 0.7500 S= 0.5000
 Leave Link  401 at Thu Mar  5 12:51:43 2020, MaxMem=  6710886400 cpu:               3.1 elap:               0.2
 (Enter /opt/ohpc/pub/libs/gaussian/g16-A.03/sandybridge/g16/l502.exe)
 Keep R1 and R2 ints in memory in symmetry-blocked form, NReq=16815681.
 FoFCou: FMM=F IPFlag=           0 FMFlag=           0 FMFlg1=           0
         NFxFlg=           0 DoJE=F BraDBF=F KetDBF=F FulRan=T
         wScrn=  0.000000 ICntrl=       600 IOpCl=  0 I1Cent=           0 NGrid=           0
         NMat0=    1 NMatS0=   1653 NMatT0=    0 NMatD0=    1 NMtDS0=    0 NMtDT0=    0
 Petite list used in FoFCou.
 UHF open shell SCF:
 Using DIIS extrapolation, IDIIS=    10.
 NGot=  6710886400 LenX=  6710059561 LenY=  6710055871
 Requested convergence on RMS density matrix=1.00D-06 within  32 cycles.
 Requested convergence on MAX density matrix=1.00D-04.
 Requested convergence on             energy=1.00D-04.
 Virtual orbitals will be shifted by   0.500 hartree.
 No special actions if energy rises.
 Dynamic level shift is on during FON iterations.

 Cycle   1  Pass 1  IDiag  1:
 E= -176.554785347046    
 DIIS: error= 6.69D-02 at cycle   1 NSaved=   1.
 NSaved= 1 IEnMin= 1 EnMin= -176.554785347046     IErMin= 1 ErrMin= 6.69D-02
 ErrMax= 6.69D-02  0.00D+00 EMaxC= 1.00D+00 BMatC= 8.08D-01 BMatP= 8.08D-01
 IDIUse=1 WtCom= 1.00D+00 WtEn= 0.00D+00
 Coeff-Com:  0.100D+01
 Coeff:      0.100D+01
 Gap=     0.388 Goal=   None    Shift=    0.500
 T= 1978. Gap= 0.841 NK=0 IS=   19 IE=   57 IFin=   18
          NO(<0.9)=   0  NV(>0.1)=   0     18.00e < EF      0.00e >EF  Err=0.0D+00
 Gap=     0.191 Goal=   None    Shift=    0.500
 T= 1978. Gap= 0.689 NK=0 IS=   18 IE=   57 IFin=   17
          NO(<0.9)=   0  NV(>0.1)=   0     17.00e < EF      0.00e >EF  Err=0.0D+00
 GapD=    0.191 DampG=1.000 DampE=0.500 DampFc=0.5000 IDamp=-1.
 Damping current iteration by 5.00D-01
 RMSDP=1.27D-02 MaxDP=1.08D-01              OVMax= 1.15D-01

 Cycle   2  Pass 1  IDiag  1:
 E= -176.701150983600     Delta-E=       -0.146365636553 Rises=F Damp=T
 DIIS: error= 2.79D-02 at cycle   2 NSaved=   2.
 NSaved= 2 IEnMin= 2 EnMin= -176.701150983600     IErMin= 2 ErrMin= 2.79D-02
 ErrMax= 2.79D-02  0.00D+00 EMaxC= 1.00D+00 BMatC= 1.33D-01 BMatP= 8.08D-01
 IDIUse=1 WtCom= 1.00D+00 WtEn= 0.00D+00
 Coeff-Com: -0.602D+00 0.160D+01
 Coeff:     -0.602D+00 0.160D+01
 Gap=     0.405 Goal=   None    Shift=    0.500
 T= 1848. Gap= 0.887 NK=0 IS=   19 IE=   57 IFin=   18
          NO(<0.9)=   0  NV(>0.1)=   0     18.00e < EF      0.00e >EF  Err=0.0D+00
 Gap=     0.212 Goal=   None    Shift=    0.500
 T= 1848. Gap= 0.704 NK=0 IS=   18 IE=   57 IFin=   17
          NO(<0.9)=   0  NV(>0.1)=   0     17.00e < EF      0.00e >EF  Err=0.0D+00
 GapD=    0.212 DampG=1.000 DampE=0.500 DampFc=0.5000 IDamp=-1.
 Damping current iteration by 5.00D-01
 RMSDP=8.50D-03 MaxDP=7.92D-02 DE=-1.46D-01 OVMax= 1.20D-02

 Cycle   3  Pass 1  IDiag  1:
 E= -176.751053688184     Delta-E=       -0.049902704585 Rises=F Damp=T
 DIIS: error= 1.19D-02 at cycle   3 NSaved=   3.
 NSaved= 3 IEnMin= 3 EnMin= -176.751053688184     IErMin= 3 ErrMin= 1.19D-02
 ErrMax= 1.19D-02  0.00D+00 EMaxC= 1.00D+00 BMatC= 2.57D-02 BMatP= 1.33D-01
 IDIUse=1 WtCom= 1.00D+00 WtEn= 0.00D+00
 Coeff-Com:  0.237D+00-0.155D+01 0.231D+01
 Coeff:      0.237D+00-0.155D+01 0.231D+01
 Gap=     0.385 Goal=   None    Shift=    0.500
 T= 1599. Gap= 0.885 NK=0 IS=   19 IE=   57 IFin=   18
          NO(<0.9)=   0  NV(>0.1)=   0     18.00e < EF      0.00e >EF  Err=0.0D+00
 Gap=     0.207 Goal=   None    Shift=    0.500
 T= 1599. Gap= 0.708 NK=0 IS=   18 IE=   57 IFin=   17
          NO(<0.9)=   0  NV(>0.1)=   0     17.00e < EF      0.00e >EF  Err=0.0D+00
 GapD=    0.207 DampG=1.000 DampE=0.500 DampFc=0.5000 IDamp=-1.
 Damping current iteration by 5.00D-01
 RMSDP=5.10D-03 MaxDP=4.97D-02 DE=-4.99D-02 OVMax= 1.00D-02

 Cycle   4  Pass 1  IDiag  1:
 E= -176.772360076391     Delta-E=       -0.021306388206 Rises=F Damp=T
 DIIS: error= 5.43D-03 at cycle   4 NSaved=   4.
 NSaved= 4 IEnMin= 4 EnMin= -176.772360076391     IErMin= 4 ErrMin= 5.43D-03
 ErrMax= 5.43D-03  0.00D+00 EMaxC= 1.00D+00 BMatC= 6.00D-03 BMatP= 2.57D-02
 IDIUse=1 WtCom= 1.00D+00 WtEn= 0.00D+00
 Coeff-Com:  0.151D+00-0.489D+00-0.562D+00 0.190D+01
 Coeff:      0.151D+00-0.489D+00-0.562D+00 0.190D+01
 Gap=     0.387 Goal=   None    Shift=    0.500
 T= 1084. Gap= 0.887 NK=0 IS=   19 IE=   57 IFin=   18
          NO(<0.9)=   0  NV(>0.1)=   0     18.00e < EF      0.00e >EF  Err=0.0D+00
 Gap=     0.208 Goal=   None    Shift=    0.500
 T= 1084. Gap= 0.708 NK=0 IS=   18 IE=   57 IFin=   17
          NO(<0.9)=   0  NV(>0.1)=   0     17.00e < EF      0.00e >EF  Err=0.0D+00
 GapD=    0.208 DampG=1.000 DampE=1.000 DampFc=1.0000 IDamp=-1.
 RMSDP=2.90D-03 MaxDP=2.91D-02 DE=-2.13D-02 OVMax= 4.77D-03

 Cycle   5  Pass 1  IDiag  1:
 E= -176.792394654652     Delta-E=       -0.020034578262 Rises=F Damp=F
 DIIS: error= 1.32D-03 at cycle   5 NSaved=   5.
 NSaved= 5 IEnMin= 5 EnMin= -176.792394654652     IErMin= 5 ErrMin= 1.32D-03
 ErrMax= 1.32D-03  0.00D+00 EMaxC= 1.00D+00 BMatC= 1.40D-04 BMatP= 6.00D-03
 IDIUse=1 WtCom= 1.00D+00 WtEn= 0.00D+00
 Coeff-Com: -0.276D-01 0.171D+00 0.152D+00-0.806D+00 0.151D+01
 Coeff:     -0.276D-01 0.171D+00 0.152D+00-0.806D+00 0.151D+01
 Gap=     0.387 Goal=   None    Shift=    0.500
 T=  553. Gap= 0.887 NK=0 IS=   19 IE=   57 IFin=   18
          NO(<0.9)=   0  NV(>0.1)=   0     18.00e < EF      0.00e >EF  Err=0.0D+00
 Gap=     0.209 Goal=   None    Shift=    0.500
 T=  553. Gap= 0.709 NK=0 IS=   18 IE=   57 IFin=   17
          NO(<0.9)=   0  NV(>0.1)=   0     17.00e < EF      0.00e >EF  Err=0.0D+00
 GapD=    0.209 DampG=1.000 DampE=1.000 DampFc=1.0000 IDamp=-1.
 RMSDP=2.74D-04 MaxDP=2.68D-03 DE=-2.00D-02 OVMax= 4.40D-03

 Cycle   6  Pass 1  IDiag  1:
 E= -176.792487194410     Delta-E=       -0.000092539757 Rises=F Damp=F
 DIIS: error= 9.06D-04 at cycle   6 NSaved=   6.
 NSaved= 6 IEnMin= 6 EnMin= -176.792487194410     IErMin= 6 ErrMin= 9.06D-04
 ErrMax= 9.06D-04  0.00D+00 EMaxC= 1.00D+00 BMatC= 3.63D-05 BMatP= 1.40D-04
 IDIUse=1 WtCom= 1.00D+00 WtEn= 0.00D+00
 Coeff-Com: -0.132D-01-0.726D-02 0.790D-01-0.224D-01-0.129D+01 0.225D+01
 Coeff:     -0.132D-01-0.726D-02 0.790D-01-0.224D-01-0.129D+01 0.225D+01
 Gap=     0.387 Goal=   None    Shift=    0.500
 Gap=     0.209 Goal=   None    Shift=    0.500
 RMSDP=1.46D-04 MaxDP=1.91D-03 DE=-9.25D-05 OVMax= 3.58D-03

 Cycle   7  Pass 1  IDiag  1:
 E= -176.792525660996     Delta-E=       -0.000038466587 Rises=F Damp=F
 DIIS: error= 6.89D-04 at cycle   7 NSaved=   7.
 NSaved= 7 IEnMin= 7 EnMin= -176.792525660996     IErMin= 7 ErrMin= 6.89D-04
 ErrMax= 6.89D-04  0.00D+00 EMaxC= 1.00D+00 BMatC= 1.25D-05 BMatP= 3.63D-05
 IDIUse=1 WtCom= 1.00D+00 WtEn= 0.00D+00
 Coeff-Com:  0.787D-02-0.256D-01-0.132D+00 0.306D+00-0.259D+00-0.126D+01
 Coeff-Com:  0.236D+01
 Coeff:      0.787D-02-0.256D-01-0.132D+00 0.306D+00-0.259D+00-0.126D+01
 Coeff:      0.236D+01
 Gap=     0.387 Goal=   None    Shift=    0.500
 Gap=     0.209 Goal=   None    Shift=    0.500
 RMSDP=8.23D-05 MaxDP=1.40D-03 DE=-3.85D-05 OVMax= 2.65D-03

 Cycle   8  Pass 1  IDiag  1:
 E= -176.792542157145     Delta-E=       -0.000016496149 Rises=F Damp=F
 DIIS: error= 4.99D-04 at cycle   8 NSaved=   8.
 NSaved= 8 IEnMin= 8 EnMin= -176.792542157145     IErMin= 8 ErrMin= 4.99D-04
 ErrMax= 4.99D-04  0.00D+00 EMaxC= 1.00D+00 BMatC= 4.57D-06 BMatP= 1.25D-05
 IDIUse=1 WtCom= 1.00D+00 WtEn= 0.00D+00
 Coeff-Com:  0.465D-02-0.582D-03-0.102D+00 0.169D+00 0.149D+00-0.972D+00
 Coeff-Com:  0.127D+00 0.163D+01
 Coeff:      0.465D-02-0.582D-03-0.102D+00 0.169D+00 0.149D+00-0.972D+00
 Coeff:      0.127D+00 0.163D+01
 Gap=     0.387 Goal=   None    Shift=    0.500
 Gap=     0.209 Goal=   None    Shift=    0.500
 RMSDP=4.57D-05 MaxDP=9.01D-04 DE=-1.65D-05 OVMax= 1.85D-03

 Cycle   9  Pass 1  IDiag  1:
 E= -176.792548539993     Delta-E=       -0.000006382848 Rises=F Damp=F
 DIIS: error= 3.29D-04 at cycle   9 NSaved=   9.
 NSaved= 9 IEnMin= 9 EnMin= -176.792548539993     IErMin= 9 ErrMin= 3.29D-04
 ErrMax= 3.29D-04  0.00D+00 EMaxC= 1.00D+00 BMatC= 1.78D-06 BMatP= 4.57D-06
 IDIUse=1 WtCom= 1.00D+00 WtEn= 0.00D+00
 Coeff-Com: -0.281D-02 0.168D-01 0.113D-02-0.497D-01 0.160D+00 0.283D+00
 Coeff-Com: -0.133D+01-0.718D-01 0.200D+01
 Coeff:     -0.281D-02 0.168D-01 0.113D-02-0.497D-01 0.160D+00 0.283D+00
 Coeff:     -0.133D+01-0.718D-01 0.200D+01
 Gap=     0.387 Goal=   None    Shift=    0.500
 Gap=     0.209 Goal=   None    Shift=    0.500
 RMSDP=2.88D-05 MaxDP=5.65D-04 DE=-6.38D-06 OVMax= 1.27D-03

 Cycle  10  Pass 1  IDiag  1:
 E= -176.792551117112     Delta-E=       -0.000002577119 Rises=F Damp=F
 DIIS: error= 2.21D-04 at cycle  10 NSaved=  10.
 NSaved=10 IEnMin=10 EnMin= -176.792551117112     IErMin=10 ErrMin= 2.21D-04
 ErrMax= 2.21D-04  0.00D+00 EMaxC= 1.00D+00 BMatC= 6.96D-07 BMatP= 1.78D-06
 IDIUse=1 WtCom= 1.00D+00 WtEn= 0.00D+00
 Coeff-Com: -0.100D-03 0.360D-03-0.185D-01 0.368D-01-0.992D-01 0.155D+00
 Coeff-Com:  0.205D+00-0.263D+00-0.205D+01 0.303D+01
 Coeff:     -0.100D-03 0.360D-03-0.185D-01 0.368D-01-0.992D-01 0.155D+00
 Coeff:      0.205D+00-0.263D+00-0.205D+01 0.303D+01
 Gap=     0.387 Goal=   None    Shift=    0.500
 Gap=     0.209 Goal=   None    Shift=    0.500
 RMSDP=1.67D-05 MaxDP=3.19D-04 DE=-2.58D-06 OVMax= 8.53D-04

 Cycle  11  Pass 1  IDiag  1:
 E= -176.792552072291     Delta-E=       -0.000000955179 Rises=F Damp=F
 DIIS: error= 1.42D-04 at cycle  11 NSaved=  11.
 NSaved=11 IEnMin=11 EnMin= -176.792552072291     IErMin=11 ErrMin= 1.42D-04
 ErrMax= 1.42D-04  0.00D+00 EMaxC= 1.00D+00 BMatC= 2.59D-07 BMatP= 6.96D-07
 IDIUse=1 WtCom= 1.00D+00 WtEn= 0.00D+00
 Coeff-Com:  0.368D-03 0.248D-03-0.862D-02 0.133D-01 0.143D-02-0.864D-01
 Coeff-Com:  0.175D+00-0.221D-01 0.465D+00-0.293D+01 0.339D+01
 Coeff:      0.368D-03 0.248D-03-0.862D-02 0.133D-01 0.143D-02-0.864D-01
 Coeff:      0.175D+00-0.221D-01 0.465D+00-0.293D+01 0.339D+01
 Gap=     0.387 Goal=   None    Shift=    0.500
 Gap=     0.209 Goal=   None    Shift=    0.500
 RMSDP=9.44D-06 MaxDP=1.66D-04 DE=-9.55D-07 OVMax= 5.53D-04

 Cycle  12  Pass 1  IDiag  1:
 E= -176.792552409174     Delta-E=       -0.000000336883 Rises=F Damp=F
 DIIS: error= 8.81D-05 at cycle  12 NSaved=  12.
 NSaved=12 IEnMin=12 EnMin= -176.792552409174     IErMin=12 ErrMin= 8.81D-05
 ErrMax= 8.81D-05  0.00D+00 EMaxC= 1.00D+00 BMatC= 9.34D-08 BMatP= 2.59D-07
 IDIUse=1 WtCom= 1.00D+00 WtEn= 0.00D+00
 Coeff-Com: -0.534D-05-0.336D-03 0.130D-02-0.138D-02 0.780D-03 0.263D-01
 Coeff-Com: -0.527D-01-0.650D-01 0.200D+00 0.491D+00-0.293D+01 0.333D+01
 Coeff:     -0.534D-05-0.336D-03 0.130D-02-0.138D-02 0.780D-03 0.263D-01
 Coeff:     -0.527D-01-0.650D-01 0.200D+00 0.491D+00-0.293D+01 0.333D+01
 Gap=     0.387 Goal=   None    Shift=    0.500
 Gap=     0.209 Goal=   None    Shift=    0.500
 RMSDP=5.27D-06 MaxDP=8.74D-05 DE=-3.37D-07 OVMax= 3.43D-04

 Cycle  13  Pass 1  IDiag  1:
 E= -176.792552524819     Delta-E=       -0.000000115645 Rises=F Damp=F
 DIIS: error= 5.52D-05 at cycle  13 NSaved=  13.
 NSaved=13 IEnMin=13 EnMin= -176.792552524819     IErMin=13 ErrMin= 5.52D-05
 ErrMax= 5.52D-05  0.00D+00 EMaxC= 1.00D+00 BMatC= 3.67D-08 BMatP= 9.34D-08
 IDIUse=1 WtCom= 1.00D+00 WtEn= 0.00D+00
 Coeff-Com: -0.566D-04 0.197D-03-0.158D-02 0.272D-02-0.861D-02 0.389D-01
 Coeff-Com: -0.367D-01-0.582D-01-0.779D-01 0.868D+00-0.128D+01-0.114D+01
 Coeff-Com:  0.270D+01
 Coeff:     -0.566D-04 0.197D-03-0.158D-02 0.272D-02-0.861D-02 0.389D-01
 Coeff:     -0.367D-01-0.582D-01-0.779D-01 0.868D+00-0.128D+01-0.114D+01
 Coeff:      0.270D+01
 Gap=     0.387 Goal=   None    Shift=    0.500
 Gap=     0.209 Goal=   None    Shift=    0.500
 RMSDP=2.92D-06 MaxDP=4.60D-05 DE=-1.16D-07 OVMax= 2.14D-04

 Cycle  14  Pass 1  IDiag  1:
 E= -176.792552565685     Delta-E=       -0.000000040866 Rises=F Damp=F
 DIIS: error= 3.40D-05 at cycle  14 NSaved=  14.
 NSaved=14 IEnMin=14 EnMin= -176.792552565685     IErMin=14 ErrMin= 3.40D-05
 ErrMax= 3.40D-05  0.00D+00 EMaxC= 1.00D+00 BMatC= 1.46D-08 BMatP= 3.67D-08
 IDIUse=1 WtCom= 1.00D+00 WtEn= 0.00D+00
 Coeff-Com:  0.382D-05 0.303D-03-0.239D-02 0.354D-02-0.312D-02-0.843D-02
 Coeff-Com:  0.278D-01-0.733D-02 0.198D-01-0.282D+00 0.720D+00 0.929D-01
 Coeff-Com: -0.345D+01 0.389D+01
 Coeff:      0.382D-05 0.303D-03-0.239D-02 0.354D-02-0.312D-02-0.843D-02
 Coeff:      0.278D-01-0.733D-02 0.198D-01-0.282D+00 0.720D+00 0.929D-01
 Coeff:     -0.345D+01 0.389D+01
 Gap=     0.387 Goal=   None    Shift=    0.500
 Gap=     0.209 Goal=   None    Shift=    0.500
 RMSDP=1.65D-06 MaxDP=2.50D-05 DE=-4.09D-08 OVMax= 1.32D-04

 Cycle  15  Pass 1  IDiag  1:
 E= -176.792552580146     Delta-E=       -0.000000014460 Rises=F Damp=F
 DIIS: error= 2.06D-05 at cycle  15 NSaved=  15.
 NSaved=15 IEnMin=15 EnMin= -176.792552580146     IErMin=15 ErrMin= 2.06D-05
 ErrMax= 2.06D-05  0.00D+00 EMaxC= 1.00D+00 BMatC= 5.78D-09 BMatP= 1.46D-08
 IDIUse=1 WtCom= 1.00D+00 WtEn= 0.00D+00
 Coeff-Com: -0.863D-06-0.133D-04-0.230D-03 0.498D-03-0.628D-03 0.346D-02
 Coeff-Com: -0.208D-02-0.188D-01 0.134D-01 0.113D+00-0.315D+00 0.400D+00
 Coeff-Com:  0.278D+00-0.284D+01 0.336D+01
 Coeff:     -0.863D-06-0.133D-04-0.230D-03 0.498D-03-0.628D-03 0.346D-02
 Coeff:     -0.208D-02-0.188D-01 0.134D-01 0.113D+00-0.315D+00 0.400D+00
 Coeff:      0.278D+00-0.284D+01 0.336D+01
 Gap=     0.387 Goal=   None    Shift=    0.500
 Gap=     0.209 Goal=   None    Shift=    0.500
 RMSDP=9.06D-07 MaxDP=1.42D-05 DE=-1.45D-08 OVMax= 7.88D-05

 SCF Done:  E(ULC-wHPBE) =  -176.792552580     A.U. after   15 cycles
            NFock= 15  Conv=0.91D-06     -V/T= 1.9520
 <Sx>= 0.0000 <Sy>= 0.0000 <Sz>= 0.5000 <S**2>= 0.7540 S= 0.5020
 <L.S>= 0.000000000000E+00
 KE= 1.856975392446D+02 PE=-7.382508776213D+02 EE= 2.197480433105D+02
 Annihilation of the first spin contaminant:
 S**2 before annihilation     0.7540,   after     0.7500
 Leave Link  502 at Thu Mar  5 12:51:44 2020, MaxMem=  6710886400 cpu:              25.0 elap:               1.6
 (Enter /opt/ohpc/pub/libs/gaussian/g16-A.03/sandybridge/g16/l508.exe)
 QCSCF skips out because SCF is already converged.
 Leave Link  508 at Thu Mar  5 12:51:44 2020, MaxMem=  6710886400 cpu:               0.2 elap:               0.0
 (Enter /opt/ohpc/pub/libs/gaussian/g16-A.03/sandybridge/g16/l601.exe)
 Copying SCF densities to generalized density rwf, IOpCl= 1 IROHF=0.

 **********************************************************************

            Population analysis using the SCF density.

 **********************************************************************

 Orbital symmetries:
 Alpha Orbitals:
       Occupied  (B2) (A1) (A1) (A1) (B2) (A1) (A1) (B2) (A1) (B2)
                 (A1) (B1) (B2) (A1) (A1) (B2) (A2) (B1)
       Virtual   (A2) (B2) (A1) (B1) (A1) (B2) (A1) (B2) (A1) (A1)
                 (B2) (B2) (A1) (B1) (B2) (A1) (A2) (B1) (A1) (A2)
                 (B2) (A1) (B1) (B2) (A1) (B2) (A1) (B2) (A1) (B2)
                 (A1) (A1) (A1) (B2) (B2) (A1) (A1) (A1) (B2)
 Beta  Orbitals:
       Occupied  (B2) (A1) (A1) (A1) (B2) (A1) (A1) (B2) (A1) (B2)
                 (A1) (B2) (B1) (A1) (A1) (B2) (A2)
       Virtual   (B1) (A2) (B2) (A1) (B1) (A1) (B2) (A1) (B2) (A1)
                 (A1) (B2) (B2) (A1) (B1) (B2) (A1) (A2) (B1) (A1)
                 (A2) (B2) (A1) (B1) (B2) (A1) (B2) (A1) (B2) (A1)
                 (B2) (A1) (A1) (A1) (B2) (B2) (A1) (A1) (A1) (B2)
 The electronic state is 2-B1.
 Alpha  occ. eigenvalues --   -8.84579  -8.84547  -8.79439  -8.78460  -8.78445
 Alpha  occ. eigenvalues --   -1.15472  -1.01601  -0.95576  -0.83561  -0.80506
 Alpha  occ. eigenvalues --   -0.79498  -0.68831  -0.67638  -0.65538  -0.63421
 Alpha  occ. eigenvalues --   -0.61729  -0.52426  -0.50916
 Alpha virt. eigenvalues --   -0.12181  -0.08834  -0.06702  -0.06019  -0.03203
 Alpha virt. eigenvalues --    0.02421   0.03765   0.07020   0.07771   0.17236
 Alpha virt. eigenvalues --    0.19258   0.30642   0.31622   0.40346   0.40817
 Alpha virt. eigenvalues --    0.47389   0.47630   0.47961   0.52148   0.55244
 Alpha virt. eigenvalues --    0.55653   0.56854   0.57290   0.67921   0.74925
 Alpha virt. eigenvalues --    0.76391   0.81202   0.82752   0.82968   0.87820
 Alpha virt. eigenvalues --    0.88676   0.92567   0.97202   1.00025   1.08410
 Alpha virt. eigenvalues --    1.08720   1.16342   1.36849   1.37936
  Beta  occ. eigenvalues --   -8.84595  -8.84558  -8.79453  -8.78460  -8.78445
  Beta  occ. eigenvalues --   -1.15332  -1.01102  -0.95627  -0.83445  -0.80494
  Beta  occ. eigenvalues --   -0.79553  -0.67736  -0.66200  -0.65617  -0.63498
  Beta  occ. eigenvalues --   -0.61806  -0.52106
  Beta virt. eigenvalues --   -0.31168  -0.10558  -0.08920  -0.06707  -0.04477
  Beta virt. eigenvalues --   -0.03208   0.02379   0.03718   0.07005   0.07759
  Beta virt. eigenvalues --    0.17249   0.19221   0.30550   0.31704   0.40488
  Beta virt. eigenvalues --    0.40811   0.47389   0.47622   0.48476   0.52471
  Beta virt. eigenvalues --    0.55311   0.55488   0.57081   0.57378   0.67969
  Beta virt. eigenvalues --    0.75066   0.76286   0.81083   0.82734   0.82898
  Beta virt. eigenvalues --    0.87683   0.88717   0.92668   0.97185   1.00003
  Beta virt. eigenvalues --    1.08370   1.08706   1.16403   1.36865   1.37941
          Condensed to atoms (all electrons):
               1          2          3          4          5          6
     1  C    5.252415   0.540978  -0.062089  -0.193609   0.272000   0.175139
     2  C    0.540978   4.816167   0.542424  -0.059154  -0.193609  -0.023924
     3  C   -0.062089   0.542424   4.656169   0.542424  -0.062089   0.010481
     4  C   -0.193609  -0.059154   0.542424   4.816167   0.540978  -0.023924
     5  C    0.272000  -0.193609  -0.062089   0.540978   5.252415   0.175139
     6  H    0.175139  -0.023924   0.010481  -0.023924   0.175139   0.346040
     7  H    0.351810   0.015850   0.000512   0.005140  -0.027078  -0.002689
     8  H   -0.018286   0.369899  -0.005579   0.006546   0.002268   0.001090
     9  H    0.008680  -0.029483   0.387401  -0.029483   0.008680  -0.000207
    10  H    0.002268   0.006546  -0.005579   0.369899  -0.018286   0.001090
    11  H   -0.027078   0.005140   0.000512   0.015850   0.351810  -0.002689
               7          8          9         10         11
     1  C    0.351810  -0.018286   0.008680   0.002268  -0.027078
     2  C    0.015850   0.369899  -0.029483   0.006546   0.005140
     3  C    0.000512  -0.005579   0.387401  -0.005579   0.000512
     4  C    0.005140   0.006546  -0.029483   0.369899   0.015850
     5  C   -0.027078   0.002268   0.008680  -0.018286   0.351810
     6  H   -0.002689   0.001090  -0.000207   0.001090  -0.002689
     7  H    0.372105  -0.002384  -0.000072  -0.000046   0.000771
     8  H   -0.002384   0.424177  -0.003786  -0.000166  -0.000046
     9  H   -0.000072  -0.003786   0.440561  -0.003786  -0.000072
    10  H   -0.000046  -0.000166  -0.003786   0.424177  -0.002384
    11  H    0.000771  -0.000046  -0.000072  -0.002384   0.372105
          Atomic-Atomic Spin Densities.
               1          2          3          4          5          6
     1  C    0.310396  -0.045373  -0.031751  -0.011800   0.064061  -0.000461
     2  C   -0.045373  -0.024524   0.048871   0.001498  -0.011800  -0.000159
     3  C   -0.031751   0.048871   0.464327   0.048871  -0.031751   0.000056
     4  C   -0.011800   0.001498   0.048871  -0.024524  -0.045373  -0.000159
     5  C    0.064061  -0.011800  -0.031751  -0.045373   0.310396  -0.000461
     6  H   -0.000461  -0.000159   0.000056  -0.000159  -0.000461  -0.002421
     7  H    0.000600  -0.000564   0.000033   0.000005  -0.000237  -0.000247
     8  H   -0.000454  -0.000054  -0.000050  -0.000050   0.000021   0.000003
     9  H    0.000079  -0.000897   0.001692  -0.000897   0.000079  -0.000005
    10  H    0.000021  -0.000050  -0.000050  -0.000054  -0.000454   0.000003
    11  H   -0.000237   0.000005   0.000033  -0.000564   0.000600  -0.000247
               7          8          9         10         11
     1  C    0.000600  -0.000454   0.000079   0.000021  -0.000237
     2  C   -0.000564  -0.000054  -0.000897  -0.000050   0.000005
     3  C    0.000033  -0.000050   0.001692  -0.000050   0.000033
     4  C    0.000005  -0.000050  -0.000897  -0.000054  -0.000564
     5  C   -0.000237   0.000021   0.000079  -0.000454   0.000600
     6  H   -0.000247   0.000003  -0.000005   0.000003  -0.000247
     7  H   -0.000103   0.000000  -0.000001   0.000000  -0.000014
     8  H    0.000000   0.000826  -0.000047  -0.000001   0.000000
     9  H   -0.000001  -0.000047   0.000445  -0.000047  -0.000001
    10  H    0.000000  -0.000001  -0.000047   0.000826   0.000000
    11  H   -0.000014   0.000000  -0.000001   0.000000  -0.000103
 Mulliken charges and spin densities:
               1          2
     1  C   -0.302229   0.285082
     2  C    0.009165  -0.033045
     3  C   -0.004584   0.500280
     4  C    0.009165  -0.033045
     5  C   -0.302229   0.285082
     6  H    0.344454  -0.004094
     7  H    0.286079  -0.000527
     8  H    0.226266   0.000197
     9  H    0.221567   0.000401
    10  H    0.226266   0.000197
    11  H    0.286079  -0.000527
 Sum of Mulliken charges =   1.00000   1.00000
 Mulliken charges and spin densities with hydrogens summed into heavy atoms:
               1          2
     1  C    0.328304   0.280460
     2  C    0.235431  -0.032848
     3  C    0.216983   0.500681
     4  C    0.235431  -0.032848
     5  C   -0.016149   0.284555
 Electronic spatial extent (au):  <R**2>=            336.0544
 Charge=              1.0000 electrons
 Dipole moment (field-independent basis, Debye):
    X=             -0.0000    Y=             -0.0000    Z=             -2.1206  Tot=              2.1206
 Quadrupole moment (field-independent basis, Debye-Ang):
   XX=            -37.2026   YY=            -26.3663   ZZ=            -21.5065
   XY=              0.0000   XZ=              0.0000   YZ=              0.0000
 Traceless Quadrupole moment (field-independent basis, Debye-Ang):
   XX=             -8.8441   YY=              1.9922   ZZ=              6.8519
   XY=              0.0000   XZ=              0.0000   YZ=              0.0000
 Octapole moment (field-independent basis, Debye-Ang**2):
  XXX=              0.0000  YYY=              0.0000  ZZZ=             -8.4536  XYY=              0.0000
  XXY=             -0.0000  XXZ=              0.7616  XZZ=              0.0000  YZZ=             -0.0000
  YYZ=             -3.1206  XYZ=             -0.0000
 Hexadecapole moment (field-independent basis, Debye-Ang**3):
 XXXX=            -42.9970 YYYY=           -215.1932 ZZZZ=           -190.8616 XXXY=             -0.0000
 XXXZ=             -0.0000 YYYX=             -0.0000 YYYZ=             -0.0000 ZZZX=             -0.0000
 ZZZY=              0.0000 XXYY=            -53.6727 XXZZ=            -49.2069 YYZZ=            -65.8049
 XXYZ=              0.0000 YYXZ=             -0.0000 ZZXY=             -0.0000
 N-N= 1.560127424860D+02 E-N=-7.382508671536D+02  KE= 1.856975392446D+02
 Symmetry A1   KE= 1.078356048575D+02
 Symmetry A2   KE= 2.103470116745D+00
 Symmetry B1   KE= 2.620988186575D+00
 Symmetry B2   KE= 7.313747608381D+01
 Symmetry A1   SP=-4.723339469927D-15
 Symmetry A2   SP=-1.436676298761D-15
 Symmetry B1   SP= 1.000000000000D+00
 Symmetry B2   SP=-1.502845962029D-14
                          Isotropic Fermi Contact Couplings
        Atom                 a.u.       MegaHertz       Gauss      10(-4) cm-1
     1  C(13)              0.00458       5.14700       1.83658       1.71685
     2  C(13)             -0.00011      -0.12562      -0.04483      -0.04190
     3  C(13)              0.00738       8.29125       2.95852       2.76566
     4  C(13)             -0.00011      -0.12562      -0.04483      -0.04190
     5  C(13)              0.00458       5.14700       1.83658       1.71685
     6  H(1)              -0.00132      -5.92215      -2.11317      -1.97542
     7  H(1)              -0.00044      -1.98235      -0.70735      -0.66124
     8  H(1)               0.00015       0.68623       0.24486       0.22890
     9  H(1)              -0.00085      -3.78311      -1.34991      -1.26191
    10  H(1)               0.00015       0.68623       0.24486       0.22890
    11  H(1)              -0.00044      -1.98235      -0.70735      -0.66124
 --------------------------------------------------------
       Center         ----  Spin Dipole Couplings  ----
                      3XX-RR        3YY-RR        3ZZ-RR
 --------------------------------------------------------
     1   Atom        0.238393     -0.113432     -0.124961
     2   Atom       -0.017376      0.007663      0.009713
     3   Atom        0.461851     -0.232799     -0.229052
     4   Atom       -0.017376      0.007663      0.009713
     5   Atom        0.238393     -0.113432     -0.124961
     6   Atom        0.006300     -0.004223     -0.002077
     7   Atom       -0.000092      0.001797     -0.001705
     8   Atom       -0.006987      0.009757     -0.002770
     9   Atom        0.001041     -0.031018      0.029977
    10   Atom       -0.006987      0.009757     -0.002770
    11   Atom       -0.000092      0.001797     -0.001705
 --------------------------------------------------------
                        XY            XZ            YZ
 --------------------------------------------------------
     1   Atom       -0.000000     -0.000000     -0.002829
     2   Atom        0.000000      0.000000     -0.012654
     3   Atom       -0.000000     -0.000000      0.000000
     4   Atom       -0.000000     -0.000000      0.012654
     5   Atom       -0.000000      0.000000      0.002829
     6   Atom       -0.000000      0.000000     -0.000000
     7   Atom       -0.000000      0.000000     -0.018495
     8   Atom        0.000000      0.000000      0.000213
     9   Atom       -0.000000     -0.000000      0.000000
    10   Atom        0.000000     -0.000000     -0.000213
    11   Atom       -0.000000     -0.000000      0.018495
 --------------------------------------------------------


 ---------------------------------------------------------------------------------
              Anisotropic Spin Dipole Couplings in Principal Axis System
 ---------------------------------------------------------------------------------

       Atom             a.u.   MegaHertz   Gauss  10(-4) cm-1        Axes

              Baa    -0.1256   -16.857    -6.015    -5.623  0.0000  0.2262  0.9741
     1 C(13)  Bbb    -0.1128   -15.133    -5.400    -5.048  0.0000  0.9741 -0.2262
              Bcc     0.2384    31.990    11.415    10.671  1.0000 -0.0000  0.0000
 
              Baa    -0.0174    -2.332    -0.832    -0.778  1.0000  0.0000  0.0000
     2 C(13)  Bbb    -0.0040    -0.538    -0.192    -0.179 -0.0000  0.7351  0.6780
              Bcc     0.0214     2.869     1.024     0.957  0.0000 -0.6780  0.7351
 
              Baa    -0.2328   -31.239   -11.147   -10.420  0.0000  1.0000  0.0000
     3 C(13)  Bbb    -0.2291   -30.737   -10.968   -10.253  0.0000  0.0000  1.0000
              Bcc     0.4619    61.976    22.115    20.673  1.0000 -0.0000  0.0000
 
              Baa    -0.0174    -2.332    -0.832    -0.778  1.0000  0.0000  0.0000
     4 C(13)  Bbb    -0.0040    -0.538    -0.192    -0.179  0.0000  0.7351 -0.6780
              Bcc     0.0214     2.869     1.024     0.957 -0.0000  0.6780  0.7351
 
              Baa    -0.1256   -16.857    -6.015    -5.623 -0.0000 -0.2262  0.9741
     5 C(13)  Bbb    -0.1128   -15.133    -5.400    -5.048  0.0000  0.9741  0.2262
              Bcc     0.2384    31.990    11.415    10.671  1.0000 -0.0000  0.0000
 
              Baa    -0.0042    -2.253    -0.804    -0.752  0.0000  1.0000  0.0000
     6 H(1)   Bbb    -0.0021    -1.108    -0.395    -0.370 -0.0000 -0.0000  1.0000
              Bcc     0.0063     3.361     1.199     1.121  1.0000 -0.0000  0.0000
 
              Baa    -0.0185    -9.888    -3.528    -3.298 -0.0000  0.6730  0.7397
     7 H(1)   Bbb    -0.0001    -0.049    -0.018    -0.016  1.0000  0.0000 -0.0000
              Bcc     0.0186     9.937     3.546     3.315 -0.0000  0.7397 -0.6730
 
              Baa    -0.0070    -3.728    -1.330    -1.243  1.0000 -0.0000 -0.0000
     8 H(1)   Bbb    -0.0028    -1.480    -0.528    -0.494  0.0000 -0.0170  0.9999
              Bcc     0.0098     5.208     1.858     1.737  0.0000  0.9999  0.0170
 
              Baa    -0.0310   -16.550    -5.905    -5.520 -0.0000  1.0000 -0.0000
     9 H(1)   Bbb     0.0010     0.555     0.198     0.185  1.0000  0.0000  0.0000
              Bcc     0.0300    15.994     5.707     5.335  0.0000  0.0000  1.0000
 
              Baa    -0.0070    -3.728    -1.330    -1.243  1.0000 -0.0000  0.0000
    10 H(1)   Bbb    -0.0028    -1.480    -0.528    -0.494 -0.0000  0.0170  0.9999
              Bcc     0.0098     5.208     1.858     1.737  0.0000  0.9999 -0.0170
 
              Baa    -0.0185    -9.888    -3.528    -3.298  0.0000 -0.6730  0.7397
    11 H(1)   Bbb    -0.0001    -0.049    -0.018    -0.016  1.0000  0.0000  0.0000
              Bcc     0.0186     9.937     3.546     3.315 -0.0000  0.7397  0.6730
 

 ---------------------------------------------------------------------------------

 No NMR shielding tensors so no spin-rotation constants.
 Leave Link  601 at Thu Mar  5 12:51:45 2020, MaxMem=  6710886400 cpu:               3.0 elap:               0.2
 (Enter /opt/ohpc/pub/libs/gaussian/g16-A.03/sandybridge/g16/l9999.exe)

 Test job not archived.
 1\1\GINC-CNODE212\SP\ULC-wHPBE\6-31G\C5H6(1+,2)\SMGO234\05-Mar-2020\0\
 \#P uLC-wHPBE/6-31G iop(3/130=0226200000, 3/131=0226200000, 3/119=0773
 800000, 3/120=0773800000) scf=(conver=6,fermi,ndamp=35,noincfock,novar
 acc,vshift=500,xqc)\\H6 C5\\1,2\C,0,0.,0.878804,-0.931542\C,0,0.,1.128
 157,0.423457\C,0,0.,0.,1.240879\C,0,0.,-1.128157,0.423457\C,0,0.,-0.87
 8804,-0.931542\H,0,0.,0.,-1.732269\H,0,0.,1.6083,-1.734053\H,0,0.,2.15
 6626,0.76567\H,0,0.,0.,2.320778\H,0,0.,-2.156626,0.76567\H,0,0.,-1.608
 3,-1.734053\\Version=EM64L-G16RevA.03\State=2-B1\HF=-176.7925526\S2=0.
 753996\S2-1=0.\S2A=0.750009\RMSD=9.062e-07\Dipole=0.,0.,-0.8343053\Qua
 drupole=-6.5753688,1.4811353,5.0942334,0.,0.,0.\PG=C02V [C2(H1C1H1),SG
 V(C4H4)]\\@


 LIFE CAN ONLY BE UNDERSTOOD BACKWARD, BUT MUST
 BE LIVED FORWARD. -- KIRKEGAARD
 Job cpu time:       0 days  0 hours  0 minutes 56.5 seconds.
 Elapsed time:       0 days  0 hours  0 minutes  4.0 seconds.
 File lengths (MBytes):  RWF=    272 Int=      0 D2E=      0 Chk=     32 Scr=     32
 Normal termination of Gaussian 16 at Thu Mar  5 12:51:45 2020.
