 Entering Gaussian System, Link 0=g16
 Input=a1b_tune_n2.gjf
 Output=a1b_tune_n2.log
 Initial command:
 /opt/ohpc/pub/libs/gaussian/g16-A.03/sandybridge/g16/l1.exe "/scratch/smgo234/Ocelot/test/a1b/tuning_a1b_acycle1/Gau-78988.inp" -scrdir="/scratch/smgo234/Ocelot/test/a1b/tuning_a1b_acycle1/"
 Entering Link 1 = /opt/ohpc/pub/libs/gaussian/g16-A.03/sandybridge/g16/l1.exe PID=     78989.
  
 Copyright (c) 1988,1990,1992,1993,1995,1998,2003,2009,2016,
            Gaussian, Inc.  All Rights Reserved.
  
 This is part of the Gaussian(R) 16 program.  It is based on
 the Gaussian(R) 09 system (copyright 2009, Gaussian, Inc.),
 the Gaussian(R) 03 system (copyright 2003, Gaussian, Inc.),
 the Gaussian(R) 98 system (copyright 1998, Gaussian, Inc.),
 the Gaussian(R) 94 system (copyright 1995, Gaussian, Inc.),
 the Gaussian 92(TM) system (copyright 1992, Gaussian, Inc.),
 the Gaussian 90(TM) system (copyright 1990, Gaussian, Inc.),
 the Gaussian 88(TM) system (copyright 1988, Gaussian, Inc.),
 the Gaussian 86(TM) system (copyright 1986, Carnegie Mellon
 University), and the Gaussian 82(TM) system (copyright 1983,
 Carnegie Mellon University). Gaussian is a federally registered
 trademark of Gaussian, Inc.
  
 This software contains proprietary and confidential information,
 including trade secrets, belonging to Gaussian, Inc.
  
 This software is provided under written license and may be
 used, copied, transmitted, or stored only in accord with that
 written license.
  
 The following legend is applicable only to US Government
 contracts under FAR:
  
                    RESTRICTED RIGHTS LEGEND
  
 Use, reproduction and disclosure by the US Government is
 subject to restrictions as set forth in subparagraphs (a)
 and (c) of the Commercial Computer Software - Restricted
 Rights clause in FAR 52.227-19.
  
 Gaussian, Inc.
 340 Quinnipiac St., Bldg. 40, Wallingford CT 06492
  
  
 ---------------------------------------------------------------
 Warning -- This program may not be used in any manner that
 competes with the business of Gaussian, Inc. or will provide
 assistance to any competitor of Gaussian, Inc.  The licensee
 of this program is prohibited from giving any competitor of
 Gaussian, Inc. access to this program.  By using this program,
 the user acknowledges that Gaussian, Inc. is engaged in the
 business of creating and licensing software in the field of
 computational chemistry and represents and warrants to the
 licensee that it is not a competitor of Gaussian, Inc. and that
 it will not use this program in any manner prohibited above.
 ---------------------------------------------------------------
  

 Cite this work as:
 Gaussian 16, Revision A.03,
 M. J. Frisch, G. W. Trucks, H. B. Schlegel, G. E. Scuseria, 
 M. A. Robb, J. R. Cheeseman, G. Scalmani, V. Barone, 
 G. A. Petersson, H. Nakatsuji, X. Li, M. Caricato, A. V. Marenich, 
 J. Bloino, B. G. Janesko, R. Gomperts, B. Mennucci, H. P. Hratchian, 
 J. V. Ortiz, A. F. Izmaylov, J. L. Sonnenberg, D. Williams-Young, 
 F. Ding, F. Lipparini, F. Egidi, J. Goings, B. Peng, A. Petrone, 
 T. Henderson, D. Ranasinghe, V. G. Zakrzewski, J. Gao, N. Rega, 
 G. Zheng, W. Liang, M. Hada, M. Ehara, K. Toyota, R. Fukuda, 
 J. Hasegawa, M. Ishida, T. Nakajima, Y. Honda, O. Kitao, H. Nakai, 
 T. Vreven, K. Throssell, J. A. Montgomery, Jr., J. E. Peralta, 
 F. Ogliaro, M. J. Bearpark, J. J. Heyd, E. N. Brothers, K. N. Kudin, 
 V. N. Staroverov, T. A. Keith, R. Kobayashi, J. Normand, 
 K. Raghavachari, A. P. Rendell, J. C. Burant, S. S. Iyengar, 
 J. Tomasi, M. Cossi, J. M. Millam, M. Klene, C. Adamo, R. Cammi, 
 J. W. Ochterski, R. L. Martin, K. Morokuma, O. Farkas, 
 J. B. Foresman, and D. J. Fox, Gaussian, Inc., Wallingford CT, 2016.
 
 ******************************************
 Gaussian 16:  EM64L-G16RevA.03 25-Dec-2016
                 5-Mar-2020 
 ******************************************
 %mem=50GB
 %nproc=16
 Will use up to   16 processors via shared memory.
 ----------------------------------------------------------------------
 #P uLC-wHPBE/6-31G iop(3/130=0379000000, 3/131=0379000000, 3/119=06210
 00000, 3/120=0621000000) scf=(conver=6,fermi,ndamp=35,noincfock,novara
 cc,vshift=500,xqc)
 ----------------------------------------------------------------------
 1/38=1,172=1/1;
 2/12=2,17=6,18=5,40=1/2;
 3/5=1,6=6,11=2,25=1,30=1,74=-71,116=2,119=621000000,120=621000000,130=379000000,131=379000000/1,2,3;
 4//1;
 5/5=100002,6=6,8=3,10=500,13=1,18=-1,22=13,38=1,93=35/2,8;
 6/7=2,8=2,9=2,10=2,28=1/1;
 99/5=1,9=1/99;
 Leave Link    1 at Thu Mar  5 12:51:54 2020, MaxMem=  6710886400 cpu:              15.4 elap:               1.0
 (Enter /opt/ohpc/pub/libs/gaussian/g16-A.03/sandybridge/g16/l101.exe)
 -----
 H6 C5
 -----
 Symbolic Z-matrix:
 Charge =  0 Multiplicity = 1
 C                     0.        0.8788   -0.93154 
 C                     0.        1.12816   0.42346 
 C                     0.        0.        1.24088 
 C                     0.       -1.12816   0.42346 
 C                     0.       -0.8788   -0.93154 
 H                     0.        0.       -1.73227 
 H                     0.        1.6083   -1.73405 
 H                     0.        2.15663   0.76567 
 H                     0.        0.        2.32078 
 H                     0.       -2.15663   0.76567 
 H                     0.       -1.6083   -1.73405 
 
 ITRead=  0  0  0  0  0  0  0  0  0  0  0
 MicOpt= -1 -1 -1 -1 -1 -1 -1 -1 -1 -1 -1
 NAtoms=     11 NQM=       11 NQMF=       0 NMMI=      0 NMMIF=      0
                NMic=       0 NMicF=      0.
                    Isotopes and Nuclear Properties:
 (Nuclear quadrupole moments (NQMom) in fm**2, nuclear magnetic moments (NMagM)
  in nuclear magnetons)

  Atom         1           2           3           4           5           6           7           8           9          10
 IAtWgt=          12          12          12          12          12           1           1           1           1           1
 AtmWgt=  12.0000000  12.0000000  12.0000000  12.0000000  12.0000000   1.0078250   1.0078250   1.0078250   1.0078250   1.0078250
 NucSpn=           0           0           0           0           0           1           1           1           1           1
 AtZEff=  -0.0000000  -0.0000000  -0.0000000  -0.0000000  -0.0000000  -0.0000000  -0.0000000  -0.0000000  -0.0000000  -0.0000000
 NQMom=    0.0000000   0.0000000   0.0000000   0.0000000   0.0000000   0.0000000   0.0000000   0.0000000   0.0000000   0.0000000
 NMagM=    0.0000000   0.0000000   0.0000000   0.0000000   0.0000000   2.7928460   2.7928460   2.7928460   2.7928460   2.7928460
 AtZNuc=   6.0000000   6.0000000   6.0000000   6.0000000   6.0000000   1.0000000   1.0000000   1.0000000   1.0000000   1.0000000

  Atom        11
 IAtWgt=           1
 AtmWgt=   1.0078250
 NucSpn=           1
 AtZEff=  -0.0000000
 NQMom=    0.0000000
 NMagM=    2.7928460
 AtZNuc=   1.0000000
 Leave Link  101 at Thu Mar  5 12:51:54 2020, MaxMem=  6710886400 cpu:               2.5 elap:               0.2
 (Enter /opt/ohpc/pub/libs/gaussian/g16-A.03/sandybridge/g16/l202.exe)
                          Input orientation:                          
 ---------------------------------------------------------------------
 Center     Atomic      Atomic             Coordinates (Angstroms)
 Number     Number       Type             X           Y           Z
 ---------------------------------------------------------------------
      1          6           0        0.000000    0.878804   -0.931542
      2          6           0        0.000000    1.128157    0.423457
      3          6           0        0.000000    0.000000    1.240879
      4          6           0        0.000000   -1.128157    0.423457
      5          6           0        0.000000   -0.878804   -0.931542
      6          1           0        0.000000    0.000000   -1.732269
      7          1           0        0.000000    1.608300   -1.734053
      8          1           0        0.000000    2.156626    0.765670
      9          1           0        0.000000    0.000000    2.320778
     10          1           0        0.000000   -2.156626    0.765670
     11          1           0        0.000000   -1.608300   -1.734053
 ---------------------------------------------------------------------
                    Distance matrix (angstroms):
                    1          2          3          4          5
     1  C    0.000000
     2  C    1.377752   0.000000
     3  C    2.343440   1.393168   0.000000
     4  C    2.421552   2.256314   1.393168   0.000000
     5  C    1.757608   2.421552   2.343440   1.377752   0.000000
     6  H    1.188890   2.433083   2.973148   2.433083   1.188890
     7  H    1.084522   2.210291   3.381841   3.484687   2.613371
     8  H    2.124466   1.083909   2.208361   3.302561   3.477695
     9  H    3.368959   2.207389   1.079899   2.207389   3.368959
    10  H    3.477695   3.302561   2.208361   1.083909   2.124466
    11  H    2.613371   3.484687   3.381841   2.210291   1.084522
                    6          7          8          9         10
     6  H    0.000000
     7  H    1.608301   0.000000
     8  H    3.300111   2.559155   0.000000
     9  H    4.053047   4.362142   2.658834   0.000000
    10  H    3.300111   4.519213   4.313252   2.658834   0.000000
    11  H    1.608301   3.216600   4.519213   4.362142   2.559155
                   11
    11  H    0.000000
 Stoichiometry    C5H6
 Framework group  C2V[C2(HCH),SGV(C4H4)]
 Deg. of freedom    10
 Full point group                 C2V     NOp   4
 Largest Abelian subgroup         C2V     NOp   4
 Largest concise Abelian subgroup C2      NOp   2
                         Standard orientation:                         
 ---------------------------------------------------------------------
 Center     Atomic      Atomic             Coordinates (Angstroms)
 Number     Number       Type             X           Y           Z
 ---------------------------------------------------------------------
      1          6           0        0.000000    0.878804   -0.931542
      2          6           0        0.000000    1.128157    0.423457
      3          6           0        0.000000   -0.000000    1.240879
      4          6           0       -0.000000   -1.128157    0.423457
      5          6           0       -0.000000   -0.878804   -0.931542
      6          1           0       -0.000000    0.000000   -1.732269
      7          1           0        0.000000    1.608300   -1.734053
      8          1           0        0.000000    2.156626    0.765670
      9          1           0        0.000000   -0.000000    2.320778
     10          1           0       -0.000000   -2.156626    0.765670
     11          1           0       -0.000000   -1.608300   -1.734053
 ---------------------------------------------------------------------
 Rotational constants (GHZ):           8.5259551           7.9375455           4.1106177
 Leave Link  202 at Thu Mar  5 12:51:54 2020, MaxMem=  6710886400 cpu:               0.2 elap:               0.0
 (Enter /opt/ohpc/pub/libs/gaussian/g16-A.03/sandybridge/g16/l301.exe)
 Standard basis: 6-31G (6D, 7F)
 Ernie: Thresh=  0.10000D-02 Tol=  0.10000D-05 Strict=F.
 There are    27 symmetry adapted cartesian basis functions of A1  symmetry.
 There are     4 symmetry adapted cartesian basis functions of A2  symmetry.
 There are     6 symmetry adapted cartesian basis functions of B1  symmetry.
 There are    20 symmetry adapted cartesian basis functions of B2  symmetry.
 There are    27 symmetry adapted basis functions of A1  symmetry.
 There are     4 symmetry adapted basis functions of A2  symmetry.
 There are     6 symmetry adapted basis functions of B1  symmetry.
 There are    20 symmetry adapted basis functions of B2  symmetry.
    57 basis functions,   134 primitive gaussians,    57 cartesian basis functions
    18 alpha electrons       18 beta electrons
       nuclear repulsion energy       156.0127424860 Hartrees.
 IExCor=33909 DFT=T Ex+Corr=LC-wHPBE ExCW=0 ScaHFX=  1.000000
 ScaDFX=  1.000000  1.000000  1.000000  1.000000 ScalE2=  1.000000  1.000000
 IRadAn=      5 IRanWt=     -1 IRanGd=            0 ICorTp=0 IEmpDi=  4
 HFx  wShort=  0.000000 wLong=  0.400000 cFull=  0.000000 cShort=  0.000000 cLong=  0.621000
 DFx  wShort=  0.000000 wLong=  0.400000 cFull=  0.000000 cShort=  1.000000 cLong=  0.621000
 NAtoms=   11 NActive=   11 NUniq=    7 SFac= 2.47D+00 NAtFMM=   60 NAOKFM=F Big=F
 Integral buffers will be    131072 words long.
 Raffenetti 2 integral format.
 Two-electron integral symmetry is turned on.
 Leave Link  301 at Thu Mar  5 12:51:54 2020, MaxMem=  6710886400 cpu:               0.8 elap:               0.1
 (Enter /opt/ohpc/pub/libs/gaussian/g16-A.03/sandybridge/g16/l302.exe)
 NPDir=0 NMtPBC=     1 NCelOv=     1 NCel=       1 NClECP=     1 NCelD=      1
         NCelK=      1 NCelE2=     1 NClLst=     1 CellRange=     0.0.
 One-electron integrals computed using PRISM.
 One-electron integral symmetry used in STVInt
 NBasis=    57 RedAO= T EigKep=  1.84D-03  NBF=    27     4     6    20
 NBsUse=    57 1.00D-06 EigRej= -1.00D+00 NBFU=    27     4     6    20
 Precomputing XC quadrature grid using
 IXCGrd= 4 IRadAn=           5 IRanWt=          -1 IRanGd=           0 AccXCQ= 0.00D+00.
 Generated NRdTot=       0 NPtTot=           0 NUsed=           0 NTot=          32
 NSgBfM=    57    57    57    57    57 MxSgAt=    11 MxSgA2=    11.
 Leave Link  302 at Thu Mar  5 12:51:54 2020, MaxMem=  6710886400 cpu:               2.0 elap:               0.1
 (Enter /opt/ohpc/pub/libs/gaussian/g16-A.03/sandybridge/g16/l303.exe)
 DipDrv:  MaxL=1.
 Leave Link  303 at Thu Mar  5 12:51:54 2020, MaxMem=  6710886400 cpu:               0.7 elap:               0.1
 (Enter /opt/ohpc/pub/libs/gaussian/g16-A.03/sandybridge/g16/l401.exe)
 ExpMin= 1.61D-01 ExpMax= 3.05D+03 ExpMxC= 4.57D+02 IAcc=3 IRadAn=         5 AccDes= 0.00D+00
 Harris functional with IExCor=33909 and IRadAn=       5 diagonalized for initial guess.
 HarFok:  IExCor=33909 AccDes= 0.00D+00 IRadAn=         5 IDoV= 1 UseB2=F ITyADJ=14
 ICtDFT=  3500011 ScaDFX=  1.000000  1.000000  1.000000  1.000000
 FoFCou: FMM=F IPFlag=           0 FMFlag=      100000 FMFlg1=           0
         NFxFlg=           0 DoJE=T BraDBF=F KetDBF=T FulRan=T
         wScrn=  0.000000 ICntrl=       500 IOpCl=  0 I1Cent=   200000004 NGrid=           0
         NMat0=    1 NMatS0=      1 NMatT0=    0 NMatD0=    1 NMtDS0=    0 NMtDT0=    0
 Petite list used in FoFCou.
 Harris En= -191.116607520032    
 JPrj=0 DoOrth=F DoCkMO=F.
 Initial guess orbital symmetries:
 Alpha Orbitals:
       Occupied  (A1) (B2) (A1) (B2) (A1) (A1) (A1) (B2) (A1) (B2)
                 (A1) (B2) (A1) (B2) (A1) (B1) (A2) (B1)
       Virtual   (A2) (B2) (B1) (A1) (A1) (B2) (A1) (B2) (A1) (B2)
                 (A1) (B2) (A1) (B2) (B1) (A1) (A2) (B1) (B2) (A1)
                 (A1) (A2) (B1) (B2) (B2) (A1) (B2) (A1) (A1) (B2)
                 (A1) (A1) (A1) (B2) (A1) (B2) (A1) (A1) (B2)
 Beta  Orbitals:
       Occupied  (A1) (B2) (A1) (B2) (A1) (A1) (A1) (B2) (A1) (B2)
                 (A1) (B2) (A1) (B2) (A1) (B1) (A2) (B1)
       Virtual   (A2) (B2) (B1) (A1) (A1) (B2) (A1) (B2) (A1) (B2)
                 (A1) (B2) (A1) (B2) (B1) (A1) (A2) (B1) (B2) (A1)
                 (A1) (A2) (B1) (B2) (B2) (A1) (B2) (A1) (A1) (B2)
                 (A1) (A1) (A1) (B2) (A1) (B2) (A1) (A1) (B2)
 The electronic state of the initial guess is 1-A1.
 Initial guess <Sx>= 0.0000 <Sy>= 0.0000 <Sz>= 0.0000 <S**2>=-0.0000 S=-0.0000
 Leave Link  401 at Thu Mar  5 12:51:54 2020, MaxMem=  6710886400 cpu:               3.0 elap:               0.2
 (Enter /opt/ohpc/pub/libs/gaussian/g16-A.03/sandybridge/g16/l502.exe)
 Keep R1 and R2 ints in memory in symmetry-blocked form, NReq=16815681.
 FoFCou: FMM=F IPFlag=           0 FMFlag=           0 FMFlg1=           0
         NFxFlg=           0 DoJE=F BraDBF=F KetDBF=F FulRan=T
         wScrn=  0.000000 ICntrl=       600 IOpCl=  0 I1Cent=           0 NGrid=           0
         NMat0=    1 NMatS0=   1653 NMatT0=    0 NMatD0=    1 NMtDS0=    0 NMtDT0=    0
 Petite list used in FoFCou.
 UHF open shell SCF:
 Using DIIS extrapolation, IDIIS=    10.
 NGot=  6710886400 LenX=  6710059561 LenY=  6710055871
 Requested convergence on RMS density matrix=1.00D-06 within  32 cycles.
 Requested convergence on MAX density matrix=1.00D-04.
 Requested convergence on             energy=1.00D-04.
 Virtual orbitals will be shifted by   0.500 hartree.
 No special actions if energy rises.
 Dynamic level shift is on during FON iterations.

 Cycle   1  Pass 1  IDiag  1:
 E= -195.317219590262    
 DIIS: error= 4.32D-02 at cycle   1 NSaved=   1.
 NSaved= 1 IEnMin= 1 EnMin= -195.317219590262     IErMin= 1 ErrMin= 4.32D-02
 ErrMax= 4.32D-02  0.00D+00 EMaxC= 1.00D+00 BMatC= 3.45D-01 BMatP= 3.45D-01
 IDIUse=1 WtCom= 1.00D+00 WtEn= 0.00D+00
 Coeff-Com:  0.100D+01
 Coeff:      0.100D+01
 Gap=     0.275 Goal=   None    Shift=    0.500
 T= 1715. Gap= 0.731 NK=0 IS=   19 IE=   57 IFin=   18
          NO(<0.9)=   0  NV(>0.1)=   0     18.00e < EF      0.00e >EF  Err=0.0D+00
 Gap=     0.275 Goal=   None    Shift=    0.500
 T= 1715. Gap= 0.731 NK=0 IS=   19 IE=   57 IFin=   18
          NO(<0.9)=   0  NV(>0.1)=   0     18.00e < EF      0.00e >EF  Err=0.0D+00
 GapD=    0.275 DampG=1.000 DampE=0.500 DampFc=0.5000 IDamp=-1.
 Damping current iteration by 5.00D-01
 RMSDP=7.40D-03 MaxDP=6.51D-02              OVMax= 8.49D-02

 Cycle   2  Pass 1  IDiag  1:
 E= -195.383095475764     Delta-E=       -0.065875885501 Rises=F Damp=T
 DIIS: error= 1.80D-02 at cycle   2 NSaved=   2.
 NSaved= 2 IEnMin= 2 EnMin= -195.383095475764     IErMin= 2 ErrMin= 1.80D-02
 ErrMax= 1.80D-02  0.00D+00 EMaxC= 1.00D+00 BMatC= 5.95D-02 BMatP= 3.45D-01
 IDIUse=1 WtCom= 1.00D+00 WtEn= 0.00D+00
 Coeff-Com: -0.631D+00 0.163D+01
 Coeff:     -0.631D+00 0.163D+01
 Gap=     0.337 Goal=   None    Shift=    0.500
 T= 1585. Gap= 0.824 NK=0 IS=   19 IE=   57 IFin=   18
          NO(<0.9)=   0  NV(>0.1)=   0     18.00e < EF      0.00e >EF  Err=0.0D+00
 Gap=     0.337 Goal=   None    Shift=    0.500
 T= 1585. Gap= 0.824 NK=0 IS=   19 IE=   57 IFin=   18
          NO(<0.9)=   0  NV(>0.1)=   0     18.00e < EF      0.00e >EF  Err=0.0D+00
 GapD=    0.337 DampG=1.000 DampE=0.500 DampFc=0.5000 IDamp=-1.
 Damping current iteration by 5.00D-01
 RMSDP=3.76D-03 MaxDP=2.55D-02 DE=-6.59D-02 OVMax= 9.45D-03

 Cycle   3  Pass 1  IDiag  1:
 E= -195.405139790560     Delta-E=       -0.022044314796 Rises=F Damp=T
 DIIS: error= 7.78D-03 at cycle   3 NSaved=   3.
 NSaved= 3 IEnMin= 3 EnMin= -195.405139790560     IErMin= 3 ErrMin= 7.78D-03
 ErrMax= 7.78D-03  0.00D+00 EMaxC= 1.00D+00 BMatC= 1.10D-02 BMatP= 5.95D-02
 IDIUse=1 WtCom= 1.00D+00 WtEn= 0.00D+00
 Coeff-Com:  0.144D+00-0.120D+01 0.205D+01
 Coeff:      0.144D+00-0.120D+01 0.205D+01
 Gap=     0.323 Goal=   None    Shift=    0.500
 T= 1336. Gap= 0.823 NK=0 IS=   19 IE=   57 IFin=   18
          NO(<0.9)=   0  NV(>0.1)=   0     18.00e < EF      0.00e >EF  Err=0.0D+00
 Gap=     0.323 Goal=   None    Shift=    0.500
 T= 1336. Gap= 0.823 NK=0 IS=   19 IE=   57 IFin=   18
          NO(<0.9)=   0  NV(>0.1)=   0     18.00e < EF      0.00e >EF  Err=0.0D+00
 GapD=    0.323 DampG=1.000 DampE=1.000 DampFc=1.0000 IDamp=-1.
 RMSDP=1.82D-03 MaxDP=1.23D-02 DE=-2.20D-02 OVMax= 5.97D-03

 Cycle   4  Pass 1  IDiag  1:
 E= -195.422656446412     Delta-E=       -0.017516655852 Rises=F Damp=F
 DIIS: error= 1.84D-03 at cycle   4 NSaved=   4.
 NSaved= 4 IEnMin= 4 EnMin= -195.422656446412     IErMin= 4 ErrMin= 1.84D-03
 ErrMax= 1.84D-03  0.00D+00 EMaxC= 1.00D+00 BMatC= 4.96D-04 BMatP= 1.10D-02
 IDIUse=1 WtCom= 1.00D+00 WtEn= 0.00D+00
 Coeff-Com:  0.112D+00-0.169D+00-0.778D-01 0.113D+01
 Coeff:      0.112D+00-0.169D+00-0.778D-01 0.113D+01
 Gap=     0.324 Goal=   None    Shift=    0.500
 T=  786. Gap= 0.824 NK=0 IS=   19 IE=   57 IFin=   18
          NO(<0.9)=   0  NV(>0.1)=   0     18.00e < EF      0.00e >EF  Err=0.0D+00
 Gap=     0.324 Goal=   None    Shift=    0.500
 T=  786. Gap= 0.824 NK=0 IS=   19 IE=   57 IFin=   18
          NO(<0.9)=   0  NV(>0.1)=   0     18.00e < EF      0.00e >EF  Err=0.0D+00
 GapD=    0.324 DampG=1.000 DampE=1.000 DampFc=1.0000 IDamp=-1.
 RMSDP=3.54D-04 MaxDP=2.89D-03 DE=-1.75D-02 OVMax= 2.64D-03

 Cycle   5  Pass 1  IDiag  1:
 E= -195.422821305858     Delta-E=       -0.000164859446 Rises=F Damp=F
 DIIS: error= 5.89D-04 at cycle   5 NSaved=   5.
 NSaved= 5 IEnMin= 5 EnMin= -195.422821305858     IErMin= 5 ErrMin= 5.89D-04
 ErrMax= 5.89D-04  0.00D+00 EMaxC= 1.00D+00 BMatC= 6.44D-05 BMatP= 4.96D-04
 IDIUse=1 WtCom= 1.00D+00 WtEn= 0.00D+00
 Coeff-Com: -0.355D-01 0.167D+00-0.217D+00-0.667D+00 0.175D+01
 Coeff:     -0.355D-01 0.167D+00-0.217D+00-0.667D+00 0.175D+01
 Gap=     0.324 Goal=   None    Shift=    0.500
 Gap=     0.324 Goal=   None    Shift=    0.500
 RMSDP=1.91D-04 MaxDP=1.62D-03 DE=-1.65D-04 OVMax= 1.86D-03

 Cycle   6  Pass 1  IDiag  1:
 E= -195.422856503786     Delta-E=       -0.000035197928 Rises=F Damp=F
 DIIS: error= 3.51D-04 at cycle   6 NSaved=   6.
 NSaved= 6 IEnMin= 6 EnMin= -195.422856503786     IErMin= 6 ErrMin= 3.51D-04
 ErrMax= 3.51D-04  0.00D+00 EMaxC= 1.00D+00 BMatC= 1.04D-05 BMatP= 6.44D-05
 IDIUse=1 WtCom= 1.00D+00 WtEn= 0.00D+00
 Coeff-Com: -0.501D-02-0.223D-01 0.593D-01 0.122D+00-0.139D+01 0.224D+01
 Coeff:     -0.501D-02-0.223D-01 0.593D-01 0.122D+00-0.139D+01 0.224D+01
 Gap=     0.324 Goal=   None    Shift=    0.500
 Gap=     0.324 Goal=   None    Shift=    0.500
 RMSDP=9.23D-05 MaxDP=7.58D-04 DE=-3.52D-05 OVMax= 1.16D-03

 Cycle   7  Pass 1  IDiag  1:
 E= -195.422865210985     Delta-E=       -0.000008707199 Rises=F Damp=F
 DIIS: error= 2.47D-04 at cycle   7 NSaved=   7.
 NSaved= 7 IEnMin= 7 EnMin= -195.422865210985     IErMin= 7 ErrMin= 2.47D-04
 ErrMax= 2.47D-04  0.00D+00 EMaxC= 1.00D+00 BMatC= 2.43D-06 BMatP= 1.04D-05
 IDIUse=1 WtCom= 1.00D+00 WtEn= 0.00D+00
 Coeff-Com:  0.187D-02 0.193D-01-0.471D-01 0.109D+00 0.213D+00-0.196D+01
 Coeff-Com:  0.266D+01
 Coeff:      0.187D-02 0.193D-01-0.471D-01 0.109D+00 0.213D+00-0.196D+01
 Coeff:      0.266D+01
 Gap=     0.324 Goal=   None    Shift=    0.500
 Gap=     0.324 Goal=   None    Shift=    0.500
 RMSDP=4.20D-05 MaxDP=3.56D-04 DE=-8.71D-06 OVMax= 6.95D-04

 Cycle   8  Pass 1  IDiag  1:
 E= -195.422867639361     Delta-E=       -0.000002428376 Rises=F Damp=F
 DIIS: error= 1.70D-04 at cycle   8 NSaved=   8.
 NSaved= 8 IEnMin= 8 EnMin= -195.422867639361     IErMin= 8 ErrMin= 1.70D-04
 ErrMax= 1.70D-04  0.00D+00 EMaxC= 1.00D+00 BMatC= 7.92D-07 BMatP= 2.43D-06
 IDIUse=1 WtCom= 1.00D+00 WtEn= 0.00D+00
 Coeff-Com:  0.326D-03 0.253D-01-0.529D-01 0.560D-01 0.347D+00-0.143D+01
 Coeff-Com:  0.826D+00 0.122D+01
 Coeff:      0.326D-03 0.253D-01-0.529D-01 0.560D-01 0.347D+00-0.143D+01
 Coeff:      0.826D+00 0.122D+01
 Gap=     0.324 Goal=   None    Shift=    0.500
 Gap=     0.324 Goal=   None    Shift=    0.500
 RMSDP=1.94D-05 MaxDP=1.61D-04 DE=-2.43D-06 OVMax= 4.20D-04

 Cycle   9  Pass 1  IDiag  1:
 E= -195.422868357001     Delta-E=       -0.000000717640 Rises=F Damp=F
 DIIS: error= 1.02D-04 at cycle   9 NSaved=   9.
 NSaved= 9 IEnMin= 9 EnMin= -195.422868357001     IErMin= 9 ErrMin= 1.02D-04
 ErrMax= 1.02D-04  0.00D+00 EMaxC= 1.00D+00 BMatC= 2.66D-07 BMatP= 7.92D-07
 IDIUse=1 WtCom= 1.00D+00 WtEn= 0.00D+00
 Coeff-Com: -0.126D-02 0.962D-02-0.148D-01-0.654D-02 0.668D-01 0.168D+00
 Coeff-Com: -0.755D+00-0.460D+00 0.199D+01
 Coeff:     -0.126D-02 0.962D-02-0.148D-01-0.654D-02 0.668D-01 0.168D+00
 Coeff:     -0.755D+00-0.460D+00 0.199D+01
 Gap=     0.324 Goal=   None    Shift=    0.500
 Gap=     0.324 Goal=   None    Shift=    0.500
 RMSDP=9.79D-06 MaxDP=7.53D-05 DE=-7.18D-07 OVMax= 2.39D-04

 Cycle  10  Pass 1  IDiag  1:
 E= -195.422868573664     Delta-E=       -0.000000216663 Rises=F Damp=F
 DIIS: error= 6.40D-05 at cycle  10 NSaved=  10.
 NSaved=10 IEnMin=10 EnMin= -195.422868573664     IErMin=10 ErrMin= 6.40D-05
 ErrMax= 6.40D-05  0.00D+00 EMaxC= 1.00D+00 BMatC= 1.01D-07 BMatP= 2.66D-07
 IDIUse=1 WtCom= 1.00D+00 WtEn= 0.00D+00
 Coeff-Com:  0.328D-03-0.310D-02 0.472D-02 0.142D-01-0.928D-01 0.116D+00
 Coeff-Com:  0.311D+00-0.483D+00-0.172D+01 0.286D+01
 Coeff:      0.328D-03-0.310D-02 0.472D-02 0.142D-01-0.928D-01 0.116D+00
 Coeff:      0.311D+00-0.483D+00-0.172D+01 0.286D+01
 Gap=     0.324 Goal=   None    Shift=    0.500
 Gap=     0.324 Goal=   None    Shift=    0.500
 RMSDP=5.01D-06 MaxDP=4.08D-05 DE=-2.17D-07 OVMax= 1.41D-04

 Cycle  11  Pass 1  IDiag  1:
 E= -195.422868642321     Delta-E=       -0.000000068657 Rises=F Damp=F
 DIIS: error= 3.93D-05 at cycle  11 NSaved=  11.
 NSaved=11 IEnMin=11 EnMin= -195.422868642321     IErMin=11 ErrMin= 3.93D-05
 ErrMax= 3.93D-05  0.00D+00 EMaxC= 1.00D+00 BMatC= 3.97D-08 BMatP= 1.01D-07
 IDIUse=1 WtCom= 1.00D+00 WtEn= 0.00D+00
 Coeff-Com: -0.747D-04 0.895D-03-0.159D-02 0.223D-02 0.698D-03-0.646D-02
 Coeff-Com:  0.398D-01-0.572D-01 0.406D+00-0.245D+01 0.306D+01
 Coeff:     -0.747D-04 0.895D-03-0.159D-02 0.223D-02 0.698D-03-0.646D-02
 Coeff:      0.398D-01-0.572D-01 0.406D+00-0.245D+01 0.306D+01
 Gap=     0.324 Goal=   None    Shift=    0.500
 Gap=     0.324 Goal=   None    Shift=    0.500
 RMSDP=2.55D-06 MaxDP=2.27D-05 DE=-6.87D-08 OVMax= 8.29D-05

 Cycle  12  Pass 1  IDiag  1:
 E= -195.422868665019     Delta-E=       -0.000000022698 Rises=F Damp=F
 DIIS: error= 2.37D-05 at cycle  12 NSaved=  12.
 NSaved=12 IEnMin=12 EnMin= -195.422868665019     IErMin=12 ErrMin= 2.37D-05
 ErrMax= 2.37D-05  0.00D+00 EMaxC= 1.00D+00 BMatC= 1.50D-08 BMatP= 3.97D-08
 IDIUse=1 WtCom= 1.00D+00 WtEn= 0.00D+00
 Coeff-Com: -0.883D-04 0.706D-03-0.109D-02 0.280D-04 0.240D-02 0.283D-02
 Coeff-Com: -0.239D-01-0.231D-02 0.175D+00 0.427D+00-0.314D+01 0.356D+01
 Coeff:     -0.883D-04 0.706D-03-0.109D-02 0.280D-04 0.240D-02 0.283D-02
 Coeff:     -0.239D-01-0.231D-02 0.175D+00 0.427D+00-0.314D+01 0.356D+01
 Gap=     0.324 Goal=   None    Shift=    0.500
 Gap=     0.324 Goal=   None    Shift=    0.500
 RMSDP=1.35D-06 MaxDP=1.24D-05 DE=-2.27D-08 OVMax= 4.79D-05

 Cycle  13  Pass 1  IDiag  1:
 E= -195.422868672516     Delta-E=       -0.000000007497 Rises=F Damp=F
 DIIS: error= 1.41D-05 at cycle  13 NSaved=  13.
 NSaved=13 IEnMin=13 EnMin= -195.422868672516     IErMin=13 ErrMin= 1.41D-05
 ErrMax= 1.41D-05  0.00D+00 EMaxC= 1.00D+00 BMatC= 5.59D-09 BMatP= 1.50D-08
 IDIUse=1 WtCom= 1.00D+00 WtEn= 0.00D+00
 Coeff-Com:  0.785D-04-0.596D-03 0.885D-03 0.172D-02-0.130D-01 0.180D-01
 Coeff-Com:  0.308D-01-0.337D-01-0.201D+00 0.436D+00 0.333D+00-0.313D+01
 Coeff-Com:  0.356D+01
 Coeff:      0.785D-04-0.596D-03 0.885D-03 0.172D-02-0.130D-01 0.180D-01
 Coeff:      0.308D-01-0.337D-01-0.201D+00 0.436D+00 0.333D+00-0.313D+01
 Coeff:      0.356D+01
 Gap=     0.324 Goal=   None    Shift=    0.500
 Gap=     0.324 Goal=   None    Shift=    0.500
 RMSDP=7.31D-07 MaxDP=7.06D-06 DE=-7.50D-09 OVMax= 2.78D-05

 SCF Done:  E(ULC-wHPBE) =  -195.422868673     A.U. after   13 cycles
            NFock= 13  Conv=0.73D-06     -V/T= 2.0132
 <Sx>= 0.0000 <Sy>= 0.0000 <Sz>= 0.0000 <S**2>=-0.0000 S=-0.0000
 <L.S>= 0.000000000000E+00
 KE= 1.928829248150D+02 PE=-7.613433929682D+02 EE= 2.170248569947D+02
 Annihilation of the first spin contaminant:
 S**2 before annihilation    -0.0000,   after     0.0000
 Leave Link  502 at Thu Mar  5 12:51:56 2020, MaxMem=  6710886400 cpu:              20.9 elap:               1.3
 (Enter /opt/ohpc/pub/libs/gaussian/g16-A.03/sandybridge/g16/l508.exe)
 QCSCF skips out because SCF is already converged.
 Leave Link  508 at Thu Mar  5 12:51:56 2020, MaxMem=  6710886400 cpu:               0.2 elap:               0.0
 (Enter /opt/ohpc/pub/libs/gaussian/g16-A.03/sandybridge/g16/l601.exe)
 Copying SCF densities to generalized density rwf, IOpCl= 1 IROHF=0.

 **********************************************************************

            Population analysis using the SCF density.

 **********************************************************************

 Orbital symmetries:
 Alpha Orbitals:
       Occupied  (B2) (A1) (B2) (A1) (A1) (A1) (A1) (B2) (A1) (B2)
                 (A1) (B2) (A1) (A1) (B2) (B1) (A2) (B1)
       Virtual   (A2) (B2) (A1) (B1) (A1) (B2) (A1) (B2) (A1) (A1)
                 (B2) (A1) (B2) (B2) (B1) (A2) (B1) (A1) (A1) (B2)
                 (A1) (A2) (B1) (B2) (B2) (A1) (B2) (A1) (A1) (B2)
                 (A1) (A1) (A1) (B2) (A1) (B2) (A1) (A1) (B2)
 Beta  Orbitals:
       Occupied  (B2) (A1) (B2) (A1) (A1) (A1) (A1) (B2) (A1) (B2)
                 (A1) (B2) (A1) (A1) (B2) (B1) (A2) (B1)
       Virtual   (A2) (B2) (A1) (B1) (A1) (B2) (A1) (B2) (A1) (A1)
                 (B2) (A1) (B2) (B2) (B1) (A2) (B1) (A1) (A1) (B2)
                 (A1) (A2) (B1) (B2) (B2) (A1) (B2) (A1) (A1) (B2)
                 (A1) (A1) (A1) (B2) (A1) (B2) (A1) (A1) (B2)
 The electronic state is 1-A1.
 Alpha  occ. eigenvalues --  -10.11035 -10.11032 -10.07226 -10.07226 -10.03887
 Alpha  occ. eigenvalues --   -0.97744  -0.85029  -0.81999  -0.67815  -0.66469
 Alpha  occ. eigenvalues --   -0.62425  -0.51880  -0.51167  -0.48050  -0.46709
 Alpha  occ. eigenvalues --   -0.45790  -0.32323  -0.28286
 Alpha virt. eigenvalues --    0.04078   0.04486   0.08834   0.11266   0.12565
 Alpha virt. eigenvalues --    0.17385   0.19076   0.20875   0.21707   0.34145
 Alpha virt. eigenvalues --    0.35489   0.45473   0.46116   0.54915   0.56435
 Alpha virt. eigenvalues --    0.62978   0.63867   0.63948   0.65893   0.67304
 Alpha virt. eigenvalues --    0.68525   0.69454   0.71989   0.79365   0.85063
 Alpha virt. eigenvalues --    0.87863   0.89529   0.89727   0.91511   0.98488
 Alpha virt. eigenvalues --    0.98723   1.01919   1.06364   1.12833   1.20887
 Alpha virt. eigenvalues --    1.22560   1.29416   1.50465   1.51549
  Beta  occ. eigenvalues --  -10.11035 -10.11032 -10.07226 -10.07226 -10.03887
  Beta  occ. eigenvalues --   -0.97744  -0.85029  -0.81999  -0.67815  -0.66469
  Beta  occ. eigenvalues --   -0.62425  -0.51880  -0.51167  -0.48050  -0.46709
  Beta  occ. eigenvalues --   -0.45790  -0.32323  -0.28286
  Beta virt. eigenvalues --    0.04078   0.04486   0.08834   0.11266   0.12565
  Beta virt. eigenvalues --    0.17385   0.19076   0.20875   0.21707   0.34145
  Beta virt. eigenvalues --    0.35489   0.45473   0.46116   0.54915   0.56435
  Beta virt. eigenvalues --    0.62978   0.63867   0.63948   0.65893   0.67304
  Beta virt. eigenvalues --    0.68525   0.69454   0.71989   0.79365   0.85063
  Beta virt. eigenvalues --    0.87863   0.89529   0.89727   0.91511   0.98488
  Beta virt. eigenvalues --    0.98723   1.01919   1.06364   1.12833   1.20887
  Beta virt. eigenvalues --    1.22560   1.29416   1.50465   1.51549
          Condensed to atoms (all electrons):
               1          2          3          4          5          6
     1  C    5.439494   0.474108  -0.055349  -0.129764   0.256367   0.166039
     2  C    0.474108   4.902837   0.561002  -0.015419  -0.129764  -0.018178
     3  C   -0.055349   0.561002   4.818426   0.561002  -0.055349   0.004149
     4  C   -0.129764  -0.015419   0.561002   4.902837   0.474108  -0.018178
     5  C    0.256367  -0.129764  -0.055349   0.474108   5.439494   0.166039
     6  H    0.166039  -0.018178   0.004149  -0.018178   0.166039   0.392756
     7  H    0.343398  -0.001201   0.000208   0.004171  -0.025651  -0.011303
     8  H   -0.038744   0.362650  -0.017450   0.004721   0.002023   0.000965
     9  H    0.006922  -0.040824   0.373023  -0.040824   0.006922  -0.000123
    10  H    0.002023   0.004721  -0.017450   0.362650  -0.038744   0.000965
    11  H   -0.025651   0.004171   0.000208  -0.001201   0.343398  -0.011303
               7          8          9         10         11
     1  C    0.343398  -0.038744   0.006922   0.002023  -0.025651
     2  C   -0.001201   0.362650  -0.040824   0.004721   0.004171
     3  C    0.000208  -0.017450   0.373023  -0.017450   0.000208
     4  C    0.004171   0.004721  -0.040824   0.362650  -0.001201
     5  C   -0.025651   0.002023   0.006922  -0.038744   0.343398
     6  H   -0.011303   0.000965  -0.000123   0.000965  -0.011303
     7  H    0.468492  -0.000463  -0.000110  -0.000042   0.000846
     8  H   -0.000463   0.517152  -0.002332  -0.000179  -0.000042
     9  H   -0.000110  -0.002332   0.556352  -0.002332  -0.000110
    10  H   -0.000042  -0.000179  -0.002332   0.517152  -0.000463
    11  H    0.000846  -0.000042  -0.000110  -0.000463   0.468492
          Atomic-Atomic Spin Densities.
               1          2          3          4          5          6
     1  C    0.000000   0.000000  -0.000000   0.000000  -0.000000  -0.000000
     2  C    0.000000  -0.000000   0.000000  -0.000000   0.000000   0.000000
     3  C   -0.000000   0.000000   0.000000   0.000000  -0.000000  -0.000000
     4  C    0.000000  -0.000000   0.000000  -0.000000   0.000000   0.000000
     5  C   -0.000000   0.000000  -0.000000   0.000000   0.000000  -0.000000
     6  H   -0.000000   0.000000  -0.000000   0.000000  -0.000000  -0.000000
     7  H    0.000000  -0.000000   0.000000  -0.000000   0.000000   0.000000
     8  H   -0.000000   0.000000  -0.000000  -0.000000   0.000000   0.000000
     9  H   -0.000000   0.000000   0.000000   0.000000  -0.000000  -0.000000
    10  H    0.000000  -0.000000  -0.000000   0.000000  -0.000000   0.000000
    11  H    0.000000  -0.000000   0.000000  -0.000000   0.000000   0.000000
               7          8          9         10         11
     1  C    0.000000  -0.000000  -0.000000   0.000000   0.000000
     2  C   -0.000000   0.000000   0.000000  -0.000000  -0.000000
     3  C    0.000000  -0.000000   0.000000  -0.000000   0.000000
     4  C   -0.000000  -0.000000   0.000000   0.000000  -0.000000
     5  C    0.000000   0.000000  -0.000000  -0.000000   0.000000
     6  H    0.000000   0.000000  -0.000000   0.000000   0.000000
     7  H    0.000000  -0.000000   0.000000  -0.000000   0.000000
     8  H   -0.000000   0.000000  -0.000000   0.000000  -0.000000
     9  H    0.000000  -0.000000  -0.000000  -0.000000   0.000000
    10  H   -0.000000   0.000000  -0.000000   0.000000  -0.000000
    11  H    0.000000  -0.000000   0.000000  -0.000000   0.000000
 Mulliken charges and spin densities:
               1          2
     1  C   -0.438843   0.000000
     2  C   -0.104104  -0.000000
     3  C   -0.172421   0.000000
     4  C   -0.104104  -0.000000
     5  C   -0.438843   0.000000
     6  H    0.328171  -0.000000
     7  H    0.221655   0.000000
     8  H    0.171698  -0.000000
     9  H    0.143437   0.000000
    10  H    0.171698  -0.000000
    11  H    0.221655   0.000000
 Sum of Mulliken charges =  -0.00000  -0.00000
 Mulliken charges and spin densities with hydrogens summed into heavy atoms:
               1          2
     1  C    0.110983   0.000000
     2  C    0.067595  -0.000000
     3  C   -0.028984   0.000000
     4  C    0.067595  -0.000000
     5  C   -0.217188   0.000000
 Electronic spatial extent (au):  <R**2>=            335.8709
 Charge=             -0.0000 electrons
 Dipole moment (field-independent basis, Debye):
    X=             -0.0000    Y=             -0.0000    Z=             -1.9885  Tot=              1.9885
 Quadrupole moment (field-independent basis, Debye-Ang):
   XX=            -35.2501   YY=            -25.8412   ZZ=            -23.7373
   XY=              0.0000   XZ=              0.0000   YZ=              0.0000
 Traceless Quadrupole moment (field-independent basis, Debye-Ang):
   XX=             -6.9739   YY=              2.4350   ZZ=              4.5389
   XY=              0.0000   XZ=              0.0000   YZ=              0.0000
 Octapole moment (field-independent basis, Debye-Ang**2):
  XXX=              0.0000  YYY=              0.0000  ZZZ=             -8.8412  XYY=              0.0000
  XXY=              0.0000  XXZ=              0.8303  XZZ=              0.0000  YZZ=              0.0000
  YYZ=             -1.0872  XYZ=             -0.0000
 Hexadecapole moment (field-independent basis, Debye-Ang**3):
 XXXX=            -37.6619 YYYY=           -185.1662 ZZZZ=           -171.9148 XXXY=             -0.0000
 XXXZ=             -0.0000 YYYX=             -0.0000 YYYZ=             -0.0000 ZZZX=             -0.0000
 ZZZY=             -0.0000 XXYY=            -47.0397 XXZZ=            -45.9355 YYZZ=            -58.6915
 XXYZ=              0.0000 YYXZ=             -0.0000 ZZXY=             -0.0000
 N-N= 1.560127424860D+02 E-N=-7.613433754249D+02  KE= 1.928829248150D+02
 Symmetry A1   KE= 1.109638097851D+02
 Symmetry A2   KE= 2.423534407729D+00
 Symmetry B1   KE= 4.249345106803D+00
 Symmetry B2   KE= 7.524623551528D+01
 Symmetry A1   SP= 1.808819489317D-14
 Symmetry A2   SP= 1.945120810751D-16
 Symmetry B1   SP=-2.118568010607D-15
 Symmetry B2   SP=-1.878471327456D-14
                          Isotropic Fermi Contact Couplings
        Atom                 a.u.       MegaHertz       Gauss      10(-4) cm-1
     1  C(13)              0.00000       0.00000       0.00000       0.00000
     2  C(13)              0.00000       0.00000       0.00000       0.00000
     3  C(13)              0.00000       0.00000       0.00000       0.00000
     4  C(13)              0.00000       0.00000       0.00000       0.00000
     5  C(13)              0.00000       0.00000       0.00000       0.00000
     6  H(1)               0.00000       0.00000       0.00000       0.00000
     7  H(1)               0.00000       0.00000       0.00000       0.00000
     8  H(1)               0.00000       0.00000       0.00000       0.00000
     9  H(1)               0.00000       0.00000       0.00000       0.00000
    10  H(1)               0.00000       0.00000       0.00000       0.00000
    11  H(1)               0.00000       0.00000       0.00000       0.00000
 --------------------------------------------------------
       Center         ----  Spin Dipole Couplings  ----
                      3XX-RR        3YY-RR        3ZZ-RR
 --------------------------------------------------------
     1   Atom        0.000000      0.000000      0.000000
     2   Atom        0.000000      0.000000      0.000000
     3   Atom        0.000000      0.000000      0.000000
     4   Atom        0.000000      0.000000      0.000000
     5   Atom        0.000000      0.000000      0.000000
     6   Atom        0.000000      0.000000      0.000000
     7   Atom        0.000000      0.000000      0.000000
     8   Atom        0.000000      0.000000      0.000000
     9   Atom        0.000000      0.000000      0.000000
    10   Atom        0.000000      0.000000      0.000000
    11   Atom        0.000000      0.000000      0.000000
 --------------------------------------------------------
                        XY            XZ            YZ
 --------------------------------------------------------
     1   Atom        0.000000      0.000000      0.000000
     2   Atom        0.000000      0.000000      0.000000
     3   Atom        0.000000      0.000000      0.000000
     4   Atom        0.000000      0.000000      0.000000
     5   Atom        0.000000      0.000000      0.000000
     6   Atom        0.000000      0.000000      0.000000
     7   Atom        0.000000      0.000000      0.000000
     8   Atom        0.000000      0.000000      0.000000
     9   Atom        0.000000      0.000000      0.000000
    10   Atom        0.000000      0.000000      0.000000
    11   Atom        0.000000      0.000000      0.000000
 --------------------------------------------------------


 ---------------------------------------------------------------------------------
              Anisotropic Spin Dipole Couplings in Principal Axis System
 ---------------------------------------------------------------------------------

       Atom             a.u.   MegaHertz   Gauss  10(-4) cm-1        Axes

              Baa     0.0000     0.000     0.000     0.000  1.0000  0.0000  0.0000
     1 C(13)  Bbb     0.0000     0.000     0.000     0.000 -0.0000  1.0000  0.0000
              Bcc     0.0000     0.000     0.000     0.000  0.0000  0.0000  1.0000
 
              Baa     0.0000     0.000     0.000     0.000  1.0000  0.0000  0.0000
     2 C(13)  Bbb     0.0000     0.000     0.000     0.000 -0.0000  1.0000  0.0000
              Bcc     0.0000     0.000     0.000     0.000  0.0000  0.0000  1.0000
 
              Baa     0.0000     0.000     0.000     0.000  1.0000  0.0000  0.0000
     3 C(13)  Bbb     0.0000     0.000     0.000     0.000 -0.0000  1.0000  0.0000
              Bcc     0.0000     0.000     0.000     0.000  0.0000  0.0000  1.0000
 
              Baa     0.0000     0.000     0.000     0.000  1.0000  0.0000  0.0000
     4 C(13)  Bbb     0.0000     0.000     0.000     0.000 -0.0000  1.0000  0.0000
              Bcc     0.0000     0.000     0.000     0.000  0.0000  0.0000  1.0000
 
              Baa     0.0000     0.000     0.000     0.000  1.0000  0.0000  0.0000
     5 C(13)  Bbb     0.0000     0.000     0.000     0.000 -0.0000  1.0000  0.0000
              Bcc     0.0000     0.000     0.000     0.000  0.0000  0.0000  1.0000
 
              Baa     0.0000     0.000     0.000     0.000  1.0000  0.0000  0.0000
     6 H(1)   Bbb     0.0000     0.000     0.000     0.000 -0.0000  1.0000  0.0000
              Bcc     0.0000     0.000     0.000     0.000  0.0000  0.0000  1.0000
 
              Baa     0.0000     0.000     0.000     0.000  1.0000  0.0000  0.0000
     7 H(1)   Bbb     0.0000     0.000     0.000     0.000 -0.0000  1.0000  0.0000
              Bcc     0.0000     0.000     0.000     0.000  0.0000  0.0000  1.0000
 
              Baa     0.0000     0.000     0.000     0.000  1.0000  0.0000  0.0000
     8 H(1)   Bbb     0.0000     0.000     0.000     0.000 -0.0000  1.0000  0.0000
              Bcc     0.0000     0.000     0.000     0.000  0.0000  0.0000  1.0000
 
              Baa     0.0000     0.000     0.000     0.000  1.0000  0.0000  0.0000
     9 H(1)   Bbb     0.0000     0.000     0.000     0.000 -0.0000  1.0000  0.0000
              Bcc     0.0000     0.000     0.000     0.000  0.0000  0.0000  1.0000
 
              Baa     0.0000     0.000     0.000     0.000  1.0000  0.0000  0.0000
    10 H(1)   Bbb     0.0000     0.000     0.000     0.000 -0.0000  1.0000  0.0000
              Bcc     0.0000     0.000     0.000     0.000  0.0000  0.0000  1.0000
 
              Baa     0.0000     0.000     0.000     0.000  1.0000  0.0000  0.0000
    11 H(1)   Bbb     0.0000     0.000     0.000     0.000 -0.0000  1.0000  0.0000
              Bcc     0.0000     0.000     0.000     0.000  0.0000  0.0000  1.0000
 

 ---------------------------------------------------------------------------------

 No NMR shielding tensors so no spin-rotation constants.
 Leave Link  601 at Thu Mar  5 12:51:56 2020, MaxMem=  6710886400 cpu:               2.0 elap:               0.1
 (Enter /opt/ohpc/pub/libs/gaussian/g16-A.03/sandybridge/g16/l9999.exe)

 Test job not archived.
 1\1\GINC-CNODE212\SP\ULC-wHPBE\6-31G\C5H6\SMGO234\05-Mar-2020\0\\#P uL
 C-wHPBE/6-31G iop(3/130=0379000000, 3/131=0379000000, 3/119=0621000000
 , 3/120=0621000000) scf=(conver=6,fermi,ndamp=35,noincfock,novaracc,vs
 hift=500,xqc)\\H6 C5\\0,1\C,0,0.,0.878804,-0.931542\C,0,0.,1.128157,0.
 423457\C,0,0.,0.,1.240879\C,0,0.,-1.128157,0.423457\C,0,0.,-0.878804,-
 0.931542\H,0,0.,0.,-1.732269\H,0,0.,1.6083,-1.734053\H,0,0.,2.156626,0
 .76567\H,0,0.,0.,2.320778\H,0,0.,-2.156626,0.76567\H,0,0.,-1.6083,-1.7
 34053\\Version=EM64L-G16RevA.03\State=1-A1\HF=-195.4228687\S2=0.\S2-1=
 0.\S2A=0.\RMSD=7.310e-07\Dipole=0.,0.,-0.7823373\Quadrupole=-5.184917,
 1.8103832,3.3745339,0.,0.,0.\PG=C02V [C2(H1C1H1),SGV(C4H4)]\\@


 THERE IS MUCH PLEASURE TO BE GAINED FROM USELESS KNOWLEDGE

                                       -- BERTRAND RUSSELL
 Job cpu time:       0 days  0 hours  0 minutes 48.4 seconds.
 Elapsed time:       0 days  0 hours  0 minutes  3.3 seconds.
 File lengths (MBytes):  RWF=    272 Int=      0 D2E=      0 Chk=     32 Scr=     32
 Normal termination of Gaussian 16 at Thu Mar  5 12:51:56 2020.
