 Entering Gaussian System, Link 0=g16
 Input=a1b_tune_c5.gjf
 Output=a1b_tune_c5.log
 Initial command:
 /opt/ohpc/pub/libs/gaussian/g16-A.03/sandybridge/g16/l1.exe "/scratch/smgo234/Ocelot/test/a1b/tuning_a1b_acycle1/Gau-80181.inp" -scrdir="/scratch/smgo234/Ocelot/test/a1b/tuning_a1b_acycle1/"
 Entering Link 1 = /opt/ohpc/pub/libs/gaussian/g16-A.03/sandybridge/g16/l1.exe PID=     80182.
  
 Copyright (c) 1988,1990,1992,1993,1995,1998,2003,2009,2016,
            Gaussian, Inc.  All Rights Reserved.
  
 This is part of the Gaussian(R) 16 program.  It is based on
 the Gaussian(R) 09 system (copyright 2009, Gaussian, Inc.),
 the Gaussian(R) 03 system (copyright 2003, Gaussian, Inc.),
 the Gaussian(R) 98 system (copyright 1998, Gaussian, Inc.),
 the Gaussian(R) 94 system (copyright 1995, Gaussian, Inc.),
 the Gaussian 92(TM) system (copyright 1992, Gaussian, Inc.),
 the Gaussian 90(TM) system (copyright 1990, Gaussian, Inc.),
 the Gaussian 88(TM) system (copyright 1988, Gaussian, Inc.),
 the Gaussian 86(TM) system (copyright 1986, Carnegie Mellon
 University), and the Gaussian 82(TM) system (copyright 1983,
 Carnegie Mellon University). Gaussian is a federally registered
 trademark of Gaussian, Inc.
  
 This software contains proprietary and confidential information,
 including trade secrets, belonging to Gaussian, Inc.
  
 This software is provided under written license and may be
 used, copied, transmitted, or stored only in accord with that
 written license.
  
 The following legend is applicable only to US Government
 contracts under FAR:
  
                    RESTRICTED RIGHTS LEGEND
  
 Use, reproduction and disclosure by the US Government is
 subject to restrictions as set forth in subparagraphs (a)
 and (c) of the Commercial Computer Software - Restricted
 Rights clause in FAR 52.227-19.
  
 Gaussian, Inc.
 340 Quinnipiac St., Bldg. 40, Wallingford CT 06492
  
  
 ---------------------------------------------------------------
 Warning -- This program may not be used in any manner that
 competes with the business of Gaussian, Inc. or will provide
 assistance to any competitor of Gaussian, Inc.  The licensee
 of this program is prohibited from giving any competitor of
 Gaussian, Inc. access to this program.  By using this program,
 the user acknowledges that Gaussian, Inc. is engaged in the
 business of creating and licensing software in the field of
 computational chemistry and represents and warrants to the
 licensee that it is not a competitor of Gaussian, Inc. and that
 it will not use this program in any manner prohibited above.
 ---------------------------------------------------------------
  

 Cite this work as:
 Gaussian 16, Revision A.03,
 M. J. Frisch, G. W. Trucks, H. B. Schlegel, G. E. Scuseria, 
 M. A. Robb, J. R. Cheeseman, G. Scalmani, V. Barone, 
 G. A. Petersson, H. Nakatsuji, X. Li, M. Caricato, A. V. Marenich, 
 J. Bloino, B. G. Janesko, R. Gomperts, B. Mennucci, H. P. Hratchian, 
 J. V. Ortiz, A. F. Izmaylov, J. L. Sonnenberg, D. Williams-Young, 
 F. Ding, F. Lipparini, F. Egidi, J. Goings, B. Peng, A. Petrone, 
 T. Henderson, D. Ranasinghe, V. G. Zakrzewski, J. Gao, N. Rega, 
 G. Zheng, W. Liang, M. Hada, M. Ehara, K. Toyota, R. Fukuda, 
 J. Hasegawa, M. Ishida, T. Nakajima, Y. Honda, O. Kitao, H. Nakai, 
 T. Vreven, K. Throssell, J. A. Montgomery, Jr., J. E. Peralta, 
 F. Ogliaro, M. J. Bearpark, J. J. Heyd, E. N. Brothers, K. N. Kudin, 
 V. N. Staroverov, T. A. Keith, R. Kobayashi, J. Normand, 
 K. Raghavachari, A. P. Rendell, J. C. Burant, S. S. Iyengar, 
 J. Tomasi, M. Cossi, J. M. Millam, M. Klene, C. Adamo, R. Cammi, 
 J. W. Ochterski, R. L. Martin, K. Morokuma, O. Farkas, 
 J. B. Foresman, and D. J. Fox, Gaussian, Inc., Wallingford CT, 2016.
 
 ******************************************
 Gaussian 16:  EM64L-G16RevA.03 25-Dec-2016
                 5-Mar-2020 
 ******************************************
 %mem=50GB
 %nproc=16
 Will use up to   16 processors via shared memory.
 ----------------------------------------------------------------------
 #P uLC-wHPBE/6-31G iop(3/130=0257600000, 3/131=0257600000, 3/119=07424
 00000, 3/120=0742400000) scf=(conver=6,fermi,ndamp=35,noincfock,novara
 cc,vshift=500,xqc)
 ----------------------------------------------------------------------
 1/38=1,172=1/1;
 2/12=2,17=6,18=5,40=1/2;
 3/5=1,6=6,11=2,25=1,30=1,74=-71,116=2,119=742400000,120=742400000,130=257600000,131=257600000/1,2,3;
 4//1;
 5/5=100002,6=6,8=3,10=500,13=1,18=-1,22=13,38=1,93=35/2,8;
 6/7=2,8=2,9=2,10=2,28=1/1;
 99/5=1,9=1/99;
 Leave Link    1 at Thu Mar  5 12:52:21 2020, MaxMem=  6710886400 cpu:              15.0 elap:               1.0
 (Enter /opt/ohpc/pub/libs/gaussian/g16-A.03/sandybridge/g16/l101.exe)
 -----
 H6 C5
 -----
 Symbolic Z-matrix:
 Charge =  1 Multiplicity = 2
 C                     0.        0.8788   -0.93154 
 C                     0.        1.12816   0.42346 
 C                     0.        0.        1.24088 
 C                     0.       -1.12816   0.42346 
 C                     0.       -0.8788   -0.93154 
 H                     0.        0.       -1.73227 
 H                     0.        1.6083   -1.73405 
 H                     0.        2.15663   0.76567 
 H                     0.        0.        2.32078 
 H                     0.       -2.15663   0.76567 
 H                     0.       -1.6083   -1.73405 
 
 ITRead=  0  0  0  0  0  0  0  0  0  0  0
 MicOpt= -1 -1 -1 -1 -1 -1 -1 -1 -1 -1 -1
 NAtoms=     11 NQM=       11 NQMF=       0 NMMI=      0 NMMIF=      0
                NMic=       0 NMicF=      0.
                    Isotopes and Nuclear Properties:
 (Nuclear quadrupole moments (NQMom) in fm**2, nuclear magnetic moments (NMagM)
  in nuclear magnetons)

  Atom         1           2           3           4           5           6           7           8           9          10
 IAtWgt=          12          12          12          12          12           1           1           1           1           1
 AtmWgt=  12.0000000  12.0000000  12.0000000  12.0000000  12.0000000   1.0078250   1.0078250   1.0078250   1.0078250   1.0078250
 NucSpn=           0           0           0           0           0           1           1           1           1           1
 AtZEff=  -0.0000000  -0.0000000  -0.0000000  -0.0000000  -0.0000000  -0.0000000  -0.0000000  -0.0000000  -0.0000000  -0.0000000
 NQMom=    0.0000000   0.0000000   0.0000000   0.0000000   0.0000000   0.0000000   0.0000000   0.0000000   0.0000000   0.0000000
 NMagM=    0.0000000   0.0000000   0.0000000   0.0000000   0.0000000   2.7928460   2.7928460   2.7928460   2.7928460   2.7928460
 AtZNuc=   6.0000000   6.0000000   6.0000000   6.0000000   6.0000000   1.0000000   1.0000000   1.0000000   1.0000000   1.0000000

  Atom        11
 IAtWgt=           1
 AtmWgt=   1.0078250
 NucSpn=           1
 AtZEff=  -0.0000000
 NQMom=    0.0000000
 NMagM=    2.7928460
 AtZNuc=   1.0000000
 Leave Link  101 at Thu Mar  5 12:52:22 2020, MaxMem=  6710886400 cpu:               3.2 elap:               0.2
 (Enter /opt/ohpc/pub/libs/gaussian/g16-A.03/sandybridge/g16/l202.exe)
                          Input orientation:                          
 ---------------------------------------------------------------------
 Center     Atomic      Atomic             Coordinates (Angstroms)
 Number     Number       Type             X           Y           Z
 ---------------------------------------------------------------------
      1          6           0        0.000000    0.878804   -0.931542
      2          6           0        0.000000    1.128157    0.423457
      3          6           0        0.000000    0.000000    1.240879
      4          6           0        0.000000   -1.128157    0.423457
      5          6           0        0.000000   -0.878804   -0.931542
      6          1           0        0.000000    0.000000   -1.732269
      7          1           0        0.000000    1.608300   -1.734053
      8          1           0        0.000000    2.156626    0.765670
      9          1           0        0.000000    0.000000    2.320778
     10          1           0        0.000000   -2.156626    0.765670
     11          1           0        0.000000   -1.608300   -1.734053
 ---------------------------------------------------------------------
                    Distance matrix (angstroms):
                    1          2          3          4          5
     1  C    0.000000
     2  C    1.377752   0.000000
     3  C    2.343440   1.393168   0.000000
     4  C    2.421552   2.256314   1.393168   0.000000
     5  C    1.757608   2.421552   2.343440   1.377752   0.000000
     6  H    1.188890   2.433083   2.973148   2.433083   1.188890
     7  H    1.084522   2.210291   3.381841   3.484687   2.613371
     8  H    2.124466   1.083909   2.208361   3.302561   3.477695
     9  H    3.368959   2.207389   1.079899   2.207389   3.368959
    10  H    3.477695   3.302561   2.208361   1.083909   2.124466
    11  H    2.613371   3.484687   3.381841   2.210291   1.084522
                    6          7          8          9         10
     6  H    0.000000
     7  H    1.608301   0.000000
     8  H    3.300111   2.559155   0.000000
     9  H    4.053047   4.362142   2.658834   0.000000
    10  H    3.300111   4.519213   4.313252   2.658834   0.000000
    11  H    1.608301   3.216600   4.519213   4.362142   2.559155
                   11
    11  H    0.000000
 Stoichiometry    C5H6(1+,2)
 Framework group  C2V[C2(HCH),SGV(C4H4)]
 Deg. of freedom    10
 Full point group                 C2V     NOp   4
 Largest Abelian subgroup         C2V     NOp   4
 Largest concise Abelian subgroup C2      NOp   2
                         Standard orientation:                         
 ---------------------------------------------------------------------
 Center     Atomic      Atomic             Coordinates (Angstroms)
 Number     Number       Type             X           Y           Z
 ---------------------------------------------------------------------
      1          6           0        0.000000    0.878804   -0.931542
      2          6           0        0.000000    1.128157    0.423457
      3          6           0        0.000000   -0.000000    1.240879
      4          6           0       -0.000000   -1.128157    0.423457
      5          6           0       -0.000000   -0.878804   -0.931542
      6          1           0       -0.000000    0.000000   -1.732269
      7          1           0        0.000000    1.608300   -1.734053
      8          1           0        0.000000    2.156626    0.765670
      9          1           0        0.000000   -0.000000    2.320778
     10          1           0       -0.000000   -2.156626    0.765670
     11          1           0       -0.000000   -1.608300   -1.734053
 ---------------------------------------------------------------------
 Rotational constants (GHZ):           8.5259551           7.9375455           4.1106177
 Leave Link  202 at Thu Mar  5 12:52:22 2020, MaxMem=  6710886400 cpu:               0.7 elap:               0.1
 (Enter /opt/ohpc/pub/libs/gaussian/g16-A.03/sandybridge/g16/l301.exe)
 Standard basis: 6-31G (6D, 7F)
 Ernie: Thresh=  0.10000D-02 Tol=  0.10000D-05 Strict=F.
 There are    27 symmetry adapted cartesian basis functions of A1  symmetry.
 There are     4 symmetry adapted cartesian basis functions of A2  symmetry.
 There are     6 symmetry adapted cartesian basis functions of B1  symmetry.
 There are    20 symmetry adapted cartesian basis functions of B2  symmetry.
 There are    27 symmetry adapted basis functions of A1  symmetry.
 There are     4 symmetry adapted basis functions of A2  symmetry.
 There are     6 symmetry adapted basis functions of B1  symmetry.
 There are    20 symmetry adapted basis functions of B2  symmetry.
    57 basis functions,   134 primitive gaussians,    57 cartesian basis functions
    18 alpha electrons       17 beta electrons
       nuclear repulsion energy       156.0127424860 Hartrees.
 IExCor=33909 DFT=T Ex+Corr=LC-wHPBE ExCW=0 ScaHFX=  1.000000
 ScaDFX=  1.000000  1.000000  1.000000  1.000000 ScalE2=  1.000000  1.000000
 IRadAn=      5 IRanWt=     -1 IRanGd=            0 ICorTp=0 IEmpDi=  4
 HFx  wShort=  0.000000 wLong=  0.400000 cFull=  0.000000 cShort=  0.000000 cLong=  0.742400
 DFx  wShort=  0.000000 wLong=  0.400000 cFull=  0.000000 cShort=  1.000000 cLong=  0.742400
 NAtoms=   11 NActive=   11 NUniq=    7 SFac= 2.47D+00 NAtFMM=   60 NAOKFM=F Big=F
 Integral buffers will be    131072 words long.
 Raffenetti 2 integral format.
 Two-electron integral symmetry is turned on.
 Leave Link  301 at Thu Mar  5 12:52:22 2020, MaxMem=  6710886400 cpu:               0.8 elap:               0.1
 (Enter /opt/ohpc/pub/libs/gaussian/g16-A.03/sandybridge/g16/l302.exe)
 NPDir=0 NMtPBC=     1 NCelOv=     1 NCel=       1 NClECP=     1 NCelD=      1
         NCelK=      1 NCelE2=     1 NClLst=     1 CellRange=     0.0.
 One-electron integrals computed using PRISM.
 One-electron integral symmetry used in STVInt
 NBasis=    57 RedAO= T EigKep=  1.84D-03  NBF=    27     4     6    20
 NBsUse=    57 1.00D-06 EigRej= -1.00D+00 NBFU=    27     4     6    20
 Precomputing XC quadrature grid using
 IXCGrd= 4 IRadAn=           5 IRanWt=          -1 IRanGd=           0 AccXCQ= 0.00D+00.
 Generated NRdTot=       0 NPtTot=           0 NUsed=           0 NTot=          32
 NSgBfM=    57    57    57    57    57 MxSgAt=    11 MxSgA2=    11.
 Leave Link  302 at Thu Mar  5 12:52:22 2020, MaxMem=  6710886400 cpu:               1.9 elap:               0.1
 (Enter /opt/ohpc/pub/libs/gaussian/g16-A.03/sandybridge/g16/l303.exe)
 DipDrv:  MaxL=1.
 Leave Link  303 at Thu Mar  5 12:52:22 2020, MaxMem=  6710886400 cpu:               0.4 elap:               0.0
 (Enter /opt/ohpc/pub/libs/gaussian/g16-A.03/sandybridge/g16/l401.exe)
 ExpMin= 1.61D-01 ExpMax= 3.05D+03 ExpMxC= 4.57D+02 IAcc=3 IRadAn=         5 AccDes= 0.00D+00
 Harris functional with IExCor=33909 and IRadAn=       5 diagonalized for initial guess.
 HarFok:  IExCor=33909 AccDes= 0.00D+00 IRadAn=         5 IDoV= 1 UseB2=F ITyADJ=14
 ICtDFT=  3500011 ScaDFX=  1.000000  1.000000  1.000000  1.000000
 FoFCou: FMM=F IPFlag=           0 FMFlag=      100000 FMFlg1=           0
         NFxFlg=           0 DoJE=T BraDBF=F KetDBF=T FulRan=T
         wScrn=  0.000000 ICntrl=       500 IOpCl=  0 I1Cent=   200000004 NGrid=           0
         NMat0=    1 NMatS0=      1 NMatT0=    0 NMatD0=    1 NMtDS0=    0 NMtDT0=    0
 Petite list used in FoFCou.
 Harris En= -191.728460972435    
 JPrj=0 DoOrth=F DoCkMO=F.
 Initial guess orbital symmetries:
 Alpha Orbitals:
       Occupied  (A1) (B2) (A1) (B2) (A1) (A1) (A1) (B2) (A1) (B2)
                 (A1) (B2) (A1) (B2) (A1) (B1) (A2) (B1)
       Virtual   (A2) (B2) (B1) (A1) (A1) (B2) (A1) (B2) (A1) (B2)
                 (A1) (B2) (A1) (B2) (B1) (A1) (A2) (B1) (B2) (A1)
                 (A1) (A2) (B1) (B2) (B2) (A1) (B2) (A1) (A1) (B2)
                 (A1) (A1) (A1) (B2) (A1) (B2) (A1) (A1) (B2)
 Beta  Orbitals:
       Occupied  (A1) (B2) (A1) (B2) (A1) (A1) (A1) (B2) (A1) (B2)
                 (A1) (B2) (A1) (B2) (A1) (B1) (A2)
       Virtual   (B1) (A2) (B2) (B1) (A1) (A1) (B2) (A1) (B2) (A1)
                 (B2) (A1) (B2) (A1) (B2) (B1) (A1) (A2) (B1) (B2)
                 (A1) (A1) (A2) (B1) (B2) (B2) (A1) (B2) (A1) (A1)
                 (B2) (A1) (A1) (A1) (B2) (A1) (B2) (A1) (A1) (B2)
 The electronic state of the initial guess is 2-B1.
 Initial guess <Sx>= 0.0000 <Sy>= 0.0000 <Sz>= 0.5000 <S**2>= 0.7500 S= 0.5000
 Leave Link  401 at Thu Mar  5 12:52:22 2020, MaxMem=  6710886400 cpu:               3.2 elap:               0.2
 (Enter /opt/ohpc/pub/libs/gaussian/g16-A.03/sandybridge/g16/l502.exe)
 Keep R1 and R2 ints in memory in symmetry-blocked form, NReq=16815681.
 FoFCou: FMM=F IPFlag=           0 FMFlag=           0 FMFlg1=           0
         NFxFlg=           0 DoJE=F BraDBF=F KetDBF=F FulRan=T
         wScrn=  0.000000 ICntrl=       600 IOpCl=  0 I1Cent=           0 NGrid=           0
         NMat0=    1 NMatS0=   1653 NMatT0=    0 NMatD0=    1 NMtDS0=    0 NMtDT0=    0
 Petite list used in FoFCou.
 UHF open shell SCF:
 Using DIIS extrapolation, IDIIS=    10.
 NGot=  6710886400 LenX=  6710059561 LenY=  6710055871
 Requested convergence on RMS density matrix=1.00D-06 within  32 cycles.
 Requested convergence on MAX density matrix=1.00D-04.
 Requested convergence on             energy=1.00D-04.
 Virtual orbitals will be shifted by   0.500 hartree.
 No special actions if energy rises.
 Dynamic level shift is on during FON iterations.

 Cycle   1  Pass 1  IDiag  1:
 E= -196.712417402456    
 DIIS: error= 4.83D-02 at cycle   1 NSaved=   1.
 NSaved= 1 IEnMin= 1 EnMin= -196.712417402456     IErMin= 1 ErrMin= 4.83D-02
 ErrMax= 4.83D-02  0.00D+00 EMaxC= 1.00D+00 BMatC= 1.95D-01 BMatP= 1.95D-01
 IDIUse=1 WtCom= 1.00D+00 WtEn= 0.00D+00
 Coeff-Com:  0.100D+01
 Coeff:      0.100D+01
 Gap=     0.322 Goal=   None    Shift=    0.500
 T= 1782. Gap= 0.796 NK=0 IS=   19 IE=   57 IFin=   18
          NO(<0.9)=   0  NV(>0.1)=   0     18.00e < EF      0.00e >EF  Err=0.0D+00
 Gap=     0.199 Goal=   None    Shift=    0.500
 T= 1782. Gap= 0.702 NK=0 IS=   18 IE=   57 IFin=   17
          NO(<0.9)=   0  NV(>0.1)=   0     17.00e < EF      0.00e >EF  Err=0.0D+00
 GapD=    0.199 DampG=1.000 DampE=0.500 DampFc=0.5000 IDamp=-1.
 Damping current iteration by 5.00D-01
 RMSDP=6.98D-03 MaxDP=5.28D-02              OVMax= 1.06D-01

 Cycle   2  Pass 1  IDiag  1:
 E= -196.750259989049     Delta-E=       -0.037842586593 Rises=F Damp=T
 DIIS: error= 2.25D-02 at cycle   2 NSaved=   2.
 NSaved= 2 IEnMin= 2 EnMin= -196.750259989049     IErMin= 2 ErrMin= 2.25D-02
 ErrMax= 2.25D-02  0.00D+00 EMaxC= 1.00D+00 BMatC= 3.26D-02 BMatP= 1.95D-01
 IDIUse=1 WtCom= 1.00D+00 WtEn= 0.00D+00
 Coeff-Com: -0.517D+00 0.152D+01
 Coeff:     -0.517D+00 0.152D+01
 Gap=     0.393 Goal=   None    Shift=    0.500
 T= 1665. Gap= 0.879 NK=4 IS=   19 IE=   23 IFin=   18
          NO(<0.9)=   0  NV(>0.1)=   0     18.00e < EF      0.00e >EF  Err=0.0D+00
 Gap=     0.228 Goal=   None    Shift=    0.500
 T= 1665. Gap= 0.726 NK=4 IS=   18 IE=   23 IFin=   17
          NO(<0.9)=   0  NV(>0.1)=   0     17.00e < EF      0.00e >EF  Err=0.0D+00
 GapD=    0.228 DampG=1.000 DampE=0.500 DampFc=0.5000 IDamp=-1.
 Damping current iteration by 5.00D-01
 RMSDP=4.16D-03 MaxDP=3.21D-02 DE=-3.78D-02 OVMax= 1.70D-02

 Cycle   3  Pass 1  IDiag  1:
 E= -196.763366648558     Delta-E=       -0.013106659509 Rises=F Damp=T
 DIIS: error= 1.26D-02 at cycle   3 NSaved=   3.
 NSaved= 3 IEnMin= 3 EnMin= -196.763366648558     IErMin= 3 ErrMin= 1.26D-02
 ErrMax= 1.26D-02  0.00D+00 EMaxC= 1.00D+00 BMatC= 7.39D-03 BMatP= 3.26D-02
 IDIUse=1 WtCom= 1.00D+00 WtEn= 0.00D+00
 Coeff-Com:  0.317D+00-0.176D+01 0.244D+01
 Coeff:      0.317D+00-0.176D+01 0.244D+01
 Gap=     0.382 Goal=   None    Shift=    0.500
 T= 1451. Gap= 0.882 NK=0 IS=   19 IE=   57 IFin=   18
          NO(<0.9)=   0  NV(>0.1)=   0     18.00e < EF      0.00e >EF  Err=0.0D+00
 Gap=     0.232 Goal=   None    Shift=    0.500
 T= 1451. Gap= 0.732 NK=0 IS=   18 IE=   57 IFin=   17
          NO(<0.9)=   0  NV(>0.1)=   0     17.00e < EF      0.00e >EF  Err=0.0D+00
 GapD=    0.232 DampG=1.000 DampE=0.500 DampFc=0.5000 IDamp=-1.
 Damping current iteration by 5.00D-01
 RMSDP=2.27D-03 MaxDP=1.85D-02 DE=-1.31D-02 OVMax= 1.54D-02

 Cycle   4  Pass 1  IDiag  1:
 E= -196.769539974926     Delta-E=       -0.006173326367 Rises=F Damp=T
 DIIS: error= 7.96D-03 at cycle   4 NSaved=   4.
 NSaved= 4 IEnMin= 4 EnMin= -196.769539974926     IErMin= 4 ErrMin= 7.96D-03
 ErrMax= 7.96D-03  0.00D+00 EMaxC= 1.00D+00 BMatC= 2.57D-03 BMatP= 7.39D-03
 IDIUse=1 WtCom= 1.00D+00 WtEn= 0.00D+00
 Coeff-Com:  0.307D-01 0.657D+00-0.340D+01 0.371D+01
 Coeff:      0.307D-01 0.657D+00-0.340D+01 0.371D+01
 Gap=     0.386 Goal=   None    Shift=    0.500
 T= 1054. Gap= 0.887 NK=0 IS=   19 IE=   57 IFin=   18
          NO(<0.9)=   0  NV(>0.1)=   0     18.00e < EF      0.00e >EF  Err=0.0D+00
 Gap=     0.237 Goal=   None    Shift=    0.500
 T= 1054. Gap= 0.737 NK=0 IS=   18 IE=   57 IFin=   17
          NO(<0.9)=   0  NV(>0.1)=   0     17.00e < EF      0.00e >EF  Err=0.0D+00
 GapD=    0.237 DampG=1.000 DampE=1.000 DampFc=1.0000 IDamp=-1.
 RMSDP=1.43D-03 MaxDP=1.51D-02 DE=-6.17D-03 OVMax= 1.43D-02

 Cycle   5  Pass 1  IDiag  1:
 E= -196.776714665299     Delta-E=       -0.007174690374 Rises=F Damp=F
 DIIS: error= 3.75D-03 at cycle   5 NSaved=   5.
 NSaved= 5 IEnMin= 5 EnMin= -196.776714665299     IErMin= 5 ErrMin= 3.75D-03
 ErrMax= 3.75D-03  0.00D+00 EMaxC= 1.00D+00 BMatC= 4.23D-04 BMatP= 2.57D-03
 IDIUse=1 WtCom= 1.00D+00 WtEn= 0.00D+00
 Coeff-Com: -0.173D+00 0.894D+00-0.807D+00-0.793D+00 0.188D+01
 Coeff:     -0.173D+00 0.894D+00-0.807D+00-0.793D+00 0.188D+01
 Gap=     0.389 Goal=   None    Shift=    0.500
 T=  711. Gap= 0.889 NK=0 IS=   19 IE=   57 IFin=   18
          NO(<0.9)=   0  NV(>0.1)=   0     18.00e < EF      0.00e >EF  Err=0.0D+00
 Gap=     0.240 Goal=   None    Shift=    0.500
 T=  711. Gap= 0.741 NK=0 IS=   18 IE=   57 IFin=   17
          NO(<0.9)=   0  NV(>0.1)=   0     17.00e < EF      0.00e >EF  Err=0.0D+00
 GapD=    0.240 DampG=1.000 DampE=1.000 DampFc=1.0000 IDamp=-1.
 RMSDP=4.21D-04 MaxDP=6.74D-03 DE=-7.17D-03 OVMax= 1.40D-02

 Cycle   6  Pass 1  IDiag  1:
 E= -196.777312352856     Delta-E=       -0.000597687557 Rises=F Damp=F
 DIIS: error= 3.01D-03 at cycle   6 NSaved=   6.
 NSaved= 6 IEnMin= 6 EnMin= -196.777312352856     IErMin= 6 ErrMin= 3.01D-03
 ErrMax= 3.01D-03  0.00D+00 EMaxC= 1.00D+00 BMatC= 1.95D-04 BMatP= 4.23D-04
 IDIUse=1 WtCom= 1.00D+00 WtEn= 0.00D+00
 Coeff-Com: -0.787D-02-0.218D+00 0.750D+00-0.566D+00-0.162D+01 0.266D+01
 Coeff:     -0.787D-02-0.218D+00 0.750D+00-0.566D+00-0.162D+01 0.266D+01
 Gap=     0.391 Goal=   None    Shift=    0.500
 T=  410. Gap= 0.892 NK=0 IS=   19 IE=   57 IFin=   18
          NO(<0.9)=   0  NV(>0.1)=   0     18.00e < EF      0.00e >EF  Err=0.0D+00
 Gap=     0.242 Goal=   None    Shift=    0.500
 T=  410. Gap= 0.743 NK=0 IS=   18 IE=   57 IFin=   17
          NO(<0.9)=   0  NV(>0.1)=   0     17.00e < EF      0.00e >EF  Err=0.0D+00
 GapD=    0.242 DampG=1.000 DampE=1.000 DampFc=1.0000 IDamp=-1.
 RMSDP=3.36D-04 MaxDP=5.50D-03 DE=-5.98D-04 OVMax= 1.28D-02

 Cycle   7  Pass 1  IDiag  1:
 E= -196.777656264118     Delta-E=       -0.000343911262 Rises=F Damp=F
 DIIS: error= 2.23D-03 at cycle   7 NSaved=   7.
 NSaved= 7 IEnMin= 7 EnMin= -196.777656264118     IErMin= 7 ErrMin= 2.23D-03
 ErrMax= 2.23D-03  0.00D+00 EMaxC= 1.00D+00 BMatC= 8.90D-05 BMatP= 1.95D-04
 IDIUse=1 WtCom= 1.00D+00 WtEn= 0.00D+00
 Coeff-Com:  0.192D-01-0.108D+00 0.454D-02 0.288D+00-0.501D+00-0.826D+00
 Coeff-Com:  0.212D+01
 Coeff:      0.192D-01-0.108D+00 0.454D-02 0.288D+00-0.501D+00-0.826D+00
 Coeff:      0.212D+01
 Gap=     0.392 Goal=   None    Shift=    0.500
 T=  114. Gap= 0.892 NK=0 IS=   19 IE=   57 IFin=   18
          NO(<0.9)=   0  NV(>0.1)=   0     18.00e < EF      0.00e >EF  Err=0.0D+00
 Gap=     0.244 Goal=   None    Shift=    0.500
 T=  114. Gap= 0.744 NK=0 IS=   18 IE=   57 IFin=   17
          NO(<0.9)=   0  NV(>0.1)=   0     17.00e < EF      0.00e >EF  Err=0.0D+00
 GapD=    0.244 DampG=1.000 DampE=1.000 DampFc=1.0000 IDamp=-1.
 RMSDP=2.29D-04 MaxDP=3.35D-03 DE=-3.44D-04 OVMax= 9.58D-03

 Cycle   8  Pass 1  IDiag  1:
 E= -196.777813534135     Delta-E=       -0.000157270017 Rises=F Damp=F
 DIIS: error= 1.63D-03 at cycle   8 NSaved=   8.
 NSaved= 8 IEnMin= 8 EnMin= -196.777813534135     IErMin= 8 ErrMin= 1.63D-03
 ErrMax= 1.63D-03  0.00D+00 EMaxC= 1.00D+00 BMatC= 4.43D-05 BMatP= 8.90D-05
 IDIUse=1 WtCom= 1.00D+00 WtEn= 0.00D+00
 Coeff-Com: -0.305D-02 0.220D+00-0.705D+00 0.539D+00 0.124D+01-0.259D+01
 Coeff-Com: -0.160D+00 0.246D+01
 Coeff:     -0.305D-02 0.220D+00-0.705D+00 0.539D+00 0.124D+01-0.259D+01
 Coeff:     -0.160D+00 0.246D+01
 Gap=     0.393 Goal=   None    Shift=    0.500
 Gap=     0.244 Goal=   None    Shift=    0.500
 GapD=    0.244 DampG=1.000 DampE=1.000 DampFc=1.0000 IDamp=-1.
 RMSDP=1.89D-04 MaxDP=2.73D-03 DE=-1.57D-04 OVMax= 8.40D-03

 Cycle   9  Pass 1  IDiag  1:
 E= -196.777899412799     Delta-E=       -0.000085878664 Rises=F Damp=F
 DIIS: error= 1.12D-03 at cycle   9 NSaved=   9.
 NSaved= 9 IEnMin= 9 EnMin= -196.777899412799     IErMin= 9 ErrMin= 1.12D-03
 ErrMax= 1.12D-03  0.00D+00 EMaxC= 1.00D+00 BMatC= 1.98D-05 BMatP= 4.43D-05
 IDIUse=1 WtCom= 1.00D+00 WtEn= 0.00D+00
 Coeff-Com: -0.869D-02-0.865D-01 0.470D+00-0.528D+00-0.406D+00 0.187D+01
 Coeff-Com: -0.935D+00-0.352D+01 0.414D+01
 Coeff:     -0.869D-02-0.865D-01 0.470D+00-0.528D+00-0.406D+00 0.187D+01
 Coeff:     -0.935D+00-0.352D+01 0.414D+01
 Gap=     0.393 Goal=   None    Shift=    0.500
 Gap=     0.245 Goal=   None    Shift=    0.500
 GapD=    0.245 DampG=1.000 DampE=1.000 DampFc=1.0000 IDamp=-1.
 RMSDP=1.47D-04 MaxDP=2.21D-03 DE=-8.59D-05 OVMax= 7.03D-03

 Cycle  10  Pass 1  IDiag  1:
 E= -196.777942184237     Delta-E=       -0.000042771438 Rises=F Damp=F
 DIIS: error= 6.90D-04 at cycle  10 NSaved=  10.
 NSaved=10 IEnMin=10 EnMin= -196.777942184237     IErMin=10 ErrMin= 6.90D-04
 ErrMax= 6.90D-04  0.00D+00 EMaxC= 1.00D+00 BMatC= 7.79D-06 BMatP= 1.98D-05
 IDIUse=1 WtCom= 1.00D+00 WtEn= 0.00D+00
 Coeff-Com:  0.272D-02 0.163D-03-0.280D-01 0.375D-01 0.179D-01-0.128D+00
 Coeff-Com:  0.225D+00 0.130D+00-0.187D+01 0.261D+01
 Coeff:      0.272D-02 0.163D-03-0.280D-01 0.375D-01 0.179D-01-0.128D+00
 Coeff:      0.225D+00 0.130D+00-0.187D+01 0.261D+01
 Gap=     0.393 Goal=   None    Shift=    0.500
 Gap=     0.245 Goal=   None    Shift=    0.500
 RMSDP=8.70D-05 MaxDP=1.34D-03 DE=-4.28D-05 OVMax= 4.35D-03

 Cycle  11  Pass 1  IDiag  1:
 E= -196.777957966690     Delta-E=       -0.000015782453 Rises=F Damp=F
 DIIS: error= 4.27D-04 at cycle  11 NSaved=  11.
 NSaved=11 IEnMin=11 EnMin= -196.777957966690     IErMin=11 ErrMin= 4.27D-04
 ErrMax= 4.27D-04  0.00D+00 EMaxC= 1.00D+00 BMatC= 3.26D-06 BMatP= 7.79D-06
 IDIUse=1 WtCom= 1.00D+00 WtEn= 0.00D+00
 Coeff-Com: -0.231D-02-0.489D-03 0.480D-01-0.766D-01 0.359D-01 0.172D+00
 Coeff-Com: -0.300D+00-0.451D+00 0.252D+01-0.559D+01 0.465D+01
 Coeff:     -0.231D-02-0.489D-03 0.480D-01-0.766D-01 0.359D-01 0.172D+00
 Coeff:     -0.300D+00-0.451D+00 0.252D+01-0.559D+01 0.465D+01
 Gap=     0.393 Goal=   None    Shift=    0.500
 Gap=     0.245 Goal=   None    Shift=    0.500
 RMSDP=5.76D-05 MaxDP=8.49D-04 DE=-1.58D-05 OVMax= 2.94D-03

 Cycle  12  Pass 1  IDiag  1:
 E= -196.777964486400     Delta-E=       -0.000006519709 Rises=F Damp=F
 DIIS: error= 2.53D-04 at cycle  12 NSaved=  12.
 NSaved=12 IEnMin=12 EnMin= -196.777964486400     IErMin=12 ErrMin= 2.53D-04
 ErrMax= 2.53D-04  0.00D+00 EMaxC= 1.00D+00 BMatC= 1.20D-06 BMatP= 3.26D-06
 IDIUse=1 WtCom= 1.00D+00 WtEn= 0.00D+00
 Coeff-Com: -0.120D-02-0.151D-01 0.789D-01-0.881D-01-0.608D-01 0.286D+00
 Coeff-Com: -0.770D-01-0.641D+00 0.667D+00 0.436D+00-0.244D+01 0.286D+01
 Coeff:     -0.120D-02-0.151D-01 0.789D-01-0.881D-01-0.608D-01 0.286D+00
 Coeff:     -0.770D-01-0.641D+00 0.667D+00 0.436D+00-0.244D+01 0.286D+01
 Gap=     0.393 Goal=   None    Shift=    0.500
 Gap=     0.245 Goal=   None    Shift=    0.500
 RMSDP=3.47D-05 MaxDP=5.01D-04 DE=-6.52D-06 OVMax= 1.78D-03

 Cycle  13  Pass 1  IDiag  1:
 E= -196.777966843970     Delta-E=       -0.000002357571 Rises=F Damp=F
 DIIS: error= 1.49D-04 at cycle  13 NSaved=  13.
 NSaved=13 IEnMin=13 EnMin= -196.777966843970     IErMin=13 ErrMin= 1.49D-04
 ErrMax= 1.49D-04  0.00D+00 EMaxC= 1.00D+00 BMatC= 4.31D-07 BMatP= 1.20D-06
 IDIUse=1 WtCom= 1.00D+00 WtEn= 0.00D+00
 Coeff-Com:  0.828D-03 0.579D-02-0.297D-01 0.308D-01 0.402D-01-0.115D+00
 Coeff-Com: -0.764D-02 0.261D+00-0.321D-01-0.101D+01 0.257D+01-0.479D+01
 Coeff-Com:  0.407D+01
 Coeff:      0.828D-03 0.579D-02-0.297D-01 0.308D-01 0.402D-01-0.115D+00
 Coeff:     -0.764D-02 0.261D+00-0.321D-01-0.101D+01 0.257D+01-0.479D+01
 Coeff:      0.407D+01
 Gap=     0.393 Goal=   None    Shift=    0.500
 Gap=     0.245 Goal=   None    Shift=    0.500
 RMSDP=2.12D-05 MaxDP=3.12D-04 DE=-2.36D-06 OVMax= 1.10D-03

 Cycle  14  Pass 1  IDiag  1:
 E= -196.777967697195     Delta-E=       -0.000000853224 Rises=F Damp=F
 DIIS: error= 8.41D-05 at cycle  14 NSaved=  14.
 NSaved=14 IEnMin=14 EnMin= -196.777967697195     IErMin=14 ErrMin= 8.41D-05
 ErrMax= 8.41D-05  0.00D+00 EMaxC= 1.00D+00 BMatC= 1.57D-07 BMatP= 4.31D-07
 IDIUse=1 WtCom= 1.00D+00 WtEn= 0.00D+00
 Coeff-Com: -0.288D-03-0.235D-02 0.171D-01-0.224D-01-0.313D-02 0.480D-01
 Coeff-Com: -0.121D-01-0.145D+00 0.335D+00-0.479D+00-0.128D-01 0.142D+01
 Coeff-Com: -0.343D+01 0.329D+01
 Coeff:     -0.288D-03-0.235D-02 0.171D-01-0.224D-01-0.313D-02 0.480D-01
 Coeff:     -0.121D-01-0.145D+00 0.335D+00-0.479D+00-0.128D-01 0.142D+01
 Coeff:     -0.343D+01 0.329D+01
 Gap=     0.393 Goal=   None    Shift=    0.500
 Gap=     0.245 Goal=   None    Shift=    0.500
 RMSDP=1.26D-05 MaxDP=1.85D-04 DE=-8.53D-07 OVMax= 6.61D-04

 Cycle  15  Pass 1  IDiag  1:
 E= -196.777967993980     Delta-E=       -0.000000296785 Rises=F Damp=F
 DIIS: error= 4.71D-05 at cycle  15 NSaved=  15.
 NSaved=15 IEnMin=15 EnMin= -196.777967993980     IErMin=15 ErrMin= 4.71D-05
 ErrMax= 4.71D-05  0.00D+00 EMaxC= 1.00D+00 BMatC= 5.43D-08 BMatP= 1.57D-07
 IDIUse=1 WtCom= 1.00D+00 WtEn= 0.00D+00
 Coeff-Com:  0.192D-03 0.541D-03-0.640D-02 0.926D-02-0.433D-03-0.167D-01
 Coeff-Com:  0.934D-02 0.590D-01-0.159D+00 0.267D+00-0.119D+00-0.730D+00
 Coeff-Com:  0.237D+01-0.457D+01 0.389D+01
 Coeff:      0.192D-03 0.541D-03-0.640D-02 0.926D-02-0.433D-03-0.167D-01
 Coeff:      0.934D-02 0.590D-01-0.159D+00 0.267D+00-0.119D+00-0.730D+00
 Coeff:      0.237D+01-0.457D+01 0.389D+01
 Gap=     0.393 Goal=   None    Shift=    0.500
 Gap=     0.245 Goal=   None    Shift=    0.500
 RMSDP=7.29D-06 MaxDP=1.05D-04 DE=-2.97D-07 OVMax= 3.85D-04

 Cycle  16  Pass 1  IDiag  1:
 E= -196.777968092475     Delta-E=       -0.000000098495 Rises=F Damp=F
 DIIS: error= 2.57D-05 at cycle  16 NSaved=  16.
 NSaved=16 IEnMin=16 EnMin= -196.777968092475     IErMin=16 ErrMin= 2.57D-05
 ErrMax= 2.57D-05  0.00D+00 EMaxC= 1.00D+00 BMatC= 1.91D-08 BMatP= 5.43D-08
 IDIUse=1 WtCom= 1.00D+00 WtEn= 0.00D+00
 Coeff-Com:  0.277D-04 0.582D-03-0.103D-02-0.353D-03 0.719D-02-0.144D-01
 Coeff-Com:  0.608D-02 0.112D-01 0.396D-01-0.186D+00 0.301D+00-0.297D+00
 Coeff-Com: -0.199D+00 0.152D+01-0.359D+01 0.340D+01
 Coeff:      0.277D-04 0.582D-03-0.103D-02-0.353D-03 0.719D-02-0.144D-01
 Coeff:      0.608D-02 0.112D-01 0.396D-01-0.186D+00 0.301D+00-0.297D+00
 Coeff:     -0.199D+00 0.152D+01-0.359D+01 0.340D+01
 Gap=     0.393 Goal=   None    Shift=    0.500
 Gap=     0.245 Goal=   None    Shift=    0.500
 RMSDP=4.11D-06 MaxDP=5.76D-05 DE=-9.85D-08 OVMax= 2.18D-04

 Cycle  17  Pass 1  IDiag  1:
 E= -196.777968124185     Delta-E=       -0.000000031710 Rises=F Damp=F
 DIIS: error= 1.39D-05 at cycle  17 NSaved=  17.
 NSaved=17 IEnMin=17 EnMin= -196.777968124185     IErMin=17 ErrMin= 1.39D-05
 ErrMax= 1.39D-05  0.00D+00 EMaxC= 1.00D+00 BMatC= 6.58D-09 BMatP= 1.91D-08
 IDIUse=1 WtCom= 1.00D+00 WtEn= 0.00D+00
 Coeff-Com:  0.379D-04-0.313D-03 0.258D-03 0.529D-03-0.302D-02 0.388D-02
 Coeff-Com:  0.176D-02-0.229D-02-0.228D-01 0.799D-01-0.118D+00 0.708D-01
 Coeff-Com:  0.216D+00-0.102D+01 0.255D+01-0.468D+01 0.393D+01
 Coeff:      0.379D-04-0.313D-03 0.258D-03 0.529D-03-0.302D-02 0.388D-02
 Coeff:      0.176D-02-0.229D-02-0.228D-01 0.799D-01-0.118D+00 0.708D-01
 Coeff:      0.216D+00-0.102D+01 0.255D+01-0.468D+01 0.393D+01
 Gap=     0.393 Goal=   None    Shift=    0.500
 Gap=     0.245 Goal=   None    Shift=    0.500
 RMSDP=2.25D-06 MaxDP=3.06D-05 DE=-3.17D-08 OVMax= 1.20D-04

 Cycle  18  Pass 1  IDiag  1:
 E= -196.777968134109     Delta-E=       -0.000000009924 Rises=F Damp=F
 DIIS: error= 7.50D-06 at cycle  18 NSaved=  18.
 NSaved=18 IEnMin=18 EnMin= -196.777968134109     IErMin=18 ErrMin= 7.50D-06
 ErrMax= 7.50D-06  0.00D+00 EMaxC= 1.00D+00 BMatC= 2.21D-09 BMatP= 6.58D-09
 IDIUse=1 WtCom= 1.00D+00 WtEn= 0.00D+00
 Coeff-Com:  0.296D-04 0.255D-03-0.147D-02 0.170D-02 0.161D-02-0.713D-02
 Coeff-Com:  0.415D-02 0.118D-01-0.201D-01 0.110D-01 0.304D-01-0.124D+00
 Coeff-Com:  0.229D+00-0.235D+00-0.196D+00 0.144D+01-0.362D+01 0.347D+01
 Coeff:      0.296D-04 0.255D-03-0.147D-02 0.170D-02 0.161D-02-0.713D-02
 Coeff:      0.415D-02 0.118D-01-0.201D-01 0.110D-01 0.304D-01-0.124D+00
 Coeff:      0.229D+00-0.235D+00-0.196D+00 0.144D+01-0.362D+01 0.347D+01
 Gap=     0.393 Goal=   None    Shift=    0.500
 Gap=     0.245 Goal=   None    Shift=    0.500
 RMSDP=1.20D-06 MaxDP=1.63D-05 DE=-9.92D-09 OVMax= 6.44D-05

 Cycle  19  Pass 1  IDiag  1:
 E= -196.777968137171     Delta-E=       -0.000000003062 Rises=F Damp=F
 DIIS: error= 4.09D-06 at cycle  19 NSaved=  19.
 NSaved=19 IEnMin=19 EnMin= -196.777968137171     IErMin=19 ErrMin= 4.09D-06
 ErrMax= 4.09D-06  0.00D+00 EMaxC= 1.00D+00 BMatC= 7.21D-10 BMatP= 2.21D-09
 IDIUse=1 WtCom= 1.00D+00 WtEn= 0.00D+00
 Coeff-Com:  0.395D-05 0.878D-04-0.277D-03 0.197D-03 0.661D-03-0.221D-02
 Coeff-Com:  0.188D-02 0.200D-02-0.300D-02-0.190D-02 0.847D-02-0.993D-02
 Coeff-Com: -0.748D-02 0.537D-01-0.594D-01-0.301D+00 0.126D+01-0.304D+01
 Coeff-Com:  0.310D+01
 Coeff:      0.395D-05 0.878D-04-0.277D-03 0.197D-03 0.661D-03-0.221D-02
 Coeff:      0.188D-02 0.200D-02-0.300D-02-0.190D-02 0.847D-02-0.993D-02
 Coeff:     -0.748D-02 0.537D-01-0.594D-01-0.301D+00 0.126D+01-0.304D+01
 Coeff:      0.310D+01
 Gap=     0.393 Goal=   None    Shift=    0.500
 Gap=     0.245 Goal=   None    Shift=    0.500
 RMSDP=6.47D-07 MaxDP=8.90D-06 DE=-3.06D-09 OVMax= 3.47D-05

 SCF Done:  E(ULC-wHPBE) =  -196.777968137     A.U. after   19 cycles
            NFock= 19  Conv=0.65D-06     -V/T= 2.0200
 <Sx>= 0.0000 <Sy>= 0.0000 <Sz>= 0.5000 <S**2>= 0.8131 S= 0.5311
 <L.S>= 0.000000000000E+00
 KE= 1.929127637010D+02 PE=-7.525871220229D+02 EE= 2.068836476987D+02
 Annihilation of the first spin contaminant:
 S**2 before annihilation     0.8131,   after     0.7523
 Leave Link  502 at Thu Mar  5 12:52:24 2020, MaxMem=  6710886400 cpu:              29.3 elap:               1.9
 (Enter /opt/ohpc/pub/libs/gaussian/g16-A.03/sandybridge/g16/l508.exe)
 QCSCF skips out because SCF is already converged.
 Leave Link  508 at Thu Mar  5 12:52:24 2020, MaxMem=  6710886400 cpu:               0.2 elap:               0.2
 (Enter /opt/ohpc/pub/libs/gaussian/g16-A.03/sandybridge/g16/l601.exe)
 Copying SCF densities to generalized density rwf, IOpCl= 1 IROHF=0.

 **********************************************************************

            Population analysis using the SCF density.

 **********************************************************************

 Orbital symmetries:
 Alpha Orbitals:
       Occupied  (B2) (A1) (A1) (B2) (A1) (A1) (A1) (B2) (A1) (B2)
                 (A1) (B2) (A1) (A1) (B1) (B2) (A2) (B1)
       Virtual   (A2) (B2) (B1) (A1) (A1) (B2) (A1) (A1) (B2) (A1)
                 (B2) (A1) (B2) (B1) (B2) (B1) (A2) (A1) (A1) (B2)
                 (A1) (A2) (B1) (B2) (B2) (A1) (A1) (A1) (B2) (A1)
                 (B2) (A1) (A1) (B2) (A1) (B2) (A1) (A1) (B2)
 Beta  Orbitals:
       Occupied  (B2) (A1) (B2) (A1) (A1) (A1) (A1) (B2) (A1) (B2)
                 (A1) (B2) (A1) (A1) (B2) (B1) (A2)
       Virtual   (B1) (B2) (A2) (A1) (B1) (A1) (B2) (A1) (B2) (A1)
                 (A1) (B2) (A1) (B2) (B2) (B1) (A2) (A1) (B1) (A1)
                 (B2) (A1) (A2) (B1) (B2) (B2) (A1) (A1) (B2) (A1)
                 (B2) (A1) (A1) (A1) (B2) (A1) (B2) (A1) (A1) (B2)
 The electronic state is 2-B1.
 Alpha  occ. eigenvalues --  -10.44719 -10.44716 -10.39722 -10.38850 -10.38849
 Alpha  occ. eigenvalues --   -1.31401  -1.18488  -1.13552  -0.99798  -0.97499
 Alpha  occ. eigenvalues --   -0.92819  -0.82978  -0.80789  -0.79638  -0.78499
 Alpha  occ. eigenvalues --   -0.77292  -0.63710  -0.62688
 Alpha virt. eigenvalues --   -0.23381  -0.22882  -0.16486  -0.15838  -0.09300
 Alpha virt. eigenvalues --   -0.04539  -0.02571  -0.00147  -0.00141   0.10604
 Alpha virt. eigenvalues --    0.10943   0.21161   0.21547   0.29698   0.30622
 Alpha virt. eigenvalues --    0.37367   0.37925   0.38737   0.40692   0.41513
 Alpha virt. eigenvalues --    0.41865   0.45280   0.46763   0.54559   0.61270
 Alpha virt. eigenvalues --    0.63574   0.64678   0.67225   0.67284   0.73365
 Alpha virt. eigenvalues --    0.73502   0.77812   0.82050   0.88666   0.96736
 Alpha virt. eigenvalues --    0.97697   1.03581   1.25021   1.26551
  Beta  occ. eigenvalues --  -10.44105 -10.44100 -10.39173 -10.39173 -10.38752
  Beta  occ. eigenvalues --   -1.30102  -1.16563  -1.13316  -0.98703  -0.96757
  Beta  occ. eigenvalues --   -0.92567  -0.82701  -0.80524  -0.79076  -0.77145
  Beta  occ. eigenvalues --   -0.73965  -0.62332
  Beta virt. eigenvalues --   -0.37861  -0.21361  -0.20353  -0.15610  -0.12983
  Beta virt. eigenvalues --   -0.08888  -0.04274  -0.02367  -0.00204   0.00506
  Beta virt. eigenvalues --    0.11093   0.11279   0.21578   0.21913   0.31030
  Beta virt. eigenvalues --    0.32107   0.39022   0.39301   0.40306   0.41070
  Beta virt. eigenvalues --    0.41896   0.43007   0.45853   0.48428   0.55121
  Beta virt. eigenvalues --    0.61705   0.64475   0.65152   0.67175   0.67685
  Beta virt. eigenvalues --    0.73797   0.74047   0.78633   0.82845   0.88662
  Beta virt. eigenvalues --    0.97226   0.98218   1.04776   1.25969   1.27424
          Condensed to atoms (all electrons):
               1          2          3          4          5          6
     1  C    5.371985   0.496423  -0.043837  -0.124142   0.179020   0.161982
     2  C    0.496423   4.962369   0.459763  -0.027676  -0.124142  -0.020970
     3  C   -0.043837   0.459763   4.882723   0.459763  -0.043837   0.007146
     4  C   -0.124142  -0.027676   0.459763   4.962369   0.496423  -0.020970
     5  C    0.179020  -0.124142  -0.043837   0.496423   5.371985   0.161982
     6  H    0.161982  -0.020970   0.007146  -0.020970   0.161982   0.348069
     7  H    0.335224   0.004545  -0.000332   0.003160  -0.015668  -0.009582
     8  H   -0.023416   0.360394  -0.011790   0.003809   0.000856   0.000371
     9  H    0.004934  -0.026338   0.363181  -0.026338   0.004934  -0.000038
    10  H    0.000856   0.003809  -0.011790   0.360394  -0.023416   0.000371
    11  H   -0.015668   0.003160  -0.000332   0.004545   0.335224  -0.009582
               7          8          9         10         11
     1  C    0.335224  -0.023416   0.004934   0.000856  -0.015668
     2  C    0.004545   0.360394  -0.026338   0.003809   0.003160
     3  C   -0.000332  -0.011790   0.363181  -0.011790  -0.000332
     4  C    0.003160   0.003809  -0.026338   0.360394   0.004545
     5  C   -0.015668   0.000856   0.004934  -0.023416   0.335224
     6  H   -0.009582   0.000371  -0.000038   0.000371  -0.009582
     7  H    0.340701   0.000097  -0.000051  -0.000016   0.000395
     8  H    0.000097   0.379701  -0.001176  -0.000082  -0.000016
     9  H   -0.000051  -0.001176   0.398840  -0.001176  -0.000051
    10  H   -0.000016  -0.000082  -0.001176   0.379701   0.000097
    11  H    0.000395  -0.000016  -0.000051   0.000097   0.340701
          Atomic-Atomic Spin Densities.
               1          2          3          4          5          6
     1  C    0.517690  -0.040669  -0.022807  -0.009527   0.023327  -0.004128
     2  C   -0.040669  -0.266559   0.027838  -0.000049  -0.009527   0.000361
     3  C   -0.022807   0.027838   0.727320   0.027838  -0.022807   0.000210
     4  C   -0.009527  -0.000049   0.027838  -0.266559  -0.040669   0.000361
     5  C    0.023327  -0.009527  -0.022807  -0.040669   0.517690  -0.004128
     6  H   -0.004128   0.000361   0.000210   0.000361  -0.004128  -0.015892
     7  H   -0.002955  -0.000543   0.000117  -0.000108   0.000193  -0.000141
     8  H   -0.000391   0.002097  -0.001123  -0.000133   0.000069   0.000024
     9  H   -0.000016  -0.000030  -0.001220  -0.000030  -0.000016  -0.000001
    10  H    0.000069  -0.000133  -0.001123   0.002097  -0.000391   0.000024
    11  H    0.000193  -0.000108   0.000117  -0.000543  -0.002955  -0.000141
               7          8          9         10         11
     1  C   -0.002955  -0.000391  -0.000016   0.000069   0.000193
     2  C   -0.000543   0.002097  -0.000030  -0.000133  -0.000108
     3  C    0.000117  -0.001123  -0.001220  -0.001123   0.000117
     4  C   -0.000108  -0.000133  -0.000030   0.002097  -0.000543
     5  C    0.000193   0.000069  -0.000016  -0.000391  -0.002955
     6  H   -0.000141   0.000024  -0.000001   0.000024  -0.000141
     7  H   -0.018829   0.000054   0.000004  -0.000000  -0.000075
     8  H    0.000054   0.007758   0.000009   0.000000  -0.000000
     9  H    0.000004   0.000009  -0.028720   0.000009   0.000004
    10  H   -0.000000   0.000000   0.000009   0.007758   0.000054
    11  H   -0.000075  -0.000000   0.000004   0.000054  -0.018829
 Mulliken charges and spin densities:
               1          2
     1  C   -0.343361   0.460788
     2  C   -0.091338  -0.287322
     3  C   -0.060658   0.734362
     4  C   -0.091338  -0.287322
     5  C   -0.343361   0.460788
     6  H    0.381220  -0.023452
     7  H    0.341527  -0.022283
     8  H    0.291253   0.008365
     9  H    0.283279  -0.030007
    10  H    0.291253   0.008365
    11  H    0.341527  -0.022283
 Sum of Mulliken charges =   1.00000   1.00000
 Mulliken charges and spin densities with hydrogens summed into heavy atoms:
               1          2
     1  C    0.379386   0.415054
     2  C    0.199914  -0.278957
     3  C    0.222621   0.704355
     4  C    0.199914  -0.278957
     5  C   -0.001834   0.438505
 Electronic spatial extent (au):  <R**2>=            317.8890
 Charge=              1.0000 electrons
 Dipole moment (field-independent basis, Debye):
    X=             -0.0000    Y=             -0.0000    Z=             -2.0420  Tot=              2.0420
 Quadrupole moment (field-independent basis, Debye-Ang):
   XX=            -30.8927   YY=            -17.0358   ZZ=            -12.7137
   XY=              0.0000   XZ=              0.0000   YZ=             -0.0000
 Traceless Quadrupole moment (field-independent basis, Debye-Ang):
   XX=            -10.6786   YY=              3.1783   ZZ=              7.5003
   XY=              0.0000   XZ=              0.0000   YZ=             -0.0000
 Octapole moment (field-independent basis, Debye-Ang**2):
  XXX=              0.0000  YYY=              0.0000  ZZZ=             -7.5772  XYY=             -0.0000
  XXY=             -0.0000  XXZ=              0.6569  XZZ=              0.0000  YZZ=             -0.0000
  YYZ=             -2.7210  XYZ=             -0.0000
 Hexadecapole moment (field-independent basis, Debye-Ang**3):
 XXXX=            -30.4313 YYYY=           -140.4768 ZZZZ=           -121.3721 XXXY=             -0.0000
 XXXZ=             -0.0000 YYYX=             -0.0000 YYYZ=             -0.0000 ZZZX=              0.0000
 ZZZY=              0.0000 XXYY=            -41.4906 XXZZ=            -38.0881 YYZZ=            -41.3750
 XXYZ=              0.0000 YYXZ=             -0.0000 ZZXY=             -0.0000
 N-N= 1.560127424860D+02 E-N=-7.525871262224D+02  KE= 1.929127637010D+02
 Symmetry A1   KE= 1.114686148718D+02
 Symmetry A2   KE= 2.553712195875D+00
 Symmetry B1   KE= 3.291280193716D+00
 Symmetry B2   KE= 7.559915643963D+01
 Symmetry A1   SP= 1.432989841968D-14
 Symmetry A2   SP= 5.160802341031D-17
 Symmetry B1   SP= 1.000000000000D+00
 Symmetry B2   SP= 9.847903200376D-15
                          Isotropic Fermi Contact Couplings
        Atom                 a.u.       MegaHertz       Gauss      10(-4) cm-1
     1  C(13)              0.07369      82.84047      29.55954      27.63260
     2  C(13)             -0.05140     -57.78233     -20.61817     -19.27411
     3  C(13)              0.10942     123.00852      43.89250      41.03123
     4  C(13)             -0.05140     -57.78233     -20.61817     -19.27411
     5  C(13)              0.07369      82.84047      29.55954      27.63260
     6  H(1)              -0.00889     -39.72491     -14.17484     -13.25080
     7  H(1)              -0.00964     -43.10209     -15.37990     -14.37731
     8  H(1)               0.00337      15.04889       5.36982       5.01977
     9  H(1)              -0.01367     -61.10678     -21.80442     -20.38303
    10  H(1)               0.00337      15.04889       5.36982       5.01977
    11  H(1)              -0.00964     -43.10209     -15.37990     -14.37731
 --------------------------------------------------------
       Center         ----  Spin Dipole Couplings  ----
                      3XX-RR        3YY-RR        3ZZ-RR
 --------------------------------------------------------
     1   Atom        0.481344     -0.234430     -0.246913
     2   Atom       -0.190608      0.093407      0.097200
     3   Atom        0.700749     -0.358081     -0.342669
     4   Atom       -0.190608      0.093407      0.097200
     5   Atom        0.481344     -0.234430     -0.246913
     6   Atom       -0.007911      0.007638      0.000273
     7   Atom       -0.006559      0.006754     -0.000194
     8   Atom       -0.006245     -0.000818      0.007062
     9   Atom       -0.008518     -0.045633      0.054151
    10   Atom       -0.006245     -0.000818      0.007062
    11   Atom       -0.006559      0.006754     -0.000194
 --------------------------------------------------------
                        XY            XZ            YZ
 --------------------------------------------------------
     1   Atom       -0.000000      0.000000     -0.008163
     2   Atom       -0.000000      0.000000     -0.005402
     3   Atom       -0.000000     -0.000000      0.000000
     4   Atom       -0.000000     -0.000000      0.005402
     5   Atom        0.000000      0.000000      0.008163
     6   Atom       -0.000000      0.000000      0.000000
     7   Atom        0.000000      0.000000     -0.035029
     8   Atom       -0.000000      0.000000     -0.006070
     9   Atom       -0.000000     -0.000000      0.000000
    10   Atom        0.000000     -0.000000      0.006070
    11   Atom       -0.000000     -0.000000      0.035029
 --------------------------------------------------------


 ---------------------------------------------------------------------------------
              Anisotropic Spin Dipole Couplings in Principal Axis System
 ---------------------------------------------------------------------------------

       Atom             a.u.   MegaHertz   Gauss  10(-4) cm-1        Axes

              Baa    -0.2509   -33.675   -12.016   -11.233 -0.0000  0.4430  0.8965
     1 C(13)  Bbb    -0.2304   -30.917   -11.032   -10.313 -0.0000  0.8965 -0.4430
              Bcc     0.4813    64.592    23.048    21.545  1.0000  0.0000  0.0000
 
              Baa    -0.1906   -25.578    -9.127    -8.532  1.0000  0.0000  0.0000
     2 C(13)  Bbb     0.0896    12.021     4.289     4.010 -0.0000  0.8159  0.5783
              Bcc     0.1010    13.557     4.838     4.522  0.0000 -0.5783  0.8159
 
              Baa    -0.3581   -48.051   -17.146   -16.028  0.0000  1.0000  0.0000
     3 C(13)  Bbb    -0.3427   -45.983   -16.408   -15.338  0.0000  0.0000  1.0000
              Bcc     0.7007    94.034    33.554    31.366  1.0000 -0.0000  0.0000
 
              Baa    -0.1906   -25.578    -9.127    -8.532  1.0000  0.0000  0.0000
     4 C(13)  Bbb     0.0896    12.021     4.289     4.010 -0.0000  0.8159 -0.5783
              Bcc     0.1010    13.557     4.838     4.522 -0.0000  0.5783  0.8159
 
              Baa    -0.2509   -33.675   -12.016   -11.233 -0.0000 -0.4430  0.8965
     5 C(13)  Bbb    -0.2304   -30.917   -11.032   -10.313  0.0000  0.8965  0.4430
              Bcc     0.4813    64.592    23.048    21.545  1.0000 -0.0000  0.0000
 
              Baa    -0.0079    -4.221    -1.506    -1.408  1.0000 -0.0000 -0.0000
     6 H(1)   Bbb     0.0003     0.146     0.052     0.049  0.0000 -0.0000  1.0000
              Bcc     0.0076     4.075     1.454     1.359  0.0000  1.0000  0.0000
 
              Baa    -0.0319   -17.032    -6.077    -5.681 -0.0000  0.6713  0.7412
     7 H(1)   Bbb    -0.0066    -3.500    -1.249    -1.167  1.0000  0.0000  0.0000
              Bcc     0.0385    20.531     7.326     6.849 -0.0000  0.7412 -0.6713
 
              Baa    -0.0062    -3.332    -1.189    -1.111  1.0000  0.0000  0.0000
     8 H(1)   Bbb    -0.0041    -2.195    -0.783    -0.732 -0.0000  0.8788  0.4773
              Bcc     0.0104     5.527     1.972     1.844  0.0000 -0.4773  0.8788
 
              Baa    -0.0456   -24.347    -8.688    -8.121  0.0000  1.0000 -0.0000
     9 H(1)   Bbb    -0.0085    -4.545    -1.622    -1.516  1.0000  0.0000  0.0000
              Bcc     0.0542    28.892    10.309     9.637  0.0000  0.0000  1.0000
 
              Baa    -0.0062    -3.332    -1.189    -1.111  1.0000 -0.0000  0.0000
    10 H(1)   Bbb    -0.0041    -2.195    -0.783    -0.732  0.0000  0.8788 -0.4773
              Bcc     0.0104     5.527     1.972     1.844  0.0000  0.4773  0.8788
 
              Baa    -0.0319   -17.032    -6.077    -5.681  0.0000 -0.6713  0.7412
    11 H(1)   Bbb    -0.0066    -3.500    -1.249    -1.167  1.0000  0.0000  0.0000
              Bcc     0.0385    20.531     7.326     6.849 -0.0000  0.7412  0.6713
 

 ---------------------------------------------------------------------------------

 No NMR shielding tensors so no spin-rotation constants.
 Leave Link  601 at Thu Mar  5 12:52:25 2020, MaxMem=  6710886400 cpu:               2.9 elap:               0.4
 (Enter /opt/ohpc/pub/libs/gaussian/g16-A.03/sandybridge/g16/l9999.exe)

 Test job not archived.
 1\1\GINC-CNODE212\SP\ULC-wHPBE\6-31G\C5H6(1+,2)\SMGO234\05-Mar-2020\0\
 \#P uLC-wHPBE/6-31G iop(3/130=0257600000, 3/131=0257600000, 3/119=0742
 400000, 3/120=0742400000) scf=(conver=6,fermi,ndamp=35,noincfock,novar
 acc,vshift=500,xqc)\\H6 C5\\1,2\C,0,0.,0.878804,-0.931542\C,0,0.,1.128
 157,0.423457\C,0,0.,0.,1.240879\C,0,0.,-1.128157,0.423457\C,0,0.,-0.87
 8804,-0.931542\H,0,0.,0.,-1.732269\H,0,0.,1.6083,-1.734053\H,0,0.,2.15
 6626,0.76567\H,0,0.,0.,2.320778\H,0,0.,-2.156626,0.76567\H,0,0.,-1.608
 3,-1.734053\\Version=EM64L-G16RevA.03\State=2-B1\HF=-196.7779681\S2=0.
 813124\S2-1=0.\S2A=0.752264\RMSD=6.471e-07\Dipole=0.,0.,-0.803366\Quad
 rupole=-7.9392743,2.3629558,5.5763185,0.,0.,0.\PG=C02V [C2(H1C1H1),SGV
 (C4H4)]\\@


 A CHEMICAL PHYSICIST MAKES PRECISE MEASUREMENTS ON IMPURE COMPOUNDS.
 A THEORETICAL PHYSICAL CHEMIST MAKES IMPRECISE
     MEASUREMENTS ON PURE COMPOUNDS.
 AN EXPERIMENTAL PHYSICAL CHEMIST MAKES IMPRECISE
     MEASUREMENTS ON IMPURE COMPOUNDS.
 Job cpu time:       0 days  0 hours  0 minutes 58.4 seconds.
 Elapsed time:       0 days  0 hours  0 minutes  4.4 seconds.
 File lengths (MBytes):  RWF=    272 Int=      0 D2E=      0 Chk=     32 Scr=     32
 Normal termination of Gaussian 16 at Thu Mar  5 12:52:25 2020.
