 Entering Gaussian System, Link 0=g16
 Input=a1b_tune_c10.gjf
 Output=a1b_tune_c10.log
 Initial command:
 /opt/ohpc/pub/libs/gaussian/g16-A.03/sandybridge/g16/l1.exe "/scratch/smgo234/Ocelot/test/a1b/tuning_a1b_acycle1/Gau-81899.inp" -scrdir="/scratch/smgo234/Ocelot/test/a1b/tuning_a1b_acycle1/"
 Entering Link 1 = /opt/ohpc/pub/libs/gaussian/g16-A.03/sandybridge/g16/l1.exe PID=     81900.
  
 Copyright (c) 1988,1990,1992,1993,1995,1998,2003,2009,2016,
            Gaussian, Inc.  All Rights Reserved.
  
 This is part of the Gaussian(R) 16 program.  It is based on
 the Gaussian(R) 09 system (copyright 2009, Gaussian, Inc.),
 the Gaussian(R) 03 system (copyright 2003, Gaussian, Inc.),
 the Gaussian(R) 98 system (copyright 1998, Gaussian, Inc.),
 the Gaussian(R) 94 system (copyright 1995, Gaussian, Inc.),
 the Gaussian 92(TM) system (copyright 1992, Gaussian, Inc.),
 the Gaussian 90(TM) system (copyright 1990, Gaussian, Inc.),
 the Gaussian 88(TM) system (copyright 1988, Gaussian, Inc.),
 the Gaussian 86(TM) system (copyright 1986, Carnegie Mellon
 University), and the Gaussian 82(TM) system (copyright 1983,
 Carnegie Mellon University). Gaussian is a federally registered
 trademark of Gaussian, Inc.
  
 This software contains proprietary and confidential information,
 including trade secrets, belonging to Gaussian, Inc.
  
 This software is provided under written license and may be
 used, copied, transmitted, or stored only in accord with that
 written license.
  
 The following legend is applicable only to US Government
 contracts under FAR:
  
                    RESTRICTED RIGHTS LEGEND
  
 Use, reproduction and disclosure by the US Government is
 subject to restrictions as set forth in subparagraphs (a)
 and (c) of the Commercial Computer Software - Restricted
 Rights clause in FAR 52.227-19.
  
 Gaussian, Inc.
 340 Quinnipiac St., Bldg. 40, Wallingford CT 06492
  
  
 ---------------------------------------------------------------
 Warning -- This program may not be used in any manner that
 competes with the business of Gaussian, Inc. or will provide
 assistance to any competitor of Gaussian, Inc.  The licensee
 of this program is prohibited from giving any competitor of
 Gaussian, Inc. access to this program.  By using this program,
 the user acknowledges that Gaussian, Inc. is engaged in the
 business of creating and licensing software in the field of
 computational chemistry and represents and warrants to the
 licensee that it is not a competitor of Gaussian, Inc. and that
 it will not use this program in any manner prohibited above.
 ---------------------------------------------------------------
  

 Cite this work as:
 Gaussian 16, Revision A.03,
 M. J. Frisch, G. W. Trucks, H. B. Schlegel, G. E. Scuseria, 
 M. A. Robb, J. R. Cheeseman, G. Scalmani, V. Barone, 
 G. A. Petersson, H. Nakatsuji, X. Li, M. Caricato, A. V. Marenich, 
 J. Bloino, B. G. Janesko, R. Gomperts, B. Mennucci, H. P. Hratchian, 
 J. V. Ortiz, A. F. Izmaylov, J. L. Sonnenberg, D. Williams-Young, 
 F. Ding, F. Lipparini, F. Egidi, J. Goings, B. Peng, A. Petrone, 
 T. Henderson, D. Ranasinghe, V. G. Zakrzewski, J. Gao, N. Rega, 
 G. Zheng, W. Liang, M. Hada, M. Ehara, K. Toyota, R. Fukuda, 
 J. Hasegawa, M. Ishida, T. Nakajima, Y. Honda, O. Kitao, H. Nakai, 
 T. Vreven, K. Throssell, J. A. Montgomery, Jr., J. E. Peralta, 
 F. Ogliaro, M. J. Bearpark, J. J. Heyd, E. N. Brothers, K. N. Kudin, 
 V. N. Staroverov, T. A. Keith, R. Kobayashi, J. Normand, 
 K. Raghavachari, A. P. Rendell, J. C. Burant, S. S. Iyengar, 
 J. Tomasi, M. Cossi, J. M. Millam, M. Klene, C. Adamo, R. Cammi, 
 J. W. Ochterski, R. L. Martin, K. Morokuma, O. Farkas, 
 J. B. Foresman, and D. J. Fox, Gaussian, Inc., Wallingford CT, 2016.
 
 ******************************************
 Gaussian 16:  EM64L-G16RevA.03 25-Dec-2016
                 5-Mar-2020 
 ******************************************
 %mem=50GB
 %nproc=16
 Will use up to   16 processors via shared memory.
 ----------------------------------------------------------------------
 #P uLC-wHPBE/6-31G iop(3/130=0247400000, 3/131=0247400000, 3/119=07526
 00000, 3/120=0752600000) scf=(conver=6,fermi,ndamp=35,noincfock,novara
 cc,vshift=500,xqc)
 ----------------------------------------------------------------------
 1/38=1,172=1/1;
 2/12=2,17=6,18=5,40=1/2;
 3/5=1,6=6,11=2,25=1,30=1,74=-71,116=2,119=752600000,120=752600000,130=247400000,131=247400000/1,2,3;
 4//1;
 5/5=100002,6=6,8=3,10=500,13=1,18=-1,22=13,38=1,93=35/2,8;
 6/7=2,8=2,9=2,10=2,28=1/1;
 99/5=1,9=1/99;
 Leave Link    1 at Thu Mar  5 12:53:07 2020, MaxMem=  6710886400 cpu:              21.9 elap:               1.5
 (Enter /opt/ohpc/pub/libs/gaussian/g16-A.03/sandybridge/g16/l101.exe)
 -----
 H6 C5
 -----
 Symbolic Z-matrix:
 Charge =  1 Multiplicity = 2
 C                     0.        0.8788   -0.93154 
 C                     0.        1.12816   0.42346 
 C                     0.        0.        1.24088 
 C                     0.       -1.12816   0.42346 
 C                     0.       -0.8788   -0.93154 
 H                     0.        0.       -1.73227 
 H                     0.        1.6083   -1.73405 
 H                     0.        2.15663   0.76567 
 H                     0.        0.        2.32078 
 H                     0.       -2.15663   0.76567 
 H                     0.       -1.6083   -1.73405 
 
 ITRead=  0  0  0  0  0  0  0  0  0  0  0
 MicOpt= -1 -1 -1 -1 -1 -1 -1 -1 -1 -1 -1
 NAtoms=     11 NQM=       11 NQMF=       0 NMMI=      0 NMMIF=      0
                NMic=       0 NMicF=      0.
                    Isotopes and Nuclear Properties:
 (Nuclear quadrupole moments (NQMom) in fm**2, nuclear magnetic moments (NMagM)
  in nuclear magnetons)

  Atom         1           2           3           4           5           6           7           8           9          10
 IAtWgt=          12          12          12          12          12           1           1           1           1           1
 AtmWgt=  12.0000000  12.0000000  12.0000000  12.0000000  12.0000000   1.0078250   1.0078250   1.0078250   1.0078250   1.0078250
 NucSpn=           0           0           0           0           0           1           1           1           1           1
 AtZEff=  -0.0000000  -0.0000000  -0.0000000  -0.0000000  -0.0000000  -0.0000000  -0.0000000  -0.0000000  -0.0000000  -0.0000000
 NQMom=    0.0000000   0.0000000   0.0000000   0.0000000   0.0000000   0.0000000   0.0000000   0.0000000   0.0000000   0.0000000
 NMagM=    0.0000000   0.0000000   0.0000000   0.0000000   0.0000000   2.7928460   2.7928460   2.7928460   2.7928460   2.7928460
 AtZNuc=   6.0000000   6.0000000   6.0000000   6.0000000   6.0000000   1.0000000   1.0000000   1.0000000   1.0000000   1.0000000

  Atom        11
 IAtWgt=           1
 AtmWgt=   1.0078250
 NucSpn=           1
 AtZEff=  -0.0000000
 NQMom=    0.0000000
 NMagM=    2.7928460
 AtZNuc=   1.0000000
 Leave Link  101 at Thu Mar  5 12:53:07 2020, MaxMem=  6710886400 cpu:               2.5 elap:               0.2
 (Enter /opt/ohpc/pub/libs/gaussian/g16-A.03/sandybridge/g16/l202.exe)
                          Input orientation:                          
 ---------------------------------------------------------------------
 Center     Atomic      Atomic             Coordinates (Angstroms)
 Number     Number       Type             X           Y           Z
 ---------------------------------------------------------------------
      1          6           0        0.000000    0.878804   -0.931542
      2          6           0        0.000000    1.128157    0.423457
      3          6           0        0.000000    0.000000    1.240879
      4          6           0        0.000000   -1.128157    0.423457
      5          6           0        0.000000   -0.878804   -0.931542
      6          1           0        0.000000    0.000000   -1.732269
      7          1           0        0.000000    1.608300   -1.734053
      8          1           0        0.000000    2.156626    0.765670
      9          1           0        0.000000    0.000000    2.320778
     10          1           0        0.000000   -2.156626    0.765670
     11          1           0        0.000000   -1.608300   -1.734053
 ---------------------------------------------------------------------
                    Distance matrix (angstroms):
                    1          2          3          4          5
     1  C    0.000000
     2  C    1.377752   0.000000
     3  C    2.343440   1.393168   0.000000
     4  C    2.421552   2.256314   1.393168   0.000000
     5  C    1.757608   2.421552   2.343440   1.377752   0.000000
     6  H    1.188890   2.433083   2.973148   2.433083   1.188890
     7  H    1.084522   2.210291   3.381841   3.484687   2.613371
     8  H    2.124466   1.083909   2.208361   3.302561   3.477695
     9  H    3.368959   2.207389   1.079899   2.207389   3.368959
    10  H    3.477695   3.302561   2.208361   1.083909   2.124466
    11  H    2.613371   3.484687   3.381841   2.210291   1.084522
                    6          7          8          9         10
     6  H    0.000000
     7  H    1.608301   0.000000
     8  H    3.300111   2.559155   0.000000
     9  H    4.053047   4.362142   2.658834   0.000000
    10  H    3.300111   4.519213   4.313252   2.658834   0.000000
    11  H    1.608301   3.216600   4.519213   4.362142   2.559155
                   11
    11  H    0.000000
 Stoichiometry    C5H6(1+,2)
 Framework group  C2V[C2(HCH),SGV(C4H4)]
 Deg. of freedom    10
 Full point group                 C2V     NOp   4
 Largest Abelian subgroup         C2V     NOp   4
 Largest concise Abelian subgroup C2      NOp   2
                         Standard orientation:                         
 ---------------------------------------------------------------------
 Center     Atomic      Atomic             Coordinates (Angstroms)
 Number     Number       Type             X           Y           Z
 ---------------------------------------------------------------------
      1          6           0        0.000000    0.878804   -0.931542
      2          6           0        0.000000    1.128157    0.423457
      3          6           0        0.000000   -0.000000    1.240879
      4          6           0       -0.000000   -1.128157    0.423457
      5          6           0       -0.000000   -0.878804   -0.931542
      6          1           0       -0.000000    0.000000   -1.732269
      7          1           0        0.000000    1.608300   -1.734053
      8          1           0        0.000000    2.156626    0.765670
      9          1           0        0.000000   -0.000000    2.320778
     10          1           0       -0.000000   -2.156626    0.765670
     11          1           0       -0.000000   -1.608300   -1.734053
 ---------------------------------------------------------------------
 Rotational constants (GHZ):           8.5259551           7.9375455           4.1106177
 Leave Link  202 at Thu Mar  5 12:53:07 2020, MaxMem=  6710886400 cpu:               0.2 elap:               0.0
 (Enter /opt/ohpc/pub/libs/gaussian/g16-A.03/sandybridge/g16/l301.exe)
 Standard basis: 6-31G (6D, 7F)
 Ernie: Thresh=  0.10000D-02 Tol=  0.10000D-05 Strict=F.
 There are    27 symmetry adapted cartesian basis functions of A1  symmetry.
 There are     4 symmetry adapted cartesian basis functions of A2  symmetry.
 There are     6 symmetry adapted cartesian basis functions of B1  symmetry.
 There are    20 symmetry adapted cartesian basis functions of B2  symmetry.
 There are    27 symmetry adapted basis functions of A1  symmetry.
 There are     4 symmetry adapted basis functions of A2  symmetry.
 There are     6 symmetry adapted basis functions of B1  symmetry.
 There are    20 symmetry adapted basis functions of B2  symmetry.
    57 basis functions,   134 primitive gaussians,    57 cartesian basis functions
    18 alpha electrons       17 beta electrons
       nuclear repulsion energy       156.0127424860 Hartrees.
 IExCor=33909 DFT=T Ex+Corr=LC-wHPBE ExCW=0 ScaHFX=  1.000000
 ScaDFX=  1.000000  1.000000  1.000000  1.000000 ScalE2=  1.000000  1.000000
 IRadAn=      5 IRanWt=     -1 IRanGd=            0 ICorTp=0 IEmpDi=  4
 HFx  wShort=  0.000000 wLong=  0.400000 cFull=  0.000000 cShort=  0.000000 cLong=  0.752600
 DFx  wShort=  0.000000 wLong=  0.400000 cFull=  0.000000 cShort=  1.000000 cLong=  0.752600
 NAtoms=   11 NActive=   11 NUniq=    7 SFac= 2.47D+00 NAtFMM=   60 NAOKFM=F Big=F
 Integral buffers will be    131072 words long.
 Raffenetti 2 integral format.
 Two-electron integral symmetry is turned on.
 Leave Link  301 at Thu Mar  5 12:53:07 2020, MaxMem=  6710886400 cpu:               0.9 elap:               0.1
 (Enter /opt/ohpc/pub/libs/gaussian/g16-A.03/sandybridge/g16/l302.exe)
 NPDir=0 NMtPBC=     1 NCelOv=     1 NCel=       1 NClECP=     1 NCelD=      1
         NCelK=      1 NCelE2=     1 NClLst=     1 CellRange=     0.0.
 One-electron integrals computed using PRISM.
 One-electron integral symmetry used in STVInt
 NBasis=    57 RedAO= T EigKep=  1.84D-03  NBF=    27     4     6    20
 NBsUse=    57 1.00D-06 EigRej= -1.00D+00 NBFU=    27     4     6    20
 Precomputing XC quadrature grid using
 IXCGrd= 4 IRadAn=           5 IRanWt=          -1 IRanGd=           0 AccXCQ= 0.00D+00.
 Generated NRdTot=       0 NPtTot=           0 NUsed=           0 NTot=          32
 NSgBfM=    57    57    57    57    57 MxSgAt=    11 MxSgA2=    11.
 Leave Link  302 at Thu Mar  5 12:53:07 2020, MaxMem=  6710886400 cpu:               2.0 elap:               0.1
 (Enter /opt/ohpc/pub/libs/gaussian/g16-A.03/sandybridge/g16/l303.exe)
 DipDrv:  MaxL=1.
 Leave Link  303 at Thu Mar  5 12:53:07 2020, MaxMem=  6710886400 cpu:               0.3 elap:               0.0
 (Enter /opt/ohpc/pub/libs/gaussian/g16-A.03/sandybridge/g16/l401.exe)
 ExpMin= 1.61D-01 ExpMax= 3.05D+03 ExpMxC= 4.57D+02 IAcc=3 IRadAn=         5 AccDes= 0.00D+00
 Harris functional with IExCor=33909 and IRadAn=       5 diagonalized for initial guess.
 HarFok:  IExCor=33909 AccDes= 0.00D+00 IRadAn=         5 IDoV= 1 UseB2=F ITyADJ=14
 ICtDFT=  3500011 ScaDFX=  1.000000  1.000000  1.000000  1.000000
 FoFCou: FMM=F IPFlag=           0 FMFlag=      100000 FMFlg1=           0
         NFxFlg=           0 DoJE=T BraDBF=F KetDBF=T FulRan=T
         wScrn=  0.000000 ICntrl=       500 IOpCl=  0 I1Cent=   200000004 NGrid=           0
         NMat0=    1 NMatS0=      1 NMatT0=    0 NMatD0=    1 NMtDS0=    0 NMtDT0=    0
 Petite list used in FoFCou.
 Harris En= -191.798273855158    
 JPrj=0 DoOrth=F DoCkMO=F.
 Initial guess orbital symmetries:
 Alpha Orbitals:
       Occupied  (A1) (B2) (A1) (B2) (A1) (A1) (A1) (B2) (A1) (B2)
                 (A1) (B2) (A1) (B2) (A1) (B1) (A2) (B1)
       Virtual   (A2) (B2) (B1) (A1) (A1) (B2) (A1) (B2) (A1) (B2)
                 (A1) (B2) (A1) (B2) (B1) (A1) (A2) (B1) (B2) (A1)
                 (A1) (A2) (B1) (B2) (B2) (A1) (B2) (A1) (A1) (B2)
                 (A1) (A1) (A1) (B2) (A1) (B2) (A1) (A1) (B2)
 Beta  Orbitals:
       Occupied  (A1) (B2) (A1) (B2) (A1) (A1) (A1) (B2) (A1) (B2)
                 (A1) (B2) (A1) (B2) (A1) (B1) (A2)
       Virtual   (B1) (A2) (B2) (B1) (A1) (A1) (B2) (A1) (B2) (A1)
                 (B2) (A1) (B2) (A1) (B2) (B1) (A1) (A2) (B1) (B2)
                 (A1) (A1) (A2) (B1) (B2) (B2) (A1) (B2) (A1) (A1)
                 (B2) (A1) (A1) (A1) (B2) (A1) (B2) (A1) (A1) (B2)
 The electronic state of the initial guess is 2-B1.
 Initial guess <Sx>= 0.0000 <Sy>= 0.0000 <Sz>= 0.5000 <S**2>= 0.7500 S= 0.5000
 Leave Link  401 at Thu Mar  5 12:53:07 2020, MaxMem=  6710886400 cpu:               3.0 elap:               0.2
 (Enter /opt/ohpc/pub/libs/gaussian/g16-A.03/sandybridge/g16/l502.exe)
 Keep R1 and R2 ints in memory in symmetry-blocked form, NReq=16815681.
 FoFCou: FMM=F IPFlag=           0 FMFlag=           0 FMFlg1=           0
         NFxFlg=           0 DoJE=F BraDBF=F KetDBF=F FulRan=T
         wScrn=  0.000000 ICntrl=       600 IOpCl=  0 I1Cent=           0 NGrid=           0
         NMat0=    1 NMatS0=   1653 NMatT0=    0 NMatD0=    1 NMtDS0=    0 NMtDT0=    0
 Petite list used in FoFCou.
 UHF open shell SCF:
 Using DIIS extrapolation, IDIIS=    10.
 NGot=  6710886400 LenX=  6710059561 LenY=  6710055871
 Requested convergence on RMS density matrix=1.00D-06 within  32 cycles.
 Requested convergence on MAX density matrix=1.00D-04.
 Requested convergence on             energy=1.00D-04.
 Virtual orbitals will be shifted by   0.500 hartree.
 No special actions if energy rises.
 Dynamic level shift is on during FON iterations.

 Cycle   1  Pass 1  IDiag  1:
 E= -196.853049402707    
 DIIS: error= 4.84D-02 at cycle   1 NSaved=   1.
 NSaved= 1 IEnMin= 1 EnMin= -196.853049402707     IErMin= 1 ErrMin= 4.84D-02
 ErrMax= 4.84D-02  0.00D+00 EMaxC= 1.00D+00 BMatC= 1.95D-01 BMatP= 1.95D-01
 IDIUse=1 WtCom= 1.00D+00 WtEn= 0.00D+00
 Coeff-Com:  0.100D+01
 Coeff:      0.100D+01
 Gap=     0.325 Goal=   None    Shift=    0.500
 T= 1783. Gap= 0.799 NK=0 IS=   19 IE=   57 IFin=   18
          NO(<0.9)=   0  NV(>0.1)=   0     18.00e < EF      0.00e >EF  Err=0.0D+00
 Gap=     0.202 Goal=   None    Shift=    0.500
 T= 1783. Gap= 0.705 NK=0 IS=   18 IE=   57 IFin=   17
          NO(<0.9)=   0  NV(>0.1)=   0     17.00e < EF      0.00e >EF  Err=0.0D+00
 GapD=    0.202 DampG=1.000 DampE=0.500 DampFc=0.5000 IDamp=-1.
 Damping current iteration by 5.00D-01
 RMSDP=6.98D-03 MaxDP=5.29D-02              OVMax= 1.06D-01

 Cycle   2  Pass 1  IDiag  1:
 E= -196.890849782952     Delta-E=       -0.037800380245 Rises=F Damp=T
 DIIS: error= 2.27D-02 at cycle   2 NSaved=   2.
 NSaved= 2 IEnMin= 2 EnMin= -196.890849782952     IErMin= 2 ErrMin= 2.27D-02
 ErrMax= 2.27D-02  0.00D+00 EMaxC= 1.00D+00 BMatC= 3.29D-02 BMatP= 1.95D-01
 IDIUse=1 WtCom= 1.00D+00 WtEn= 0.00D+00
 Coeff-Com: -0.522D+00 0.152D+01
 Coeff:     -0.522D+00 0.152D+01
 Gap=     0.396 Goal=   None    Shift=    0.500
 T= 1666. Gap= 0.881 NK=4 IS=   19 IE=   23 IFin=   18
          NO(<0.9)=   0  NV(>0.1)=   0     18.00e < EF      0.00e >EF  Err=0.0D+00
 Gap=     0.230 Goal=   None    Shift=    0.500
 T= 1666. Gap= 0.729 NK=4 IS=   18 IE=   23 IFin=   17
          NO(<0.9)=   0  NV(>0.1)=   0     17.00e < EF      0.00e >EF  Err=0.0D+00
 GapD=    0.230 DampG=1.000 DampE=0.500 DampFc=0.5000 IDamp=-1.
 Damping current iteration by 5.00D-01
 RMSDP=4.18D-03 MaxDP=3.23D-02 DE=-3.78D-02 OVMax= 1.71D-02

 Cycle   3  Pass 1  IDiag  1:
 E= -196.904007955492     Delta-E=       -0.013158172540 Rises=F Damp=T
 DIIS: error= 1.28D-02 at cycle   3 NSaved=   3.
 NSaved= 3 IEnMin= 3 EnMin= -196.904007955492     IErMin= 3 ErrMin= 1.28D-02
 ErrMax= 1.28D-02  0.00D+00 EMaxC= 1.00D+00 BMatC= 7.51D-03 BMatP= 3.29D-02
 IDIUse=1 WtCom= 1.00D+00 WtEn= 0.00D+00
 Coeff-Com:  0.318D+00-0.177D+01 0.245D+01
 Coeff:      0.318D+00-0.177D+01 0.245D+01
 Gap=     0.385 Goal=   None    Shift=    0.500
 T= 1453. Gap= 0.885 NK=0 IS=   19 IE=   57 IFin=   18
          NO(<0.9)=   0  NV(>0.1)=   0     18.00e < EF      0.00e >EF  Err=0.0D+00
 Gap=     0.235 Goal=   None    Shift=    0.500
 T= 1453. Gap= 0.735 NK=0 IS=   18 IE=   57 IFin=   17
          NO(<0.9)=   0  NV(>0.1)=   0     17.00e < EF      0.00e >EF  Err=0.0D+00
 GapD=    0.235 DampG=1.000 DampE=0.500 DampFc=0.5000 IDamp=-1.
 Damping current iteration by 5.00D-01
 RMSDP=2.29D-03 MaxDP=1.86D-02 DE=-1.32D-02 OVMax= 1.55D-02

 Cycle   4  Pass 1  IDiag  1:
 E= -196.910223824000     Delta-E=       -0.006215868508 Rises=F Damp=T
 DIIS: error= 8.08D-03 at cycle   4 NSaved=   4.
 NSaved= 4 IEnMin= 4 EnMin= -196.910223824000     IErMin= 4 ErrMin= 8.08D-03
 ErrMax= 8.08D-03  0.00D+00 EMaxC= 1.00D+00 BMatC= 2.62D-03 BMatP= 7.51D-03
 IDIUse=1 WtCom= 1.00D+00 WtEn= 0.00D+00
 Coeff-Com:  0.292D-01 0.672D+00-0.343D+01 0.373D+01
 Coeff:      0.292D-01 0.672D+00-0.343D+01 0.373D+01
 Gap=     0.389 Goal=   None    Shift=    0.500
 T= 1060. Gap= 0.889 NK=0 IS=   19 IE=   57 IFin=   18
          NO(<0.9)=   0  NV(>0.1)=   0     18.00e < EF      0.00e >EF  Err=0.0D+00
 Gap=     0.239 Goal=   None    Shift=    0.500
 T= 1060. Gap= 0.740 NK=0 IS=   18 IE=   57 IFin=   17
          NO(<0.9)=   0  NV(>0.1)=   0     17.00e < EF      0.00e >EF  Err=0.0D+00
 GapD=    0.239 DampG=1.000 DampE=1.000 DampFc=1.0000 IDamp=-1.
 RMSDP=1.45D-03 MaxDP=1.52D-02 DE=-6.22D-03 OVMax= 1.45D-02

 Cycle   5  Pass 1  IDiag  1:
 E= -196.917473042576     Delta-E=       -0.007249218576 Rises=F Damp=F
 DIIS: error= 3.83D-03 at cycle   5 NSaved=   5.
 NSaved= 5 IEnMin= 5 EnMin= -196.917473042576     IErMin= 5 ErrMin= 3.83D-03
 ErrMax= 3.83D-03  0.00D+00 EMaxC= 1.00D+00 BMatC= 4.32D-04 BMatP= 2.62D-03
 IDIUse=1 WtCom= 1.00D+00 WtEn= 0.00D+00
 Coeff-Com: -0.175D+00 0.901D+00-0.804D+00-0.808D+00 0.189D+01
 Coeff:     -0.175D+00 0.901D+00-0.804D+00-0.808D+00 0.189D+01
 Gap=     0.392 Goal=   None    Shift=    0.500
 T=  719. Gap= 0.892 NK=0 IS=   19 IE=   57 IFin=   18
          NO(<0.9)=   0  NV(>0.1)=   0     18.00e < EF      0.00e >EF  Err=0.0D+00
 Gap=     0.243 Goal=   None    Shift=    0.500
 T=  719. Gap= 0.743 NK=0 IS=   18 IE=   57 IFin=   17
          NO(<0.9)=   0  NV(>0.1)=   0     17.00e < EF      0.00e >EF  Err=0.0D+00
 GapD=    0.243 DampG=1.000 DampE=1.000 DampFc=1.0000 IDamp=-1.
 RMSDP=4.27D-04 MaxDP=6.83D-03 DE=-7.25D-03 OVMax= 1.43D-02

 Cycle   6  Pass 1  IDiag  1:
 E= -196.918086154736     Delta-E=       -0.000613112160 Rises=F Damp=F
 DIIS: error= 3.06D-03 at cycle   6 NSaved=   6.
 NSaved= 6 IEnMin= 6 EnMin= -196.918086154736     IErMin= 6 ErrMin= 3.06D-03
 ErrMax= 3.06D-03  0.00D+00 EMaxC= 1.00D+00 BMatC= 1.99D-04 BMatP= 4.32D-04
 IDIUse=1 WtCom= 1.00D+00 WtEn= 0.00D+00
 Coeff-Com: -0.686D-02-0.224D+00 0.760D+00-0.565D+00-0.163D+01 0.266D+01
 Coeff:     -0.686D-02-0.224D+00 0.760D+00-0.565D+00-0.163D+01 0.266D+01
 Gap=     0.394 Goal=   None    Shift=    0.500
 T=  420. Gap= 0.895 NK=0 IS=   19 IE=   57 IFin=   18
          NO(<0.9)=   0  NV(>0.1)=   0     18.00e < EF      0.00e >EF  Err=0.0D+00
 Gap=     0.245 Goal=   None    Shift=    0.500
 T=  420. Gap= 0.746 NK=0 IS=   18 IE=   57 IFin=   17
          NO(<0.9)=   0  NV(>0.1)=   0     17.00e < EF      0.00e >EF  Err=0.0D+00
 GapD=    0.245 DampG=1.000 DampE=1.000 DampFc=1.0000 IDamp=-1.
 RMSDP=3.41D-04 MaxDP=5.58D-03 DE=-6.13D-04 OVMax= 1.31D-02

 Cycle   7  Pass 1  IDiag  1:
 E= -196.918439228695     Delta-E=       -0.000353073959 Rises=F Damp=F
 DIIS: error= 2.27D-03 at cycle   7 NSaved=   7.
 NSaved= 7 IEnMin= 7 EnMin= -196.918439228695     IErMin= 7 ErrMin= 2.27D-03
 ErrMax= 2.27D-03  0.00D+00 EMaxC= 1.00D+00 BMatC= 9.11D-05 BMatP= 1.99D-04
 IDIUse=1 WtCom= 1.00D+00 WtEn= 0.00D+00
 Coeff-Com:  0.193D-01-0.105D+00-0.757D-02 0.300D+00-0.485D+00-0.865D+00
 Coeff-Com:  0.214D+01
 Coeff:      0.193D-01-0.105D+00-0.757D-02 0.300D+00-0.485D+00-0.865D+00
 Coeff:      0.214D+01
 Gap=     0.395 Goal=   None    Shift=    0.500
 T=  125. Gap= 0.895 NK=0 IS=   19 IE=   57 IFin=   18
          NO(<0.9)=   0  NV(>0.1)=   0     18.00e < EF      0.00e >EF  Err=0.0D+00
 Gap=     0.247 Goal=   None    Shift=    0.500
 T=  125. Gap= 0.747 NK=0 IS=   18 IE=   57 IFin=   17
          NO(<0.9)=   0  NV(>0.1)=   0     17.00e < EF      0.00e >EF  Err=0.0D+00
 GapD=    0.247 DampG=1.000 DampE=1.000 DampFc=1.0000 IDamp=-1.
 RMSDP=2.33D-04 MaxDP=3.42D-03 DE=-3.53D-04 OVMax= 9.77D-03

 Cycle   8  Pass 1  IDiag  1:
 E= -196.918600902712     Delta-E=       -0.000161674017 Rises=F Damp=F
 DIIS: error= 1.66D-03 at cycle   8 NSaved=   8.
 NSaved= 8 IEnMin= 8 EnMin= -196.918600902712     IErMin= 8 ErrMin= 1.66D-03
 ErrMax= 1.66D-03  0.00D+00 EMaxC= 1.00D+00 BMatC= 4.54D-05 BMatP= 9.11D-05
 IDIUse=1 WtCom= 1.00D+00 WtEn= 0.00D+00
 Coeff-Com: -0.405D-02 0.227D+00-0.717D+00 0.541D+00 0.125D+01-0.261D+01
 Coeff-Com: -0.152D+00 0.246D+01
 Coeff:     -0.405D-02 0.227D+00-0.717D+00 0.541D+00 0.125D+01-0.261D+01
 Coeff:     -0.152D+00 0.246D+01
 Gap=     0.396 Goal=   None    Shift=    0.500
 Gap=     0.247 Goal=   None    Shift=    0.500
 GapD=    0.247 DampG=1.000 DampE=1.000 DampFc=1.0000 IDamp=-1.
 RMSDP=1.92D-04 MaxDP=2.78D-03 DE=-1.62D-04 OVMax= 8.57D-03

 Cycle   9  Pass 1  IDiag  1:
 E= -196.918689323147     Delta-E=       -0.000088420435 Rises=F Damp=F
 DIIS: error= 1.14D-03 at cycle   9 NSaved=   9.
 NSaved= 9 IEnMin= 9 EnMin= -196.918689323147     IErMin= 9 ErrMin= 1.14D-03
 ErrMax= 1.14D-03  0.00D+00 EMaxC= 1.00D+00 BMatC= 2.03D-05 BMatP= 4.54D-05
 IDIUse=1 WtCom= 1.00D+00 WtEn= 0.00D+00
 Coeff-Com: -0.788D-02-0.932D-01 0.486D+00-0.538D+00-0.424D+00 0.191D+01
 Coeff-Com: -0.953D+00-0.352D+01 0.414D+01
 Coeff:     -0.788D-02-0.932D-01 0.486D+00-0.538D+00-0.424D+00 0.191D+01
 Coeff:     -0.953D+00-0.352D+01 0.414D+01
 Gap=     0.396 Goal=   None    Shift=    0.500
 Gap=     0.248 Goal=   None    Shift=    0.500
 GapD=    0.248 DampG=1.000 DampE=1.000 DampFc=1.0000 IDamp=-1.
 RMSDP=1.50D-04 MaxDP=2.27D-03 DE=-8.84D-05 OVMax= 7.19D-03

 Cycle  10  Pass 1  IDiag  1:
 E= -196.918733578501     Delta-E=       -0.000044255354 Rises=F Damp=F
 DIIS: error= 7.00D-04 at cycle  10 NSaved=  10.
 NSaved=10 IEnMin=10 EnMin= -196.918733578501     IErMin=10 ErrMin= 7.00D-04
 ErrMax= 7.00D-04  0.00D+00 EMaxC= 1.00D+00 BMatC= 8.01D-06 BMatP= 2.03D-05
 IDIUse=1 WtCom= 1.00D+00 WtEn= 0.00D+00
 Coeff-Com:  0.275D-02 0.622D-03-0.299D-01 0.394D-01 0.201D-01-0.136D+00
 Coeff-Com:  0.234D+00 0.132D+00-0.188D+01 0.261D+01
 Coeff:      0.275D-02 0.622D-03-0.299D-01 0.394D-01 0.201D-01-0.136D+00
 Coeff:      0.234D+00 0.132D+00-0.188D+01 0.261D+01
 Gap=     0.396 Goal=   None    Shift=    0.500
 Gap=     0.248 Goal=   None    Shift=    0.500
 RMSDP=8.89D-05 MaxDP=1.38D-03 DE=-4.43D-05 OVMax= 4.45D-03

 Cycle  11  Pass 1  IDiag  1:
 E= -196.918749930461     Delta-E=       -0.000016351960 Rises=F Damp=F
 DIIS: error= 4.33D-04 at cycle  11 NSaved=  11.
 NSaved=11 IEnMin=11 EnMin= -196.918749930461     IErMin=11 ErrMin= 4.33D-04
 ErrMax= 4.33D-04  0.00D+00 EMaxC= 1.00D+00 BMatC= 3.36D-06 BMatP= 8.01D-06
 IDIUse=1 WtCom= 1.00D+00 WtEn= 0.00D+00
 Coeff-Com: -0.232D-02-0.265D-02 0.574D-01-0.865D-01 0.286D-01 0.203D+00
 Coeff-Com: -0.323D+00-0.488D+00 0.260D+01-0.565D+01 0.467D+01
 Coeff:     -0.232D-02-0.265D-02 0.574D-01-0.865D-01 0.286D-01 0.203D+00
 Coeff:     -0.323D+00-0.488D+00 0.260D+01-0.565D+01 0.467D+01
 Gap=     0.396 Goal=   None    Shift=    0.500
 Gap=     0.248 Goal=   None    Shift=    0.500
 RMSDP=5.89D-05 MaxDP=8.73D-04 DE=-1.64D-05 OVMax= 3.01D-03

 Cycle  12  Pass 1  IDiag  1:
 E= -196.918756705483     Delta-E=       -0.000006775022 Rises=F Damp=F
 DIIS: error= 2.56D-04 at cycle  12 NSaved=  12.
 NSaved=12 IEnMin=12 EnMin= -196.918756705483     IErMin=12 ErrMin= 2.56D-04
 ErrMax= 2.56D-04  0.00D+00 EMaxC= 1.00D+00 BMatC= 1.24D-06 BMatP= 3.36D-06
 IDIUse=1 WtCom= 1.00D+00 WtEn= 0.00D+00
 Coeff-Com: -0.106D-02-0.162D-01 0.811D-01-0.893D-01-0.634D-01 0.290D+00
 Coeff-Com: -0.781D-01-0.639D+00 0.655D+00 0.455D+00-0.246D+01 0.286D+01
 Coeff:     -0.106D-02-0.162D-01 0.811D-01-0.893D-01-0.634D-01 0.290D+00
 Coeff:     -0.781D-01-0.639D+00 0.655D+00 0.455D+00-0.246D+01 0.286D+01
 Gap=     0.396 Goal=   None    Shift=    0.500
 Gap=     0.248 Goal=   None    Shift=    0.500
 RMSDP=3.55D-05 MaxDP=5.15D-04 DE=-6.78D-06 OVMax= 1.82D-03

 Cycle  13  Pass 1  IDiag  1:
 E= -196.918759154884     Delta-E=       -0.000002449401 Rises=F Damp=F
 DIIS: error= 1.50D-04 at cycle  13 NSaved=  13.
 NSaved=13 IEnMin=13 EnMin= -196.918759154884     IErMin=13 ErrMin= 1.50D-04
 ErrMax= 1.50D-04  0.00D+00 EMaxC= 1.00D+00 BMatC= 4.45D-07 BMatP= 1.24D-06
 IDIUse=1 WtCom= 1.00D+00 WtEn= 0.00D+00
 Coeff-Com:  0.758D-03 0.604D-02-0.294D-01 0.297D-01 0.414D-01-0.113D+00
 Coeff-Com: -0.116D-01 0.254D+00 0.135D-02-0.108D+01 0.265D+01-0.483D+01
 Coeff-Com:  0.408D+01
 Coeff:      0.758D-03 0.604D-02-0.294D-01 0.297D-01 0.414D-01-0.113D+00
 Coeff:     -0.116D-01 0.254D+00 0.135D-02-0.108D+01 0.265D+01-0.483D+01
 Coeff:      0.408D+01
 Gap=     0.396 Goal=   None    Shift=    0.500
 Gap=     0.248 Goal=   None    Shift=    0.500
 RMSDP=2.18D-05 MaxDP=3.21D-04 DE=-2.45D-06 OVMax= 1.13D-03

 Cycle  14  Pass 1  IDiag  1:
 E= -196.918760041005     Delta-E=       -0.000000886121 Rises=F Damp=F
 DIIS: error= 8.45D-05 at cycle  14 NSaved=  14.
 NSaved=14 IEnMin=14 EnMin= -196.918760041005     IErMin=14 ErrMin= 8.45D-05
 ErrMax= 8.45D-05  0.00D+00 EMaxC= 1.00D+00 BMatC= 1.62D-07 BMatP= 4.45D-07
 IDIUse=1 WtCom= 1.00D+00 WtEn= 0.00D+00
 Coeff-Com: -0.259D-03-0.285D-02 0.189D-01-0.242D-01-0.447D-02 0.531D-01
 Coeff-Com: -0.146D-01-0.152D+00 0.345D+00-0.480D+00-0.272D-01 0.145D+01
 Coeff-Com: -0.344D+01 0.329D+01
 Coeff:     -0.259D-03-0.285D-02 0.189D-01-0.242D-01-0.447D-02 0.531D-01
 Coeff:     -0.146D-01-0.152D+00 0.345D+00-0.480D+00-0.272D-01 0.145D+01
 Coeff:     -0.344D+01 0.329D+01
 Gap=     0.396 Goal=   None    Shift=    0.500
 Gap=     0.248 Goal=   None    Shift=    0.500
 RMSDP=1.29D-05 MaxDP=1.90D-04 DE=-8.86D-07 OVMax= 6.75D-04

 Cycle  15  Pass 1  IDiag  1:
 E= -196.918760348289     Delta-E=       -0.000000307284 Rises=F Damp=F
 DIIS: error= 4.71D-05 at cycle  15 NSaved=  15.
 NSaved=15 IEnMin=15 EnMin= -196.918760348289     IErMin=15 ErrMin= 4.71D-05
 ErrMax= 4.71D-05  0.00D+00 EMaxC= 1.00D+00 BMatC= 5.62D-08 BMatP= 1.62D-07
 IDIUse=1 WtCom= 1.00D+00 WtEn= 0.00D+00
 Coeff-Com:  0.181D-03 0.785D-03-0.731D-02 0.102D-01 0.319D-03-0.195D-01
 Coeff-Com:  0.101D-01 0.643D-01-0.165D+00 0.263D+00-0.918D-01-0.794D+00
 Coeff-Com:  0.245D+01-0.463D+01 0.391D+01
 Coeff:      0.181D-03 0.785D-03-0.731D-02 0.102D-01 0.319D-03-0.195D-01
 Coeff:      0.101D-01 0.643D-01-0.165D+00 0.263D+00-0.918D-01-0.794D+00
 Coeff:      0.245D+01-0.463D+01 0.391D+01
 Gap=     0.396 Goal=   None    Shift=    0.500
 Gap=     0.248 Goal=   None    Shift=    0.500
 RMSDP=7.43D-06 MaxDP=1.07D-04 DE=-3.07D-07 OVMax= 3.92D-04

 Cycle  16  Pass 1  IDiag  1:
 E= -196.918760449717     Delta-E=       -0.000000101428 Rises=F Damp=F
 DIIS: error= 2.56D-05 at cycle  16 NSaved=  16.
 NSaved=16 IEnMin=16 EnMin= -196.918760449717     IErMin=16 ErrMin= 2.56D-05
 ErrMax= 2.56D-05  0.00D+00 EMaxC= 1.00D+00 BMatC= 1.97D-08 BMatP= 5.62D-08
 IDIUse=1 WtCom= 1.00D+00 WtEn= 0.00D+00
 Coeff-Com:  0.208D-04 0.559D-03-0.720D-03-0.833D-03 0.733D-02-0.137D-01
 Coeff-Com:  0.577D-02 0.849D-02 0.463D-01-0.195D+00 0.304D+00-0.282D+00
 Coeff-Com: -0.240D+00 0.158D+01-0.364D+01 0.341D+01
 Coeff:      0.208D-04 0.559D-03-0.720D-03-0.833D-03 0.733D-02-0.137D-01
 Coeff:      0.577D-02 0.849D-02 0.463D-01-0.195D+00 0.304D+00-0.282D+00
 Coeff:     -0.240D+00 0.158D+01-0.364D+01 0.341D+01
 Gap=     0.396 Goal=   None    Shift=    0.500
 Gap=     0.248 Goal=   None    Shift=    0.500
 RMSDP=4.17D-06 MaxDP=5.85D-05 DE=-1.01D-07 OVMax= 2.21D-04

 Cycle  17  Pass 1  IDiag  1:
 E= -196.918760482166     Delta-E=       -0.000000032449 Rises=F Damp=F
 DIIS: error= 1.37D-05 at cycle  17 NSaved=  17.
 NSaved=17 IEnMin=17 EnMin= -196.918760482166     IErMin=17 ErrMin= 1.37D-05
 ErrMax= 1.37D-05  0.00D+00 EMaxC= 1.00D+00 BMatC= 6.78D-09 BMatP= 1.97D-08
 IDIUse=1 WtCom= 1.00D+00 WtEn= 0.00D+00
 Coeff-Com:  0.435D-04-0.293D-03 0.135D-04 0.897D-03-0.311D-02 0.336D-02
 Coeff-Com:  0.201D-02-0.258D-03-0.280D-01 0.876D-01-0.120D+00 0.529D-01
 Coeff-Com:  0.265D+00-0.110D+01 0.262D+01-0.469D+01 0.392D+01
 Coeff:      0.435D-04-0.293D-03 0.135D-04 0.897D-03-0.311D-02 0.336D-02
 Coeff:      0.201D-02-0.258D-03-0.280D-01 0.876D-01-0.120D+00 0.529D-01
 Coeff:      0.265D+00-0.110D+01 0.262D+01-0.469D+01 0.392D+01
 Gap=     0.396 Goal=   None    Shift=    0.500
 Gap=     0.248 Goal=   None    Shift=    0.500
 RMSDP=2.27D-06 MaxDP=3.09D-05 DE=-3.24D-08 OVMax= 1.21D-04

 Cycle  18  Pass 1  IDiag  1:
 E= -196.918760492249     Delta-E=       -0.000000010083 Rises=F Damp=F
 DIIS: error= 7.38D-06 at cycle  18 NSaved=  18.
 NSaved=18 IEnMin=18 EnMin= -196.918760492249     IErMin=18 ErrMin= 7.38D-06
 ErrMax= 7.38D-06  0.00D+00 EMaxC= 1.00D+00 BMatC= 2.26D-09 BMatP= 6.78D-09
 IDIUse=1 WtCom= 1.00D+00 WtEn= 0.00D+00
 Coeff-Com:  0.240D-04 0.291D-03-0.152D-02 0.170D-02 0.179D-02-0.740D-02
 Coeff-Com:  0.427D-02 0.116D-01-0.189D-01 0.799D-02 0.336D-01-0.123D+00
 Coeff-Com:  0.220D+00-0.213D+00-0.217D+00 0.143D+01-0.357D+01 0.344D+01
 Coeff:      0.240D-04 0.291D-03-0.152D-02 0.170D-02 0.179D-02-0.740D-02
 Coeff:      0.427D-02 0.116D-01-0.189D-01 0.799D-02 0.336D-01-0.123D+00
 Coeff:      0.220D+00-0.213D+00-0.217D+00 0.143D+01-0.357D+01 0.344D+01
 Gap=     0.396 Goal=   None    Shift=    0.500
 Gap=     0.248 Goal=   None    Shift=    0.500
 RMSDP=1.21D-06 MaxDP=1.64D-05 DE=-1.01D-08 OVMax= 6.45D-05

 Cycle  19  Pass 1  IDiag  1:
 E= -196.918760495340     Delta-E=       -0.000000003091 Rises=F Damp=F
 DIIS: error= 4.13D-06 at cycle  19 NSaved=  19.
 NSaved=19 IEnMin=19 EnMin= -196.918760495340     IErMin=19 ErrMin= 4.13D-06
 ErrMax= 4.13D-06  0.00D+00 EMaxC= 1.00D+00 BMatC= 7.34D-10 BMatP= 2.26D-09
 IDIUse=1 WtCom= 1.00D+00 WtEn= 0.00D+00
 Coeff-Com:  0.443D-05 0.927D-04-0.314D-03 0.250D-03 0.636D-03-0.225D-02
 Coeff-Com:  0.195D-02 0.216D-02-0.384D-02 0.213D-04 0.624D-02-0.907D-02
 Coeff-Com: -0.388D-02 0.409D-01-0.373D-01-0.323D+00 0.126D+01-0.302D+01
 Coeff-Com:  0.308D+01
 Coeff:      0.443D-05 0.927D-04-0.314D-03 0.250D-03 0.636D-03-0.225D-02
 Coeff:      0.195D-02 0.216D-02-0.384D-02 0.213D-04 0.624D-02-0.907D-02
 Coeff:     -0.388D-02 0.409D-01-0.373D-01-0.323D+00 0.126D+01-0.302D+01
 Coeff:      0.308D+01
 Gap=     0.396 Goal=   None    Shift=    0.500
 Gap=     0.248 Goal=   None    Shift=    0.500
 RMSDP=6.47D-07 MaxDP=8.91D-06 DE=-3.09D-09 OVMax= 3.46D-05

 SCF Done:  E(ULC-wHPBE) =  -196.918760495     A.U. after   19 cycles
            NFock= 19  Conv=0.65D-06     -V/T= 2.0207
 <Sx>= 0.0000 <Sy>= 0.0000 <Sz>= 0.5000 <S**2>= 0.8148 S= 0.5319
 <L.S>= 0.000000000000E+00
 KE= 1.929255180377D+02 PE=-7.526174296985D+02 EE= 2.067604086795D+02
 Annihilation of the first spin contaminant:
 S**2 before annihilation     0.8148,   after     0.7524
 Leave Link  502 at Thu Mar  5 12:53:10 2020, MaxMem=  6710886400 cpu:              46.5 elap:               3.0
 (Enter /opt/ohpc/pub/libs/gaussian/g16-A.03/sandybridge/g16/l508.exe)
 QCSCF skips out because SCF is already converged.
 Leave Link  508 at Thu Mar  5 12:53:11 2020, MaxMem=  6710886400 cpu:               0.0 elap:               0.0
 (Enter /opt/ohpc/pub/libs/gaussian/g16-A.03/sandybridge/g16/l601.exe)
 Copying SCF densities to generalized density rwf, IOpCl= 1 IROHF=0.

 **********************************************************************

            Population analysis using the SCF density.

 **********************************************************************

 Orbital symmetries:
 Alpha Orbitals:
       Occupied  (B2) (A1) (A1) (B2) (A1) (A1) (A1) (B2) (A1) (B2)
                 (A1) (B2) (A1) (A1) (B1) (B2) (A2) (B1)
       Virtual   (A2) (B2) (B1) (A1) (A1) (B2) (A1) (A1) (B2) (A1)
                 (B2) (A1) (B2) (B1) (B2) (B1) (A2) (A1) (A1) (B2)
                 (A1) (A2) (B1) (B2) (B2) (A1) (A1) (A1) (B2) (A1)
                 (B2) (A1) (A1) (B2) (A1) (B2) (A1) (A1) (B2)
 Beta  Orbitals:
       Occupied  (B2) (A1) (B2) (A1) (A1) (A1) (A1) (B2) (A1) (B2)
                 (A1) (B2) (A1) (A1) (B2) (B1) (A2)
       Virtual   (B1) (B2) (A2) (A1) (B1) (A1) (B2) (A1) (B2) (A1)
                 (A1) (B2) (A1) (B2) (B2) (B1) (A2) (A1) (B1) (A1)
                 (B2) (A1) (A2) (B1) (B2) (B2) (A1) (A1) (B2) (A1)
                 (B2) (A1) (A1) (A1) (B2) (A1) (B2) (A1) (A1) (B2)
 The electronic state is 2-B1.
 Alpha  occ. eigenvalues --  -10.45323 -10.45320 -10.40316 -10.39452 -10.39451
 Alpha  occ. eigenvalues --   -1.31987  -1.19062  -1.14125  -1.00350  -0.98052
 Alpha  occ. eigenvalues --   -0.93360  -0.83509  -0.81316  -0.80170  -0.79025
 Alpha  occ. eigenvalues --   -0.77822  -0.64211  -0.63194
 Alpha virt. eigenvalues --   -0.23597  -0.23089  -0.16680  -0.16026  -0.09456
 Alpha virt. eigenvalues --   -0.04698  -0.02723  -0.00300  -0.00290   0.10449
 Alpha virt. eigenvalues --    0.10785   0.21005   0.21382   0.29542   0.30468
 Alpha virt. eigenvalues --    0.37217   0.37771   0.38580   0.40532   0.41355
 Alpha virt. eigenvalues --    0.41706   0.45141   0.46623   0.54396   0.61125
 Alpha virt. eigenvalues --    0.63429   0.64526   0.67079   0.67140   0.73208
 Alpha virt. eigenvalues --    0.73353   0.77662   0.81895   0.88517   0.96586
 Alpha virt. eigenvalues --    0.97541   1.03426   1.24871   1.26400
  Beta  occ. eigenvalues --  -10.44705 -10.44700 -10.39779 -10.39779 -10.39343
  Beta  occ. eigenvalues --   -1.30682  -1.17126  -1.13893  -0.99251  -0.97308
  Beta  occ. eigenvalues --   -0.93111  -0.83233  -0.81051  -0.79607  -0.77676
  Beta  occ. eigenvalues --   -0.74456  -0.62830
  Beta virt. eigenvalues --   -0.38051  -0.21555  -0.20550  -0.15798  -0.13163
  Beta virt. eigenvalues --   -0.09041  -0.04432  -0.02521  -0.00357   0.00355
  Beta virt. eigenvalues --    0.10939   0.11120   0.21421   0.21747   0.30878
  Beta virt. eigenvalues --    0.31965   0.38872   0.39147   0.40169   0.40907
  Beta virt. eigenvalues --    0.41734   0.42852   0.45709   0.48291   0.54963
  Beta virt. eigenvalues --    0.61560   0.64333   0.65001   0.67028   0.67539
  Beta virt. eigenvalues --    0.73647   0.73895   0.78484   0.82696   0.88507
  Beta virt. eigenvalues --    0.97075   0.98064   1.04627   1.25821   1.27275
          Condensed to atoms (all electrons):
               1          2          3          4          5          6
     1  C    5.372790   0.496036  -0.043762  -0.123974   0.178785   0.161971
     2  C    0.496036   4.963671   0.458967  -0.027484  -0.123974  -0.021015
     3  C   -0.043762   0.458967   4.884763   0.458967  -0.043762   0.007182
     4  C   -0.123974  -0.027484   0.458967   4.963671   0.496036  -0.021015
     5  C    0.178785  -0.123974  -0.043762   0.496036   5.372790   0.161971
     6  H    0.161971  -0.021015   0.007182  -0.021015   0.161971   0.347837
     7  H    0.335221   0.004598  -0.000350   0.003147  -0.015555  -0.009627
     8  H   -0.023322   0.360366  -0.011727   0.003792   0.000837   0.000364
     9  H    0.004899  -0.026204   0.363097  -0.026204   0.004899  -0.000037
    10  H    0.000837   0.003792  -0.011727   0.360366  -0.023322   0.000364
    11  H   -0.015555   0.003147  -0.000350   0.004598   0.335221  -0.009627
               7          8          9         10         11
     1  C    0.335221  -0.023322   0.004899   0.000837  -0.015555
     2  C    0.004598   0.360366  -0.026204   0.003792   0.003147
     3  C   -0.000350  -0.011727   0.363097  -0.011727  -0.000350
     4  C    0.003147   0.003792  -0.026204   0.360366   0.004598
     5  C   -0.015555   0.000837   0.004899  -0.023322   0.335221
     6  H   -0.009627   0.000364  -0.000037   0.000364  -0.009627
     7  H    0.340142   0.000111  -0.000050  -0.000016   0.000393
     8  H    0.000111   0.379082  -0.001157  -0.000081  -0.000016
     9  H   -0.000050  -0.001157   0.398119  -0.001157  -0.000050
    10  H   -0.000016  -0.000081  -0.001157   0.379082   0.000111
    11  H    0.000393  -0.000016  -0.000050   0.000111   0.340142
          Atomic-Atomic Spin Densities.
               1          2          3          4          5          6
     1  C    0.520903  -0.040664  -0.022757  -0.009531   0.022898  -0.004168
     2  C   -0.040664  -0.270565   0.027799   0.000011  -0.009531   0.000369
     3  C   -0.022757   0.027799   0.730107   0.027799  -0.022757   0.000209
     4  C   -0.009531   0.000011   0.027799  -0.270565  -0.040664   0.000369
     5  C    0.022898  -0.009531  -0.022757  -0.040664   0.520903  -0.004168
     6  H   -0.004168   0.000369   0.000209   0.000369  -0.004168  -0.016008
     7  H   -0.003000  -0.000548   0.000119  -0.000109   0.000190  -0.000137
     8  H   -0.000392   0.002113  -0.001120  -0.000134   0.000070   0.000024
     9  H   -0.000015  -0.000026  -0.001261  -0.000026  -0.000015  -0.000001
    10  H    0.000070  -0.000134  -0.001120   0.002113  -0.000392   0.000024
    11  H    0.000190  -0.000109   0.000119  -0.000548  -0.003000  -0.000137
               7          8          9         10         11
     1  C   -0.003000  -0.000392  -0.000015   0.000070   0.000190
     2  C   -0.000548   0.002113  -0.000026  -0.000134  -0.000109
     3  C    0.000119  -0.001120  -0.001261  -0.001120   0.000119
     4  C   -0.000109  -0.000134  -0.000026   0.002113  -0.000548
     5  C    0.000190   0.000070  -0.000015  -0.000392  -0.003000
     6  H   -0.000137   0.000024  -0.000001   0.000024  -0.000137
     7  H   -0.018960   0.000053   0.000004  -0.000000  -0.000075
     8  H    0.000053   0.007914   0.000008   0.000000  -0.000000
     9  H    0.000004   0.000008  -0.028840   0.000008   0.000004
    10  H   -0.000000   0.000000   0.000008   0.007914   0.000053
    11  H   -0.000075  -0.000000   0.000004   0.000053  -0.018960
 Mulliken charges and spin densities:
               1          2
     1  C   -0.343926   0.463535
     2  C   -0.091900  -0.291285
     3  C   -0.061296   0.737137
     4  C   -0.091900  -0.291285
     5  C   -0.343926   0.463535
     6  H    0.381632  -0.023624
     7  H    0.341986  -0.022464
     8  H    0.291751   0.008537
     9  H    0.283845  -0.030160
    10  H    0.291751   0.008537
    11  H    0.341986  -0.022464
 Sum of Mulliken charges =   1.00000   1.00000
 Mulliken charges and spin densities with hydrogens summed into heavy atoms:
               1          2
     1  C    0.379691   0.417446
     2  C    0.199850  -0.282747
     3  C    0.222549   0.706978
     4  C    0.199850  -0.282747
     5  C   -0.001941   0.441071
 Electronic spatial extent (au):  <R**2>=            317.8391
 Charge=              1.0000 electrons
 Dipole moment (field-independent basis, Debye):
    X=             -0.0000    Y=             -0.0000    Z=             -2.0438  Tot=              2.0438
 Quadrupole moment (field-independent basis, Debye-Ang):
   XX=            -30.8714   YY=            -17.0122   ZZ=            -12.6915
   XY=              0.0000   XZ=              0.0000   YZ=              0.0000
 Traceless Quadrupole moment (field-independent basis, Debye-Ang):
   XX=            -10.6797   YY=              3.1795   ZZ=              7.5002
   XY=              0.0000   XZ=              0.0000   YZ=              0.0000
 Octapole moment (field-independent basis, Debye-Ang**2):
  XXX=              0.0000  YYY=              0.0000  ZZZ=             -7.5828  XYY=             -0.0000
  XXY=              0.0000  XXZ=              0.6546  XZZ=              0.0000  YZZ=             -0.0000
  YYZ=             -2.7180  XYZ=             -0.0000
 Hexadecapole moment (field-independent basis, Debye-Ang**3):
 XXXX=            -30.3883 YYYY=           -140.2533 ZZZZ=           -121.1609 XXXY=             -0.0000
 XXXZ=             -0.0000 YYYX=             -0.0000 YYYZ=             -0.0000 ZZZX=              0.0000
 ZZZY=             -0.0000 XXYY=            -41.4505 XXZZ=            -38.0519 YYZZ=            -41.3053
 XXYZ=              0.0000 YYXZ=             -0.0000 ZZXY=             -0.0000
 N-N= 1.560127424860D+02 E-N=-7.526174340492D+02  KE= 1.929255180377D+02
 Symmetry A1   KE= 1.114731522546D+02
 Symmetry A2   KE= 2.555816525958D+00
 Symmetry B1   KE= 3.294527718482D+00
 Symmetry B2   KE= 7.560202153871D+01
 Symmetry A1   SP=-1.043495547810D-14
 Symmetry A2   SP=-2.084161836169D-15
 Symmetry B1   SP= 1.000000000000D+00
 Symmetry B2   SP=-2.590248436747D-14
                          Isotropic Fermi Contact Couplings
        Atom                 a.u.       MegaHertz       Gauss      10(-4) cm-1
     1  C(13)              0.07439      83.62573      29.83974      27.89454
     2  C(13)             -0.05209     -58.55680     -20.89452     -19.53245
     3  C(13)              0.11014     123.81778      44.18126      41.30117
     4  C(13)             -0.05209     -58.55680     -20.89452     -19.53245
     5  C(13)              0.07439      83.62573      29.83974      27.89454
     6  H(1)              -0.00897     -40.07679     -14.30039     -13.36818
     7  H(1)              -0.00974     -43.53975     -15.53606     -14.52330
     8  H(1)               0.00345      15.40956       5.49852       5.14008
     9  H(1)              -0.01377     -61.56006     -21.96616     -20.53423
    10  H(1)               0.00345      15.40956       5.49852       5.14008
    11  H(1)              -0.00974     -43.53975     -15.53606     -14.52330
 --------------------------------------------------------
       Center         ----  Spin Dipole Couplings  ----
                      3XX-RR        3YY-RR        3ZZ-RR
 --------------------------------------------------------
     1   Atom        0.484508     -0.235969     -0.248539
     2   Atom       -0.193846      0.094991      0.098855
     3   Atom        0.702894     -0.359199     -0.343695
     4   Atom       -0.193846      0.094991      0.098855
     5   Atom        0.484508     -0.235969     -0.248539
     6   Atom       -0.008017      0.007766      0.000252
     7   Atom       -0.006594      0.006805     -0.000210
     8   Atom       -0.006227     -0.001011      0.007239
     9   Atom       -0.008537     -0.045756      0.054293
    10   Atom       -0.006227     -0.001011      0.007239
    11   Atom       -0.006594      0.006805     -0.000210
 --------------------------------------------------------
                        XY            XZ            YZ
 --------------------------------------------------------
     1   Atom       -0.000000      0.000000     -0.008205
     2   Atom       -0.000000      0.000000     -0.005353
     3   Atom       -0.000000     -0.000000      0.000000
     4   Atom       -0.000000     -0.000000      0.005353
     5   Atom        0.000000      0.000000      0.008205
     6   Atom       -0.000000      0.000000     -0.000000
     7   Atom        0.000000      0.000000     -0.035217
     8   Atom       -0.000000      0.000000     -0.006176
     9   Atom       -0.000000     -0.000000      0.000000
    10   Atom        0.000000     -0.000000      0.006176
    11   Atom       -0.000000     -0.000000      0.035217
 --------------------------------------------------------


 ---------------------------------------------------------------------------------
              Anisotropic Spin Dipole Couplings in Principal Axis System
 ---------------------------------------------------------------------------------

       Atom             a.u.   MegaHertz   Gauss  10(-4) cm-1        Axes

              Baa    -0.2526   -33.895   -12.095   -11.306 -0.0000  0.4427  0.8967
     1 C(13)  Bbb    -0.2319   -31.121   -11.105   -10.381 -0.0000  0.8967 -0.4427
              Bcc     0.4845    65.016    23.199    21.687  1.0000  0.0000  0.0000
 
              Baa    -0.1938   -26.012    -9.282    -8.677  1.0000  0.0000  0.0000
     2 C(13)  Bbb     0.0912    12.242     4.368     4.084 -0.0000  0.8184  0.5747
              Bcc     0.1026    13.770     4.913     4.593  0.0000 -0.5747  0.8184
 
              Baa    -0.3592   -48.201   -17.199   -16.078 -0.0000  1.0000  0.0000
     3 C(13)  Bbb    -0.3437   -46.121   -16.457   -15.384  0.0000  0.0000  1.0000
              Bcc     0.7029    94.322    33.656    31.462  1.0000  0.0000  0.0000
 
              Baa    -0.1938   -26.012    -9.282    -8.677  1.0000  0.0000  0.0000
     4 C(13)  Bbb     0.0912    12.242     4.368     4.084 -0.0000  0.8184 -0.5747
              Bcc     0.1026    13.770     4.913     4.593 -0.0000  0.5747  0.8184
 
              Baa    -0.2526   -33.895   -12.095   -11.306 -0.0000 -0.4427  0.8967
     5 C(13)  Bbb    -0.2319   -31.121   -11.105   -10.381  0.0000  0.8967  0.4427
              Bcc     0.4845    65.016    23.199    21.687  1.0000 -0.0000  0.0000
 
              Baa    -0.0080    -4.278    -1.526    -1.427  1.0000 -0.0000 -0.0000
     6 H(1)   Bbb     0.0003     0.134     0.048     0.045  0.0000  0.0000  1.0000
              Bcc     0.0078     4.143     1.478     1.382  0.0000  1.0000 -0.0000
 
              Baa    -0.0321   -17.124    -6.110    -5.712 -0.0000  0.6712  0.7413
     7 H(1)   Bbb    -0.0066    -3.518    -1.255    -1.174  1.0000  0.0000  0.0000
              Bcc     0.0387    20.642     7.366     6.886 -0.0000  0.7413 -0.6712
 
              Baa    -0.0062    -3.323    -1.186    -1.108  1.0000  0.0000  0.0000
     8 H(1)   Bbb    -0.0043    -2.301    -0.821    -0.768 -0.0000  0.8819  0.4715
              Bcc     0.0105     5.624     2.007     1.876  0.0000 -0.4715  0.8819
 
              Baa    -0.0458   -24.413    -8.711    -8.143  0.0000  1.0000 -0.0000
     9 H(1)   Bbb    -0.0085    -4.555    -1.625    -1.519  1.0000 -0.0000  0.0000
              Bcc     0.0543    28.968    10.336     9.663  0.0000  0.0000  1.0000
 
              Baa    -0.0062    -3.323    -1.186    -1.108  1.0000 -0.0000  0.0000
    10 H(1)   Bbb    -0.0043    -2.301    -0.821    -0.768  0.0000  0.8819 -0.4715
              Bcc     0.0105     5.624     2.007     1.876  0.0000  0.4715  0.8819
 
              Baa    -0.0321   -17.124    -6.110    -5.712  0.0000 -0.6712  0.7413
    11 H(1)   Bbb    -0.0066    -3.518    -1.255    -1.174  1.0000  0.0000  0.0000
              Bcc     0.0387    20.642     7.366     6.886 -0.0000  0.7413  0.6712
 

 ---------------------------------------------------------------------------------

 No NMR shielding tensors so no spin-rotation constants.
 Leave Link  601 at Thu Mar  5 12:53:11 2020, MaxMem=  6710886400 cpu:               3.0 elap:               0.2
 (Enter /opt/ohpc/pub/libs/gaussian/g16-A.03/sandybridge/g16/l9999.exe)

 Test job not archived.
 1\1\GINC-CNODE212\SP\ULC-wHPBE\6-31G\C5H6(1+,2)\SMGO234\05-Mar-2020\0\
 \#P uLC-wHPBE/6-31G iop(3/130=0247400000, 3/131=0247400000, 3/119=0752
 600000, 3/120=0752600000) scf=(conver=6,fermi,ndamp=35,noincfock,novar
 acc,vshift=500,xqc)\\H6 C5\\1,2\C,0,0.,0.878804,-0.931542\C,0,0.,1.128
 157,0.423457\C,0,0.,0.,1.240879\C,0,0.,-1.128157,0.423457\C,0,0.,-0.87
 8804,-0.931542\H,0,0.,0.,-1.732269\H,0,0.,1.6083,-1.734053\H,0,0.,2.15
 6626,0.76567\H,0,0.,0.,2.320778\H,0,0.,-2.156626,0.76567\H,0,0.,-1.608
 3,-1.734053\\Version=EM64L-G16RevA.03\State=2-B1\HF=-196.9187605\S2=0.
 814775\S2-1=0.\S2A=0.752381\RMSD=6.468e-07\Dipole=0.,0.,-0.8040735\Qua
 drupole=-7.940059,2.3638655,5.5761935,0.,0.,0.\PG=C02V [C2(H1C1H1),SGV
 (C4H4)]\\@


 A MAN IS EXACTLY AS GREAT AS THE TIDE SURGING
 BENEATH HIM.      - BISMARCK
 Job cpu time:       0 days  0 hours  1 minutes 21.1 seconds.
 Elapsed time:       0 days  0 hours  0 minutes  5.4 seconds.
 File lengths (MBytes):  RWF=    272 Int=      0 D2E=      0 Chk=     32 Scr=     32
 Normal termination of Gaussian 16 at Thu Mar  5 12:53:11 2020.
