 Entering Gaussian System, Link 0=g16
 Input=a1b_tune_c11.gjf
 Output=a1b_tune_c11.log
 Initial command:
 /opt/ohpc/pub/libs/gaussian/g16-A.03/sandybridge/g16/l1.exe "/scratch/smgo234/Ocelot/test/a1b/tuning_a1b_acycle1/Gau-82243.inp" -scrdir="/scratch/smgo234/Ocelot/test/a1b/tuning_a1b_acycle1/"
 Entering Link 1 = /opt/ohpc/pub/libs/gaussian/g16-A.03/sandybridge/g16/l1.exe PID=     82244.
  
 Copyright (c) 1988,1990,1992,1993,1995,1998,2003,2009,2016,
            Gaussian, Inc.  All Rights Reserved.
  
 This is part of the Gaussian(R) 16 program.  It is based on
 the Gaussian(R) 09 system (copyright 2009, Gaussian, Inc.),
 the Gaussian(R) 03 system (copyright 2003, Gaussian, Inc.),
 the Gaussian(R) 98 system (copyright 1998, Gaussian, Inc.),
 the Gaussian(R) 94 system (copyright 1995, Gaussian, Inc.),
 the Gaussian 92(TM) system (copyright 1992, Gaussian, Inc.),
 the Gaussian 90(TM) system (copyright 1990, Gaussian, Inc.),
 the Gaussian 88(TM) system (copyright 1988, Gaussian, Inc.),
 the Gaussian 86(TM) system (copyright 1986, Carnegie Mellon
 University), and the Gaussian 82(TM) system (copyright 1983,
 Carnegie Mellon University). Gaussian is a federally registered
 trademark of Gaussian, Inc.
  
 This software contains proprietary and confidential information,
 including trade secrets, belonging to Gaussian, Inc.
  
 This software is provided under written license and may be
 used, copied, transmitted, or stored only in accord with that
 written license.
  
 The following legend is applicable only to US Government
 contracts under FAR:
  
                    RESTRICTED RIGHTS LEGEND
  
 Use, reproduction and disclosure by the US Government is
 subject to restrictions as set forth in subparagraphs (a)
 and (c) of the Commercial Computer Software - Restricted
 Rights clause in FAR 52.227-19.
  
 Gaussian, Inc.
 340 Quinnipiac St., Bldg. 40, Wallingford CT 06492
  
  
 ---------------------------------------------------------------
 Warning -- This program may not be used in any manner that
 competes with the business of Gaussian, Inc. or will provide
 assistance to any competitor of Gaussian, Inc.  The licensee
 of this program is prohibited from giving any competitor of
 Gaussian, Inc. access to this program.  By using this program,
 the user acknowledges that Gaussian, Inc. is engaged in the
 business of creating and licensing software in the field of
 computational chemistry and represents and warrants to the
 licensee that it is not a competitor of Gaussian, Inc. and that
 it will not use this program in any manner prohibited above.
 ---------------------------------------------------------------
  

 Cite this work as:
 Gaussian 16, Revision A.03,
 M. J. Frisch, G. W. Trucks, H. B. Schlegel, G. E. Scuseria, 
 M. A. Robb, J. R. Cheeseman, G. Scalmani, V. Barone, 
 G. A. Petersson, H. Nakatsuji, X. Li, M. Caricato, A. V. Marenich, 
 J. Bloino, B. G. Janesko, R. Gomperts, B. Mennucci, H. P. Hratchian, 
 J. V. Ortiz, A. F. Izmaylov, J. L. Sonnenberg, D. Williams-Young, 
 F. Ding, F. Lipparini, F. Egidi, J. Goings, B. Peng, A. Petrone, 
 T. Henderson, D. Ranasinghe, V. G. Zakrzewski, J. Gao, N. Rega, 
 G. Zheng, W. Liang, M. Hada, M. Ehara, K. Toyota, R. Fukuda, 
 J. Hasegawa, M. Ishida, T. Nakajima, Y. Honda, O. Kitao, H. Nakai, 
 T. Vreven, K. Throssell, J. A. Montgomery, Jr., J. E. Peralta, 
 F. Ogliaro, M. J. Bearpark, J. J. Heyd, E. N. Brothers, K. N. Kudin, 
 V. N. Staroverov, T. A. Keith, R. Kobayashi, J. Normand, 
 K. Raghavachari, A. P. Rendell, J. C. Burant, S. S. Iyengar, 
 J. Tomasi, M. Cossi, J. M. Millam, M. Klene, C. Adamo, R. Cammi, 
 J. W. Ochterski, R. L. Martin, K. Morokuma, O. Farkas, 
 J. B. Foresman, and D. J. Fox, Gaussian, Inc., Wallingford CT, 2016.
 
 ******************************************
 Gaussian 16:  EM64L-G16RevA.03 25-Dec-2016
                 5-Mar-2020 
 ******************************************
 %mem=50GB
 %nproc=16
 Will use up to   16 processors via shared memory.
 ----------------------------------------------------------------------
 #P uLC-wHPBE/6-31G iop(3/130=0244500000, 3/131=0244500000, 3/119=07555
 00000, 3/120=0755500000) scf=(conver=6,fermi,ndamp=35,noincfock,novara
 cc,vshift=500,xqc)
 ----------------------------------------------------------------------
 1/38=1,172=1/1;
 2/12=2,17=6,18=5,40=1/2;
 3/5=1,6=6,11=2,25=1,30=1,74=-71,116=2,119=755500000,120=755500000,130=244500000,131=244500000/1,2,3;
 4//1;
 5/5=100002,6=6,8=3,10=500,13=1,18=-1,22=13,38=1,93=35/2,8;
 6/7=2,8=2,9=2,10=2,28=1/1;
 99/5=1,9=1/99;
 Leave Link    1 at Thu Mar  5 12:53:17 2020, MaxMem=  6710886400 cpu:              13.2 elap:               0.9
 (Enter /opt/ohpc/pub/libs/gaussian/g16-A.03/sandybridge/g16/l101.exe)
 -----
 H6 C5
 -----
 Symbolic Z-matrix:
 Charge =  1 Multiplicity = 2
 C                     0.        0.8788   -0.93154 
 C                     0.        1.12816   0.42346 
 C                     0.        0.        1.24088 
 C                     0.       -1.12816   0.42346 
 C                     0.       -0.8788   -0.93154 
 H                     0.        0.       -1.73227 
 H                     0.        1.6083   -1.73405 
 H                     0.        2.15663   0.76567 
 H                     0.        0.        2.32078 
 H                     0.       -2.15663   0.76567 
 H                     0.       -1.6083   -1.73405 
 
 ITRead=  0  0  0  0  0  0  0  0  0  0  0
 MicOpt= -1 -1 -1 -1 -1 -1 -1 -1 -1 -1 -1
 NAtoms=     11 NQM=       11 NQMF=       0 NMMI=      0 NMMIF=      0
                NMic=       0 NMicF=      0.
                    Isotopes and Nuclear Properties:
 (Nuclear quadrupole moments (NQMom) in fm**2, nuclear magnetic moments (NMagM)
  in nuclear magnetons)

  Atom         1           2           3           4           5           6           7           8           9          10
 IAtWgt=          12          12          12          12          12           1           1           1           1           1
 AtmWgt=  12.0000000  12.0000000  12.0000000  12.0000000  12.0000000   1.0078250   1.0078250   1.0078250   1.0078250   1.0078250
 NucSpn=           0           0           0           0           0           1           1           1           1           1
 AtZEff=  -0.0000000  -0.0000000  -0.0000000  -0.0000000  -0.0000000  -0.0000000  -0.0000000  -0.0000000  -0.0000000  -0.0000000
 NQMom=    0.0000000   0.0000000   0.0000000   0.0000000   0.0000000   0.0000000   0.0000000   0.0000000   0.0000000   0.0000000
 NMagM=    0.0000000   0.0000000   0.0000000   0.0000000   0.0000000   2.7928460   2.7928460   2.7928460   2.7928460   2.7928460
 AtZNuc=   6.0000000   6.0000000   6.0000000   6.0000000   6.0000000   1.0000000   1.0000000   1.0000000   1.0000000   1.0000000

  Atom        11
 IAtWgt=           1
 AtmWgt=   1.0078250
 NucSpn=           1
 AtZEff=  -0.0000000
 NQMom=    0.0000000
 NMagM=    2.7928460
 AtZNuc=   1.0000000
 Leave Link  101 at Thu Mar  5 12:53:17 2020, MaxMem=  6710886400 cpu:               4.5 elap:               0.3
 (Enter /opt/ohpc/pub/libs/gaussian/g16-A.03/sandybridge/g16/l202.exe)
                          Input orientation:                          
 ---------------------------------------------------------------------
 Center     Atomic      Atomic             Coordinates (Angstroms)
 Number     Number       Type             X           Y           Z
 ---------------------------------------------------------------------
      1          6           0        0.000000    0.878804   -0.931542
      2          6           0        0.000000    1.128157    0.423457
      3          6           0        0.000000    0.000000    1.240879
      4          6           0        0.000000   -1.128157    0.423457
      5          6           0        0.000000   -0.878804   -0.931542
      6          1           0        0.000000    0.000000   -1.732269
      7          1           0        0.000000    1.608300   -1.734053
      8          1           0        0.000000    2.156626    0.765670
      9          1           0        0.000000    0.000000    2.320778
     10          1           0        0.000000   -2.156626    0.765670
     11          1           0        0.000000   -1.608300   -1.734053
 ---------------------------------------------------------------------
                    Distance matrix (angstroms):
                    1          2          3          4          5
     1  C    0.000000
     2  C    1.377752   0.000000
     3  C    2.343440   1.393168   0.000000
     4  C    2.421552   2.256314   1.393168   0.000000
     5  C    1.757608   2.421552   2.343440   1.377752   0.000000
     6  H    1.188890   2.433083   2.973148   2.433083   1.188890
     7  H    1.084522   2.210291   3.381841   3.484687   2.613371
     8  H    2.124466   1.083909   2.208361   3.302561   3.477695
     9  H    3.368959   2.207389   1.079899   2.207389   3.368959
    10  H    3.477695   3.302561   2.208361   1.083909   2.124466
    11  H    2.613371   3.484687   3.381841   2.210291   1.084522
                    6          7          8          9         10
     6  H    0.000000
     7  H    1.608301   0.000000
     8  H    3.300111   2.559155   0.000000
     9  H    4.053047   4.362142   2.658834   0.000000
    10  H    3.300111   4.519213   4.313252   2.658834   0.000000
    11  H    1.608301   3.216600   4.519213   4.362142   2.559155
                   11
    11  H    0.000000
 Stoichiometry    C5H6(1+,2)
 Framework group  C2V[C2(HCH),SGV(C4H4)]
 Deg. of freedom    10
 Full point group                 C2V     NOp   4
 Largest Abelian subgroup         C2V     NOp   4
 Largest concise Abelian subgroup C2      NOp   2
                         Standard orientation:                         
 ---------------------------------------------------------------------
 Center     Atomic      Atomic             Coordinates (Angstroms)
 Number     Number       Type             X           Y           Z
 ---------------------------------------------------------------------
      1          6           0        0.000000    0.878804   -0.931542
      2          6           0        0.000000    1.128157    0.423457
      3          6           0        0.000000   -0.000000    1.240879
      4          6           0       -0.000000   -1.128157    0.423457
      5          6           0       -0.000000   -0.878804   -0.931542
      6          1           0       -0.000000    0.000000   -1.732269
      7          1           0        0.000000    1.608300   -1.734053
      8          1           0        0.000000    2.156626    0.765670
      9          1           0        0.000000   -0.000000    2.320778
     10          1           0       -0.000000   -2.156626    0.765670
     11          1           0       -0.000000   -1.608300   -1.734053
 ---------------------------------------------------------------------
 Rotational constants (GHZ):           8.5259551           7.9375455           4.1106177
 Leave Link  202 at Thu Mar  5 12:53:17 2020, MaxMem=  6710886400 cpu:               0.6 elap:               0.1
 (Enter /opt/ohpc/pub/libs/gaussian/g16-A.03/sandybridge/g16/l301.exe)
 Standard basis: 6-31G (6D, 7F)
 Ernie: Thresh=  0.10000D-02 Tol=  0.10000D-05 Strict=F.
 There are    27 symmetry adapted cartesian basis functions of A1  symmetry.
 There are     4 symmetry adapted cartesian basis functions of A2  symmetry.
 There are     6 symmetry adapted cartesian basis functions of B1  symmetry.
 There are    20 symmetry adapted cartesian basis functions of B2  symmetry.
 There are    27 symmetry adapted basis functions of A1  symmetry.
 There are     4 symmetry adapted basis functions of A2  symmetry.
 There are     6 symmetry adapted basis functions of B1  symmetry.
 There are    20 symmetry adapted basis functions of B2  symmetry.
    57 basis functions,   134 primitive gaussians,    57 cartesian basis functions
    18 alpha electrons       17 beta electrons
       nuclear repulsion energy       156.0127424860 Hartrees.
 IExCor=33909 DFT=T Ex+Corr=LC-wHPBE ExCW=0 ScaHFX=  1.000000
 ScaDFX=  1.000000  1.000000  1.000000  1.000000 ScalE2=  1.000000  1.000000
 IRadAn=      5 IRanWt=     -1 IRanGd=            0 ICorTp=0 IEmpDi=  4
 HFx  wShort=  0.000000 wLong=  0.400000 cFull=  0.000000 cShort=  0.000000 cLong=  0.755500
 DFx  wShort=  0.000000 wLong=  0.400000 cFull=  0.000000 cShort=  1.000000 cLong=  0.755500
 NAtoms=   11 NActive=   11 NUniq=    7 SFac= 2.47D+00 NAtFMM=   60 NAOKFM=F Big=F
 Integral buffers will be    131072 words long.
 Raffenetti 2 integral format.
 Two-electron integral symmetry is turned on.
 Leave Link  301 at Thu Mar  5 12:53:17 2020, MaxMem=  6710886400 cpu:               0.8 elap:               0.1
 (Enter /opt/ohpc/pub/libs/gaussian/g16-A.03/sandybridge/g16/l302.exe)
 NPDir=0 NMtPBC=     1 NCelOv=     1 NCel=       1 NClECP=     1 NCelD=      1
         NCelK=      1 NCelE2=     1 NClLst=     1 CellRange=     0.0.
 One-electron integrals computed using PRISM.
 One-electron integral symmetry used in STVInt
 NBasis=    57 RedAO= T EigKep=  1.84D-03  NBF=    27     4     6    20
 NBsUse=    57 1.00D-06 EigRej= -1.00D+00 NBFU=    27     4     6    20
 Precomputing XC quadrature grid using
 IXCGrd= 4 IRadAn=           5 IRanWt=          -1 IRanGd=           0 AccXCQ= 0.00D+00.
 Generated NRdTot=       0 NPtTot=           0 NUsed=           0 NTot=          32
 NSgBfM=    57    57    57    57    57 MxSgAt=    11 MxSgA2=    11.
 Leave Link  302 at Thu Mar  5 12:53:17 2020, MaxMem=  6710886400 cpu:               2.0 elap:               0.1
 (Enter /opt/ohpc/pub/libs/gaussian/g16-A.03/sandybridge/g16/l303.exe)
 DipDrv:  MaxL=1.
 Leave Link  303 at Thu Mar  5 12:53:17 2020, MaxMem=  6710886400 cpu:               0.7 elap:               0.1
 (Enter /opt/ohpc/pub/libs/gaussian/g16-A.03/sandybridge/g16/l401.exe)
 ExpMin= 1.61D-01 ExpMax= 3.05D+03 ExpMxC= 4.57D+02 IAcc=3 IRadAn=         5 AccDes= 0.00D+00
 Harris functional with IExCor=33909 and IRadAn=       5 diagonalized for initial guess.
 HarFok:  IExCor=33909 AccDes= 0.00D+00 IRadAn=         5 IDoV= 1 UseB2=F ITyADJ=14
 ICtDFT=  3500011 ScaDFX=  1.000000  1.000000  1.000000  1.000000
 FoFCou: FMM=F IPFlag=           0 FMFlag=      100000 FMFlg1=           0
         NFxFlg=           0 DoJE=T BraDBF=F KetDBF=T FulRan=T
         wScrn=  0.000000 ICntrl=       500 IOpCl=  0 I1Cent=   200000004 NGrid=           0
         NMat0=    1 NMatS0=      1 NMatT0=    0 NMatD0=    1 NMtDS0=    0 NMtDT0=    0
 Petite list used in FoFCou.
 Harris En= -191.818123018429    
 JPrj=0 DoOrth=F DoCkMO=F.
 Initial guess orbital symmetries:
 Alpha Orbitals:
       Occupied  (A1) (B2) (A1) (B2) (A1) (A1) (A1) (B2) (A1) (B2)
                 (A1) (B2) (A1) (B2) (A1) (B1) (A2) (B1)
       Virtual   (A2) (B2) (B1) (A1) (A1) (B2) (A1) (B2) (A1) (B2)
                 (A1) (B2) (A1) (B2) (B1) (A1) (A2) (B1) (B2) (A1)
                 (A1) (A2) (B1) (B2) (B2) (A1) (B2) (A1) (A1) (B2)
                 (A1) (A1) (A1) (B2) (A1) (B2) (A1) (A1) (B2)
 Beta  Orbitals:
       Occupied  (A1) (B2) (A1) (B2) (A1) (A1) (A1) (B2) (A1) (B2)
                 (A1) (B2) (A1) (B2) (A1) (B1) (A2)
       Virtual   (B1) (A2) (B2) (B1) (A1) (A1) (B2) (A1) (B2) (A1)
                 (B2) (A1) (B2) (A1) (B2) (B1) (A1) (A2) (B1) (B2)
                 (A1) (A1) (A2) (B1) (B2) (B2) (A1) (B2) (A1) (A1)
                 (B2) (A1) (A1) (A1) (B2) (A1) (B2) (A1) (A1) (B2)
 The electronic state of the initial guess is 2-B1.
 Initial guess <Sx>= 0.0000 <Sy>= 0.0000 <Sz>= 0.5000 <S**2>= 0.7500 S= 0.5000
 Leave Link  401 at Thu Mar  5 12:53:18 2020, MaxMem=  6710886400 cpu:               3.2 elap:               0.6
 (Enter /opt/ohpc/pub/libs/gaussian/g16-A.03/sandybridge/g16/l502.exe)
 Keep R1 and R2 ints in memory in symmetry-blocked form, NReq=16815681.
 FoFCou: FMM=F IPFlag=           0 FMFlag=           0 FMFlg1=           0
         NFxFlg=           0 DoJE=F BraDBF=F KetDBF=F FulRan=T
         wScrn=  0.000000 ICntrl=       600 IOpCl=  0 I1Cent=           0 NGrid=           0
         NMat0=    1 NMatS0=   1653 NMatT0=    0 NMatD0=    1 NMtDS0=    0 NMtDT0=    0
 Petite list used in FoFCou.
 UHF open shell SCF:
 Using DIIS extrapolation, IDIIS=    10.
 NGot=  6710886400 LenX=  6710059561 LenY=  6710055871
 Requested convergence on RMS density matrix=1.00D-06 within  32 cycles.
 Requested convergence on MAX density matrix=1.00D-04.
 Requested convergence on             energy=1.00D-04.
 Virtual orbitals will be shifted by   0.500 hartree.
 No special actions if energy rises.
 Dynamic level shift is on during FON iterations.

 Cycle   1  Pass 1  IDiag  1:
 E= -196.893034113252    
 DIIS: error= 4.84D-02 at cycle   1 NSaved=   1.
 NSaved= 1 IEnMin= 1 EnMin= -196.893034113252     IErMin= 1 ErrMin= 4.84D-02
 ErrMax= 4.84D-02  0.00D+00 EMaxC= 1.00D+00 BMatC= 1.95D-01 BMatP= 1.95D-01
 IDIUse=1 WtCom= 1.00D+00 WtEn= 0.00D+00
 Coeff-Com:  0.100D+01
 Coeff:      0.100D+01
 Gap=     0.326 Goal=   None    Shift=    0.500
 T= 1783. Gap= 0.799 NK=0 IS=   19 IE=   57 IFin=   18
          NO(<0.9)=   0  NV(>0.1)=   0     18.00e < EF      0.00e >EF  Err=0.0D+00
 Gap=     0.203 Goal=   None    Shift=    0.500
 T= 1783. Gap= 0.706 NK=0 IS=   18 IE=   57 IFin=   17
          NO(<0.9)=   0  NV(>0.1)=   0     17.00e < EF      0.00e >EF  Err=0.0D+00
 GapD=    0.203 DampG=1.000 DampE=0.500 DampFc=0.5000 IDamp=-1.
 Damping current iteration by 5.00D-01
 RMSDP=6.98D-03 MaxDP=5.29D-02              OVMax= 1.06D-01

 Cycle   2  Pass 1  IDiag  1:
 E= -196.930822631502     Delta-E=       -0.037788518250 Rises=F Damp=T
 DIIS: error= 2.27D-02 at cycle   2 NSaved=   2.
 NSaved= 2 IEnMin= 2 EnMin= -196.930822631502     IErMin= 2 ErrMin= 2.27D-02
 ErrMax= 2.27D-02  0.00D+00 EMaxC= 1.00D+00 BMatC= 3.30D-02 BMatP= 1.95D-01
 IDIUse=1 WtCom= 1.00D+00 WtEn= 0.00D+00
 Coeff-Com: -0.523D+00 0.152D+01
 Coeff:     -0.523D+00 0.152D+01
 Gap=     0.397 Goal=   None    Shift=    0.500
 T= 1666. Gap= 0.882 NK=4 IS=   19 IE=   23 IFin=   18
          NO(<0.9)=   0  NV(>0.1)=   0     18.00e < EF      0.00e >EF  Err=0.0D+00
 Gap=     0.231 Goal=   None    Shift=    0.500
 T= 1666. Gap= 0.729 NK=4 IS=   18 IE=   23 IFin=   17
          NO(<0.9)=   0  NV(>0.1)=   0     17.00e < EF      0.00e >EF  Err=0.0D+00
 GapD=    0.231 DampG=1.000 DampE=0.500 DampFc=0.5000 IDamp=-1.
 Damping current iteration by 5.00D-01
 RMSDP=4.18D-03 MaxDP=3.23D-02 DE=-3.78D-02 OVMax= 1.72D-02

 Cycle   3  Pass 1  IDiag  1:
 E= -196.943995483920     Delta-E=       -0.013172852418 Rises=F Damp=T
 DIIS: error= 1.28D-02 at cycle   3 NSaved=   3.
 NSaved= 3 IEnMin= 3 EnMin= -196.943995483920     IErMin= 3 ErrMin= 1.28D-02
 ErrMax= 1.28D-02  0.00D+00 EMaxC= 1.00D+00 BMatC= 7.55D-03 BMatP= 3.30D-02
 IDIUse=1 WtCom= 1.00D+00 WtEn= 0.00D+00
 Coeff-Com:  0.318D+00-0.177D+01 0.245D+01
 Coeff:      0.318D+00-0.177D+01 0.245D+01
 Gap=     0.385 Goal=   None    Shift=    0.500
 T= 1454. Gap= 0.886 NK=0 IS=   19 IE=   57 IFin=   18
          NO(<0.9)=   0  NV(>0.1)=   0     18.00e < EF      0.00e >EF  Err=0.0D+00
 Gap=     0.235 Goal=   None    Shift=    0.500
 T= 1454. Gap= 0.736 NK=0 IS=   18 IE=   57 IFin=   17
          NO(<0.9)=   0  NV(>0.1)=   0     17.00e < EF      0.00e >EF  Err=0.0D+00
 GapD=    0.235 DampG=1.000 DampE=0.500 DampFc=0.5000 IDamp=-1.
 Damping current iteration by 5.00D-01
 RMSDP=2.30D-03 MaxDP=1.87D-02 DE=-1.32D-02 OVMax= 1.56D-02

 Cycle   4  Pass 1  IDiag  1:
 E= -196.950223507918     Delta-E=       -0.006228023998 Rises=F Damp=T
 DIIS: error= 8.12D-03 at cycle   4 NSaved=   4.
 NSaved= 4 IEnMin= 4 EnMin= -196.950223507918     IErMin= 4 ErrMin= 8.12D-03
 ErrMax= 8.12D-03  0.00D+00 EMaxC= 1.00D+00 BMatC= 2.64D-03 BMatP= 7.55D-03
 IDIUse=1 WtCom= 1.00D+00 WtEn= 0.00D+00
 Coeff-Com:  0.287D-01 0.676D+00-0.344D+01 0.374D+01
 Coeff:      0.287D-01 0.676D+00-0.344D+01 0.374D+01
 Gap=     0.390 Goal=   None    Shift=    0.500
 T= 1061. Gap= 0.890 NK=0 IS=   19 IE=   57 IFin=   18
          NO(<0.9)=   0  NV(>0.1)=   0     18.00e < EF      0.00e >EF  Err=0.0D+00
 Gap=     0.240 Goal=   None    Shift=    0.500
 T= 1061. Gap= 0.740 NK=0 IS=   18 IE=   57 IFin=   17
          NO(<0.9)=   0  NV(>0.1)=   0     17.00e < EF      0.00e >EF  Err=0.0D+00
 GapD=    0.240 DampG=1.000 DampE=1.000 DampFc=1.0000 IDamp=-1.
 RMSDP=1.45D-03 MaxDP=1.53D-02 DE=-6.23D-03 OVMax= 1.46D-02

 Cycle   5  Pass 1  IDiag  1:
 E= -196.957494112407     Delta-E=       -0.007270604488 Rises=F Damp=F
 DIIS: error= 3.85D-03 at cycle   5 NSaved=   5.
 NSaved= 5 IEnMin= 5 EnMin= -196.957494112407     IErMin= 5 ErrMin= 3.85D-03
 ErrMax= 3.85D-03  0.00D+00 EMaxC= 1.00D+00 BMatC= 4.34D-04 BMatP= 2.64D-03
 IDIUse=1 WtCom= 1.00D+00 WtEn= 0.00D+00
 Coeff-Com: -0.175D+00 0.903D+00-0.804D+00-0.812D+00 0.189D+01
 Coeff:     -0.175D+00 0.903D+00-0.804D+00-0.812D+00 0.189D+01
 Gap=     0.393 Goal=   None    Shift=    0.500
 T=  722. Gap= 0.893 NK=0 IS=   19 IE=   57 IFin=   18
          NO(<0.9)=   0  NV(>0.1)=   0     18.00e < EF      0.00e >EF  Err=0.0D+00
 Gap=     0.244 Goal=   None    Shift=    0.500
 T=  722. Gap= 0.744 NK=0 IS=   18 IE=   57 IFin=   17
          NO(<0.9)=   0  NV(>0.1)=   0     17.00e < EF      0.00e >EF  Err=0.0D+00
 GapD=    0.244 DampG=1.000 DampE=1.000 DampFc=1.0000 IDamp=-1.
 RMSDP=4.28D-04 MaxDP=6.86D-03 DE=-7.27D-03 OVMax= 1.44D-02

 Cycle   6  Pass 1  IDiag  1:
 E= -196.958111667244     Delta-E=       -0.000617554838 Rises=F Damp=F
 DIIS: error= 3.08D-03 at cycle   6 NSaved=   6.
 NSaved= 6 IEnMin= 6 EnMin= -196.958111667244     IErMin= 6 ErrMin= 3.08D-03
 ErrMax= 3.08D-03  0.00D+00 EMaxC= 1.00D+00 BMatC= 2.01D-04 BMatP= 4.34D-04
 IDIUse=1 WtCom= 1.00D+00 WtEn= 0.00D+00
 Coeff-Com: -0.657D-02-0.226D+00 0.762D+00-0.565D+00-0.163D+01 0.266D+01
 Coeff:     -0.657D-02-0.226D+00 0.762D+00-0.565D+00-0.163D+01 0.266D+01
 Gap=     0.395 Goal=   None    Shift=    0.500
 T=  423. Gap= 0.895 NK=0 IS=   19 IE=   57 IFin=   18
          NO(<0.9)=   0  NV(>0.1)=   0     18.00e < EF      0.00e >EF  Err=0.0D+00
 Gap=     0.246 Goal=   None    Shift=    0.500
 T=  423. Gap= 0.746 NK=0 IS=   18 IE=   57 IFin=   17
          NO(<0.9)=   0  NV(>0.1)=   0     17.00e < EF      0.00e >EF  Err=0.0D+00
 GapD=    0.246 DampG=1.000 DampE=1.000 DampFc=1.0000 IDamp=-1.
 RMSDP=3.43D-04 MaxDP=5.60D-03 DE=-6.18D-04 OVMax= 1.31D-02

 Cycle   7  Pass 1  IDiag  1:
 E= -196.958467380069     Delta-E=       -0.000355712824 Rises=F Damp=F
 DIIS: error= 2.28D-03 at cycle   7 NSaved=   7.
 NSaved= 7 IEnMin= 7 EnMin= -196.958467380069     IErMin= 7 ErrMin= 2.28D-03
 ErrMax= 2.28D-03  0.00D+00 EMaxC= 1.00D+00 BMatC= 9.17D-05 BMatP= 2.01D-04
 IDIUse=1 WtCom= 1.00D+00 WtEn= 0.00D+00
 Coeff-Com:  0.193D-01-0.105D+00-0.111D-01 0.304D+00-0.480D+00-0.876D+00
 Coeff-Com:  0.215D+01
 Coeff:      0.193D-01-0.105D+00-0.111D-01 0.304D+00-0.480D+00-0.876D+00
 Coeff:      0.215D+01
 Gap=     0.396 Goal=   None    Shift=    0.500
 T=  128. Gap= 0.896 NK=0 IS=   19 IE=   57 IFin=   18
          NO(<0.9)=   0  NV(>0.1)=   0     18.00e < EF      0.00e >EF  Err=0.0D+00
 Gap=     0.248 Goal=   None    Shift=    0.500
 T=  128. Gap= 0.748 NK=0 IS=   18 IE=   57 IFin=   17
          NO(<0.9)=   0  NV(>0.1)=   0     17.00e < EF      0.00e >EF  Err=0.0D+00
 GapD=    0.248 DampG=1.000 DampE=1.000 DampFc=1.0000 IDamp=-1.
 RMSDP=2.34D-04 MaxDP=3.44D-03 DE=-3.56D-04 OVMax= 9.82D-03

 Cycle   8  Pass 1  IDiag  1:
 E= -196.958630328134     Delta-E=       -0.000162948065 Rises=F Damp=F
 DIIS: error= 1.66D-03 at cycle   8 NSaved=   8.
 NSaved= 8 IEnMin= 8 EnMin= -196.958630328134     IErMin= 8 ErrMin= 1.66D-03
 ErrMax= 1.66D-03  0.00D+00 EMaxC= 1.00D+00 BMatC= 4.58D-05 BMatP= 9.17D-05
 IDIUse=1 WtCom= 1.00D+00 WtEn= 0.00D+00
 Coeff-Com: -0.433D-02 0.229D+00-0.720D+00 0.542D+00 0.126D+01-0.261D+01
 Coeff-Com: -0.149D+00 0.246D+01
 Coeff:     -0.433D-02 0.229D+00-0.720D+00 0.542D+00 0.126D+01-0.261D+01
 Coeff:     -0.149D+00 0.246D+01
 Gap=     0.396 Goal=   None    Shift=    0.500
 Gap=     0.248 Goal=   None    Shift=    0.500
 GapD=    0.248 DampG=1.000 DampE=1.000 DampFc=1.0000 IDamp=-1.
 RMSDP=1.93D-04 MaxDP=2.79D-03 DE=-1.63D-04 OVMax= 8.61D-03

 Cycle   9  Pass 1  IDiag  1:
 E= -196.958719485467     Delta-E=       -0.000089157333 Rises=F Damp=F
 DIIS: error= 1.14D-03 at cycle   9 NSaved=   9.
 NSaved= 9 IEnMin= 9 EnMin= -196.958719485467     IErMin= 9 ErrMin= 1.14D-03
 ErrMax= 1.14D-03  0.00D+00 EMaxC= 1.00D+00 BMatC= 2.04D-05 BMatP= 4.58D-05
 IDIUse=1 WtCom= 1.00D+00 WtEn= 0.00D+00
 Coeff-Com: -0.764D-02-0.952D-01 0.490D+00-0.541D+00-0.430D+00 0.192D+01
 Coeff-Com: -0.958D+00-0.352D+01 0.414D+01
 Coeff:     -0.764D-02-0.952D-01 0.490D+00-0.541D+00-0.430D+00 0.192D+01
 Coeff:     -0.958D+00-0.352D+01 0.414D+01
 Gap=     0.397 Goal=   None    Shift=    0.500
 Gap=     0.248 Goal=   None    Shift=    0.500
 GapD=    0.248 DampG=1.000 DampE=1.000 DampFc=1.0000 IDamp=-1.
 RMSDP=1.51D-04 MaxDP=2.28D-03 DE=-8.92D-05 OVMax= 7.23D-03

 Cycle  10  Pass 1  IDiag  1:
 E= -196.958764173734     Delta-E=       -0.000044688267 Rises=F Damp=F
 DIIS: error= 7.03D-04 at cycle  10 NSaved=  10.
 NSaved=10 IEnMin=10 EnMin= -196.958764173734     IErMin=10 ErrMin= 7.03D-04
 ErrMax= 7.03D-04  0.00D+00 EMaxC= 1.00D+00 BMatC= 8.07D-06 BMatP= 2.04D-05
 IDIUse=1 WtCom= 1.00D+00 WtEn= 0.00D+00
 Coeff-Com:  0.276D-02 0.753D-03-0.304D-01 0.399D-01 0.207D-01-0.139D+00
 Coeff-Com:  0.237D+00 0.133D+00-0.188D+01 0.261D+01
 Coeff:      0.276D-02 0.753D-03-0.304D-01 0.399D-01 0.207D-01-0.139D+00
 Coeff:      0.237D+00 0.133D+00-0.188D+01 0.261D+01
 Gap=     0.397 Goal=   None    Shift=    0.500
 Gap=     0.249 Goal=   None    Shift=    0.500
 RMSDP=8.94D-05 MaxDP=1.39D-03 DE=-4.47D-05 OVMax= 4.48D-03

 Cycle  11  Pass 1  IDiag  1:
 E= -196.958780692507     Delta-E=       -0.000016518773 Rises=F Damp=F
 DIIS: error= 4.35D-04 at cycle  11 NSaved=  11.
 NSaved=11 IEnMin=11 EnMin= -196.958780692507     IErMin=11 ErrMin= 4.35D-04
 ErrMax= 4.35D-04  0.00D+00 EMaxC= 1.00D+00 BMatC= 3.39D-06 BMatP= 8.07D-06
 IDIUse=1 WtCom= 1.00D+00 WtEn= 0.00D+00
 Coeff-Com: -0.232D-02-0.330D-02 0.601D-01-0.894D-01 0.264D-01 0.212D+00
 Coeff-Com: -0.329D+00-0.498D+00 0.262D+01-0.567D+01 0.467D+01
 Coeff:     -0.232D-02-0.330D-02 0.601D-01-0.894D-01 0.264D-01 0.212D+00
 Coeff:     -0.329D+00-0.498D+00 0.262D+01-0.567D+01 0.467D+01
 Gap=     0.397 Goal=   None    Shift=    0.500
 Gap=     0.249 Goal=   None    Shift=    0.500
 RMSDP=5.93D-05 MaxDP=8.80D-04 DE=-1.65D-05 OVMax= 3.03D-03

 Cycle  12  Pass 1  IDiag  1:
 E= -196.958787542480     Delta-E=       -0.000006849973 Rises=F Damp=F
 DIIS: error= 2.57D-04 at cycle  12 NSaved=  12.
 NSaved=12 IEnMin=12 EnMin= -196.958787542480     IErMin=12 ErrMin= 2.57D-04
 ErrMax= 2.57D-04  0.00D+00 EMaxC= 1.00D+00 BMatC= 1.25D-06 BMatP= 3.39D-06
 IDIUse=1 WtCom= 1.00D+00 WtEn= 0.00D+00
 Coeff-Com: -0.102D-02-0.164D-01 0.817D-01-0.896D-01-0.641D-01 0.291D+00
 Coeff-Com: -0.784D-01-0.638D+00 0.652D+00 0.460D+00-0.246D+01 0.286D+01
 Coeff:     -0.102D-02-0.164D-01 0.817D-01-0.896D-01-0.641D-01 0.291D+00
 Coeff:     -0.784D-01-0.638D+00 0.652D+00 0.460D+00-0.246D+01 0.286D+01
 Gap=     0.397 Goal=   None    Shift=    0.500
 Gap=     0.249 Goal=   None    Shift=    0.500
 RMSDP=3.58D-05 MaxDP=5.19D-04 DE=-6.85D-06 OVMax= 1.84D-03

 Cycle  13  Pass 1  IDiag  1:
 E= -196.958790018841     Delta-E=       -0.000002476361 Rises=F Damp=F
 DIIS: error= 1.51D-04 at cycle  13 NSaved=  13.
 NSaved=13 IEnMin=13 EnMin= -196.958790018841     IErMin=13 ErrMin= 1.51D-04
 ErrMax= 1.51D-04  0.00D+00 EMaxC= 1.00D+00 BMatC= 4.49D-07 BMatP= 1.25D-06
 IDIUse=1 WtCom= 1.00D+00 WtEn= 0.00D+00
 Coeff-Com:  0.738D-03 0.610D-02-0.293D-01 0.293D-01 0.417D-01-0.113D+00
 Coeff-Com: -0.128D-01 0.252D+00 0.113D-01-0.110D+01 0.267D+01-0.484D+01
 Coeff-Com:  0.409D+01
 Coeff:      0.738D-03 0.610D-02-0.293D-01 0.293D-01 0.417D-01-0.113D+00
 Coeff:     -0.128D-01 0.252D+00 0.113D-01-0.110D+01 0.267D+01-0.484D+01
 Coeff:      0.409D+01
 Gap=     0.397 Goal=   None    Shift=    0.500
 Gap=     0.249 Goal=   None    Shift=    0.500
 RMSDP=2.19D-05 MaxDP=3.24D-04 DE=-2.48D-06 OVMax= 1.14D-03

 Cycle  14  Pass 1  IDiag  1:
 E= -196.958790914585     Delta-E=       -0.000000895744 Rises=F Damp=F
 DIIS: error= 8.46D-05 at cycle  14 NSaved=  14.
 NSaved=14 IEnMin=14 EnMin= -196.958790914585     IErMin=14 ErrMin= 8.46D-05
 ErrMax= 8.46D-05  0.00D+00 EMaxC= 1.00D+00 BMatC= 1.64D-07 BMatP= 4.49D-07
 IDIUse=1 WtCom= 1.00D+00 WtEn= 0.00D+00
 Coeff-Com: -0.250D-03-0.299D-02 0.194D-01-0.247D-01-0.485D-02 0.546D-01
 Coeff-Com: -0.154D-01-0.154D+00 0.348D+00-0.480D+00-0.314D-01 0.145D+01
 Coeff-Com: -0.345D+01 0.328D+01
 Coeff:     -0.250D-03-0.299D-02 0.194D-01-0.247D-01-0.485D-02 0.546D-01
 Coeff:     -0.154D-01-0.154D+00 0.348D+00-0.480D+00-0.314D-01 0.145D+01
 Coeff:     -0.345D+01 0.328D+01
 Gap=     0.397 Goal=   None    Shift=    0.500
 Gap=     0.249 Goal=   None    Shift=    0.500
 RMSDP=1.29D-05 MaxDP=1.91D-04 DE=-8.96D-07 OVMax= 6.79D-04

 Cycle  15  Pass 1  IDiag  1:
 E= -196.958791224922     Delta-E=       -0.000000310337 Rises=F Damp=F
 DIIS: error= 4.71D-05 at cycle  15 NSaved=  15.
 NSaved=15 IEnMin=15 EnMin= -196.958791224922     IErMin=15 ErrMin= 4.71D-05
 ErrMax= 4.71D-05  0.00D+00 EMaxC= 1.00D+00 BMatC= 5.67D-08 BMatP= 1.64D-07
 IDIUse=1 WtCom= 1.00D+00 WtEn= 0.00D+00
 Coeff-Com:  0.177D-03 0.857D-03-0.758D-02 0.105D-01 0.539D-03-0.203D-01
 Coeff-Com:  0.103D-01 0.657D-01-0.166D+00 0.261D+00-0.839D-01-0.811D+00
 Coeff-Com:  0.247D+01-0.465D+01 0.392D+01
 Coeff:      0.177D-03 0.857D-03-0.758D-02 0.105D-01 0.539D-03-0.203D-01
 Coeff:      0.103D-01 0.657D-01-0.166D+00 0.261D+00-0.839D-01-0.811D+00
 Coeff:      0.247D+01-0.465D+01 0.392D+01
 Gap=     0.397 Goal=   None    Shift=    0.500
 Gap=     0.249 Goal=   None    Shift=    0.500
 RMSDP=7.46D-06 MaxDP=1.08D-04 DE=-3.10D-07 OVMax= 3.94D-04

 Cycle  16  Pass 1  IDiag  1:
 E= -196.958791327194     Delta-E=       -0.000000102272 Rises=F Damp=F
 DIIS: error= 2.55D-05 at cycle  16 NSaved=  16.
 NSaved=16 IEnMin=16 EnMin= -196.958791327194     IErMin=16 ErrMin= 2.55D-05
 ErrMax= 2.55D-05  0.00D+00 EMaxC= 1.00D+00 BMatC= 1.99D-08 BMatP= 5.67D-08
 IDIUse=1 WtCom= 1.00D+00 WtEn= 0.00D+00
 Coeff-Com:  0.190D-04 0.550D-03-0.622D-03-0.978D-03 0.735D-02-0.135D-01
 Coeff-Com:  0.567D-02 0.768D-02 0.482D-01-0.198D+00 0.305D+00-0.277D+00
 Coeff-Com: -0.252D+00 0.160D+01-0.365D+01 0.342D+01
 Coeff:      0.190D-04 0.550D-03-0.622D-03-0.978D-03 0.735D-02-0.135D-01
 Coeff:      0.567D-02 0.768D-02 0.482D-01-0.198D+00 0.305D+00-0.277D+00
 Coeff:     -0.252D+00 0.160D+01-0.365D+01 0.342D+01
 Gap=     0.397 Goal=   None    Shift=    0.500
 Gap=     0.249 Goal=   None    Shift=    0.500
 RMSDP=4.19D-06 MaxDP=5.87D-05 DE=-1.02D-07 OVMax= 2.22D-04

 Cycle  17  Pass 1  IDiag  1:
 E= -196.958791359854     Delta-E=       -0.000000032661 Rises=F Damp=F
 DIIS: error= 1.37D-05 at cycle  17 NSaved=  17.
 NSaved=17 IEnMin=17 EnMin= -196.958791359854     IErMin=17 ErrMin= 1.37D-05
 ErrMax= 1.37D-05  0.00D+00 EMaxC= 1.00D+00 BMatC= 6.83D-09 BMatP= 1.99D-08
 IDIUse=1 WtCom= 1.00D+00 WtEn= 0.00D+00
 Coeff-Com:  0.448D-04-0.285D-03-0.634D-04 0.101D-02-0.313D-02 0.319D-02
 Coeff-Com:  0.209D-02 0.341D-03-0.295D-01 0.897D-01-0.120D+00 0.476D-01
 Coeff-Com:  0.279D+00-0.112D+01 0.263D+01-0.470D+01 0.392D+01
 Coeff:      0.448D-04-0.285D-03-0.634D-04 0.101D-02-0.313D-02 0.319D-02
 Coeff:      0.209D-02 0.341D-03-0.295D-01 0.897D-01-0.120D+00 0.476D-01
 Coeff:      0.279D+00-0.112D+01 0.263D+01-0.470D+01 0.392D+01
 Gap=     0.397 Goal=   None    Shift=    0.500
 Gap=     0.249 Goal=   None    Shift=    0.500
 RMSDP=2.28D-06 MaxDP=3.09D-05 DE=-3.27D-08 OVMax= 1.21D-04

 Cycle  18  Pass 1  IDiag  1:
 E= -196.958791369983     Delta-E=       -0.000000010129 Rises=F Damp=F
 DIIS: error= 7.35D-06 at cycle  18 NSaved=  18.
 NSaved=18 IEnMin=18 EnMin= -196.958791369983     IErMin=18 ErrMin= 7.35D-06
 ErrMax= 7.35D-06  0.00D+00 EMaxC= 1.00D+00 BMatC= 2.28D-09 BMatP= 6.83D-09
 IDIUse=1 WtCom= 1.00D+00 WtEn= 0.00D+00
 Coeff-Com:  0.224D-04 0.300D-03-0.153D-02 0.170D-02 0.184D-02-0.747D-02
 Coeff-Com:  0.430D-02 0.116D-01-0.186D-01 0.716D-02 0.345D-01-0.123D+00
 Coeff-Com:  0.217D+00-0.207D+00-0.223D+00 0.143D+01-0.356D+01 0.343D+01
 Coeff:      0.224D-04 0.300D-03-0.153D-02 0.170D-02 0.184D-02-0.747D-02
 Coeff:      0.430D-02 0.116D-01-0.186D-01 0.716D-02 0.345D-01-0.123D+00
 Coeff:      0.217D+00-0.207D+00-0.223D+00 0.143D+01-0.356D+01 0.343D+01
 Gap=     0.397 Goal=   None    Shift=    0.500
 Gap=     0.249 Goal=   None    Shift=    0.500
 RMSDP=1.21D-06 MaxDP=1.64D-05 DE=-1.01D-08 OVMax= 6.45D-05

 Cycle  19  Pass 1  IDiag  1:
 E= -196.958791373083     Delta-E=       -0.000000003100 Rises=F Damp=F
 DIIS: error= 4.17D-06 at cycle  19 NSaved=  19.
 NSaved=19 IEnMin=19 EnMin= -196.958791373083     IErMin=19 ErrMin= 4.17D-06
 ErrMax= 4.17D-06  0.00D+00 EMaxC= 1.00D+00 BMatC= 7.37D-10 BMatP= 2.28D-09
 IDIUse=1 WtCom= 1.00D+00 WtEn= 0.00D+00
 Coeff-Com:  0.454D-05 0.944D-04-0.326D-03 0.266D-03 0.629D-03-0.226D-02
 Coeff-Com:  0.197D-02 0.220D-02-0.408D-02 0.570D-03 0.562D-02-0.885D-02
 Coeff-Com: -0.284D-02 0.373D-01-0.311D-01-0.330D+00 0.126D+01-0.301D+01
 Coeff-Com:  0.308D+01
 Coeff:      0.454D-05 0.944D-04-0.326D-03 0.266D-03 0.629D-03-0.226D-02
 Coeff:      0.197D-02 0.220D-02-0.408D-02 0.570D-03 0.562D-02-0.885D-02
 Coeff:     -0.284D-02 0.373D-01-0.311D-01-0.330D+00 0.126D+01-0.301D+01
 Coeff:      0.308D+01
 Gap=     0.397 Goal=   None    Shift=    0.500
 Gap=     0.249 Goal=   None    Shift=    0.500
 RMSDP=6.47D-07 MaxDP=8.91D-06 DE=-3.10D-09 OVMax= 3.46D-05

 SCF Done:  E(ULC-wHPBE) =  -196.958791373     A.U. after   19 cycles
            NFock= 19  Conv=0.65D-06     -V/T= 2.0209
 <Sx>= 0.0000 <Sy>= 0.0000 <Sz>= 0.5000 <S**2>= 0.8153 S= 0.5321
 <L.S>= 0.000000000000E+00
 KE= 1.929291468545D+02 PE=-7.526260435705D+02 EE= 2.067253628569D+02
 Annihilation of the first spin contaminant:
 S**2 before annihilation     0.8153,   after     0.7524
 Leave Link  502 at Thu Mar  5 12:53:20 2020, MaxMem=  6710886400 cpu:              38.9 elap:               2.5
 (Enter /opt/ohpc/pub/libs/gaussian/g16-A.03/sandybridge/g16/l508.exe)
 QCSCF skips out because SCF is already converged.
 Leave Link  508 at Thu Mar  5 12:53:21 2020, MaxMem=  6710886400 cpu:               0.6 elap:               0.1
 (Enter /opt/ohpc/pub/libs/gaussian/g16-A.03/sandybridge/g16/l601.exe)
 Copying SCF densities to generalized density rwf, IOpCl= 1 IROHF=0.

 **********************************************************************

            Population analysis using the SCF density.

 **********************************************************************

 Orbital symmetries:
 Alpha Orbitals:
       Occupied  (B2) (A1) (A1) (B2) (A1) (A1) (A1) (B2) (A1) (B2)
                 (A1) (B2) (A1) (A1) (B1) (B2) (A2) (B1)
       Virtual   (A2) (B2) (B1) (A1) (A1) (B2) (A1) (A1) (B2) (A1)
                 (B2) (A1) (B2) (B1) (B2) (B1) (A2) (A1) (A1) (B2)
                 (A1) (A2) (B1) (B2) (B2) (A1) (A1) (A1) (B2) (A1)
                 (B2) (A1) (A1) (B2) (A1) (B2) (A1) (A1) (B2)
 Beta  Orbitals:
       Occupied  (B2) (A1) (B2) (A1) (A1) (A1) (A1) (B2) (A1) (B2)
                 (A1) (B2) (A1) (A1) (B2) (B1) (A2)
       Virtual   (B1) (B2) (A2) (A1) (B1) (A1) (B2) (A1) (B2) (A1)
                 (A1) (B2) (A1) (B2) (B2) (B1) (A2) (A1) (B1) (A1)
                 (B2) (A1) (A2) (B1) (B2) (B2) (A1) (A1) (B2) (A1)
                 (B2) (A1) (A1) (A1) (B2) (A1) (B2) (A1) (A1) (B2)
 The electronic state is 2-B1.
 Alpha  occ. eigenvalues --  -10.45495 -10.45492 -10.40485 -10.39623 -10.39622
 Alpha  occ. eigenvalues --   -1.32153  -1.19226  -1.14288  -1.00507  -0.98209
 Alpha  occ. eigenvalues --   -0.93514  -0.83660  -0.81466  -0.80321  -0.79175
 Alpha  occ. eigenvalues --   -0.77972  -0.64354  -0.63338
 Alpha virt. eigenvalues --   -0.23658  -0.23147  -0.16735  -0.16080  -0.09501
 Alpha virt. eigenvalues --   -0.04743  -0.02766  -0.00344  -0.00333   0.10405
 Alpha virt. eigenvalues --    0.10740   0.20960   0.21335   0.29498   0.30424
 Alpha virt. eigenvalues --    0.37175   0.37727   0.38535   0.40486   0.41311
 Alpha virt. eigenvalues --    0.41661   0.45102   0.46584   0.54350   0.61084
 Alpha virt. eigenvalues --    0.63388   0.64483   0.67037   0.67099   0.73163
 Alpha virt. eigenvalues --    0.73311   0.77619   0.81852   0.88474   0.96543
 Alpha virt. eigenvalues --    0.97496   1.03382   1.24829   1.26357
  Beta  occ. eigenvalues --  -10.44876 -10.44870 -10.39951 -10.39951 -10.39510
  Beta  occ. eigenvalues --   -1.30847  -1.17286  -1.14058  -0.99407  -0.97465
  Beta  occ. eigenvalues --   -0.93265  -0.83385  -0.81201  -0.79758  -0.77827
  Beta  occ. eigenvalues --   -0.74596  -0.62971
  Beta virt. eigenvalues --   -0.38104  -0.21610  -0.20606  -0.15852  -0.13214
  Beta virt. eigenvalues --   -0.09085  -0.04477  -0.02564  -0.00400   0.00312
  Beta virt. eigenvalues --    0.10895   0.11075   0.21377   0.21700   0.30834
  Beta virt. eigenvalues --    0.31925   0.38830   0.39103   0.40130   0.40861
  Beta virt. eigenvalues --    0.41688   0.42808   0.45668   0.48252   0.54917
  Beta virt. eigenvalues --    0.61519   0.64293   0.64957   0.66987   0.67497
  Beta virt. eigenvalues --    0.73604   0.73852   0.78442   0.82654   0.88463
  Beta virt. eigenvalues --    0.97031   0.98020   1.04584   1.25778   1.27232
          Condensed to atoms (all electrons):
               1          2          3          4          5          6
     1  C    5.373020   0.495924  -0.043741  -0.123926   0.178717   0.161967
     2  C    0.495924   4.964042   0.458740  -0.027429  -0.123926  -0.021027
     3  C   -0.043741   0.458740   4.885343   0.458740  -0.043741   0.007192
     4  C   -0.123926  -0.027429   0.458740   4.964042   0.495924  -0.021027
     5  C    0.178717  -0.123926  -0.043741   0.495924   5.373020   0.161967
     6  H    0.161967  -0.021027   0.007192  -0.021027   0.161967   0.347772
     7  H    0.335220   0.004613  -0.000355   0.003143  -0.015523  -0.009639
     8  H   -0.023295   0.360358  -0.011710   0.003787   0.000832   0.000362
     9  H    0.004889  -0.026166   0.363073  -0.026166   0.004889  -0.000036
    10  H    0.000832   0.003787  -0.011710   0.360358  -0.023295   0.000362
    11  H   -0.015523   0.003143  -0.000355   0.004613   0.335220  -0.009639
               7          8          9         10         11
     1  C    0.335220  -0.023295   0.004889   0.000832  -0.015523
     2  C    0.004613   0.360358  -0.026166   0.003787   0.003143
     3  C   -0.000355  -0.011710   0.363073  -0.011710  -0.000355
     4  C    0.003143   0.003787  -0.026166   0.360358   0.004613
     5  C   -0.015523   0.000832   0.004889  -0.023295   0.335220
     6  H   -0.009639   0.000362  -0.000036   0.000362  -0.009639
     7  H    0.339984   0.000115  -0.000050  -0.000016   0.000392
     8  H    0.000115   0.378908  -0.001152  -0.000081  -0.000016
     9  H   -0.000050  -0.001152   0.397915  -0.001152  -0.000050
    10  H   -0.000016  -0.000081  -0.001152   0.378908   0.000115
    11  H    0.000392  -0.000016  -0.000050   0.000115   0.339984
          Atomic-Atomic Spin Densities.
               1          2          3          4          5          6
     1  C    0.521824  -0.040662  -0.022742  -0.009532   0.022775  -0.004179
     2  C   -0.040662  -0.271712   0.027788   0.000029  -0.009532   0.000371
     3  C   -0.022742   0.027788   0.730900   0.027788  -0.022742   0.000208
     4  C   -0.009532   0.000029   0.027788  -0.271712  -0.040662   0.000371
     5  C    0.022775  -0.009532  -0.022742  -0.040662   0.521824  -0.004179
     6  H   -0.004179   0.000371   0.000208   0.000371  -0.004179  -0.016041
     7  H   -0.003013  -0.000550   0.000119  -0.000109   0.000189  -0.000136
     8  H   -0.000392   0.002117  -0.001119  -0.000134   0.000071   0.000024
     9  H   -0.000015  -0.000025  -0.001272  -0.000025  -0.000015  -0.000001
    10  H    0.000071  -0.000134  -0.001119   0.002117  -0.000392   0.000024
    11  H    0.000189  -0.000109   0.000119  -0.000550  -0.003013  -0.000136
               7          8          9         10         11
     1  C   -0.003013  -0.000392  -0.000015   0.000071   0.000189
     2  C   -0.000550   0.002117  -0.000025  -0.000134  -0.000109
     3  C    0.000119  -0.001119  -0.001272  -0.001119   0.000119
     4  C   -0.000109  -0.000134  -0.000025   0.002117  -0.000550
     5  C    0.000189   0.000071  -0.000015  -0.000392  -0.003013
     6  H   -0.000136   0.000024  -0.000001   0.000024  -0.000136
     7  H   -0.018998   0.000053   0.000004  -0.000000  -0.000076
     8  H    0.000053   0.007959   0.000008   0.000000  -0.000000
     9  H    0.000004   0.000008  -0.028874   0.000008   0.000004
    10  H   -0.000000   0.000000   0.000008   0.007959   0.000053
    11  H   -0.000076  -0.000000   0.000004   0.000053  -0.018998
 Mulliken charges and spin densities:
               1          2
     1  C   -0.344086   0.464323
     2  C   -0.092059  -0.292419
     3  C   -0.061477   0.737928
     4  C   -0.092059  -0.292419
     5  C   -0.344086   0.464323
     6  H    0.381748  -0.023674
     7  H    0.342116  -0.022516
     8  H    0.291892   0.008587
     9  H    0.284005  -0.030203
    10  H    0.291892   0.008587
    11  H    0.342116  -0.022516
 Sum of Mulliken charges =   1.00000   1.00000
 Mulliken charges and spin densities with hydrogens summed into heavy atoms:
               1          2
     1  C    0.379778   0.418133
     2  C    0.199832  -0.283832
     3  C    0.222527   0.707725
     4  C    0.199832  -0.283832
     5  C   -0.001970   0.441807
 Electronic spatial extent (au):  <R**2>=            317.8250
 Charge=              1.0000 electrons
 Dipole moment (field-independent basis, Debye):
    X=             -0.0000    Y=             -0.0000    Z=             -2.0443  Tot=              2.0443
 Quadrupole moment (field-independent basis, Debye-Ang):
   XX=            -30.8653   YY=            -17.0055   ZZ=            -12.6853
   XY=              0.0000   XZ=              0.0000   YZ=              0.0000
 Traceless Quadrupole moment (field-independent basis, Debye-Ang):
   XX=            -10.6799   YY=              3.1798   ZZ=              7.5001
   XY=              0.0000   XZ=              0.0000   YZ=              0.0000
 Octapole moment (field-independent basis, Debye-Ang**2):
  XXX=              0.0000  YYY=              0.0000  ZZZ=             -7.5845  XYY=             -0.0000
  XXY=              0.0000  XXZ=              0.6539  XZZ=              0.0000  YZZ=             -0.0000
  YYZ=             -2.7172  XYZ=             -0.0000
 Hexadecapole moment (field-independent basis, Debye-Ang**3):
 XXXX=            -30.3761 YYYY=           -140.1899 ZZZZ=           -121.1011 XXXY=             -0.0000
 XXXZ=             -0.0000 YYYX=             -0.0000 YYYZ=             -0.0000 ZZZX=              0.0000
 ZZZY=             -0.0000 XXYY=            -41.4391 XXZZ=            -38.0416 YYZZ=            -41.2855
 XXYZ=              0.0000 YYXZ=             -0.0000 ZZXY=             -0.0000
 N-N= 1.560127424860D+02 E-N=-7.526260479632D+02  KE= 1.929291468545D+02
 Symmetry A1   KE= 1.114744417102D+02
 Symmetry A2   KE= 2.556416722953D+00
 Symmetry B1   KE= 3.295452364168D+00
 Symmetry B2   KE= 7.560283605715D+01
 Symmetry A1   SP= 2.923613415029D-14
 Symmetry A2   SP=-3.122502256758D-16
 Symmetry B1   SP= 1.000000000000D+00
 Symmetry B2   SP= 1.632197930415D-14
                          Isotropic Fermi Contact Couplings
        Atom                 a.u.       MegaHertz       Gauss      10(-4) cm-1
     1  C(13)              0.07459      83.85090      29.92009      27.96965
     2  C(13)             -0.05229     -58.77887     -20.97376     -19.60652
     3  C(13)              0.11034     124.04863      44.26364      41.37817
     4  C(13)             -0.05229     -58.77887     -20.97376     -19.60652
     5  C(13)              0.07459      83.85090      29.92009      27.96965
     6  H(1)              -0.00899     -40.17752     -14.33634     -13.40178
     7  H(1)              -0.00977     -43.66526     -15.58085     -14.56516
     8  H(1)               0.00347      15.51317       5.53549       5.17464
     9  H(1)              -0.01380     -61.68933     -22.01229     -20.57734
    10  H(1)               0.00347      15.51317       5.53549       5.17464
    11  H(1)              -0.00977     -43.66526     -15.58085     -14.56516
 --------------------------------------------------------
       Center         ----  Spin Dipole Couplings  ----
                      3XX-RR        3YY-RR        3ZZ-RR
 --------------------------------------------------------
     1   Atom        0.485416     -0.236411     -0.249005
     2   Atom       -0.194775      0.095445      0.099329
     3   Atom        0.703503     -0.359517     -0.343986
     4   Atom       -0.194775      0.095445      0.099329
     5   Atom        0.485416     -0.236411     -0.249005
     6   Atom       -0.008048      0.007802      0.000246
     7   Atom       -0.006604      0.006819     -0.000215
     8   Atom       -0.006222     -0.001067      0.007289
     9   Atom       -0.008542     -0.045791      0.054333
    10   Atom       -0.006222     -0.001067      0.007289
    11   Atom       -0.006604      0.006819     -0.000215
 --------------------------------------------------------
                        XY            XZ            YZ
 --------------------------------------------------------
     1   Atom       -0.000000      0.000000     -0.008217
     2   Atom       -0.000000      0.000000     -0.005339
     3   Atom       -0.000000     -0.000000      0.000000
     4   Atom       -0.000000     -0.000000      0.005339
     5   Atom        0.000000      0.000000      0.008217
     6   Atom       -0.000000      0.000000     -0.000000
     7   Atom        0.000000      0.000000     -0.035271
     8   Atom       -0.000000      0.000000     -0.006206
     9   Atom       -0.000000     -0.000000      0.000000
    10   Atom        0.000000     -0.000000      0.006206
    11   Atom       -0.000000     -0.000000      0.035271
 --------------------------------------------------------


 ---------------------------------------------------------------------------------
              Anisotropic Spin Dipole Couplings in Principal Axis System
 ---------------------------------------------------------------------------------

       Atom             a.u.   MegaHertz   Gauss  10(-4) cm-1        Axes

              Baa    -0.2531   -33.958   -12.117   -11.327 -0.0000  0.4426  0.8967
     1 C(13)  Bbb    -0.2324   -31.180   -11.126   -10.400 -0.0000  0.8967 -0.4426
              Bcc     0.4854    65.138    23.243    21.728  1.0000  0.0000  0.0000
 
              Baa    -0.1948   -26.137    -9.326    -8.718  1.0000  0.0000  0.0000
     2 C(13)  Bbb     0.0917    12.306     4.391     4.105 -0.0000  0.8191  0.5737
              Bcc     0.1031    13.831     4.935     4.613  0.0000 -0.5737  0.8191
 
              Baa    -0.3595   -48.244   -17.215   -16.092 -0.0000  1.0000  0.0000
     3 C(13)  Bbb    -0.3440   -46.160   -16.471   -15.397  0.0000  0.0000  1.0000
              Bcc     0.7035    94.403    33.685    31.490  1.0000 -0.0000  0.0000
 
              Baa    -0.1948   -26.137    -9.326    -8.718  1.0000  0.0000  0.0000
     4 C(13)  Bbb     0.0917    12.306     4.391     4.105 -0.0000  0.8191 -0.5737
              Bcc     0.1031    13.831     4.935     4.613 -0.0000  0.5737  0.8191
 
              Baa    -0.2531   -33.958   -12.117   -11.327 -0.0000 -0.4426  0.8967
     5 C(13)  Bbb    -0.2324   -31.180   -11.126   -10.400  0.0000  0.8967  0.4426
              Bcc     0.4854    65.138    23.243    21.728  1.0000 -0.0000  0.0000
 
              Baa    -0.0080    -4.294    -1.532    -1.432  1.0000  0.0000 -0.0000
     6 H(1)   Bbb     0.0002     0.131     0.047     0.044  0.0000  0.0000  1.0000
              Bcc     0.0078     4.163     1.485     1.389 -0.0000  1.0000 -0.0000
 
              Baa    -0.0321   -17.151    -6.120    -5.721 -0.0000  0.6711  0.7414
     7 H(1)   Bbb    -0.0066    -3.524    -1.257    -1.175  1.0000  0.0000  0.0000
              Bcc     0.0387    20.674     7.377     6.896 -0.0000  0.7414 -0.6711
 
              Baa    -0.0062    -3.320    -1.185    -1.107  1.0000  0.0000  0.0000
     8 H(1)   Bbb    -0.0044    -2.332    -0.832    -0.778 -0.0000  0.8827  0.4699
              Bcc     0.0106     5.652     2.017     1.885  0.0000 -0.4699  0.8827
 
              Baa    -0.0458   -24.432    -8.718    -8.150 -0.0000  1.0000 -0.0000
     9 H(1)   Bbb    -0.0085    -4.558    -1.626    -1.520  1.0000  0.0000  0.0000
              Bcc     0.0543    28.990    10.344     9.670  0.0000  0.0000  1.0000
 
              Baa    -0.0062    -3.320    -1.185    -1.107  1.0000 -0.0000  0.0000
    10 H(1)   Bbb    -0.0044    -2.332    -0.832    -0.778  0.0000  0.8827 -0.4699
              Bcc     0.0106     5.652     2.017     1.885  0.0000  0.4699  0.8827
 
              Baa    -0.0321   -17.151    -6.120    -5.721  0.0000 -0.6711  0.7414
    11 H(1)   Bbb    -0.0066    -3.524    -1.257    -1.175  1.0000  0.0000  0.0000
              Bcc     0.0387    20.674     7.377     6.896 -0.0000  0.7414  0.6711
 

 ---------------------------------------------------------------------------------

 No NMR shielding tensors so no spin-rotation constants.
 Leave Link  601 at Thu Mar  5 12:53:21 2020, MaxMem=  6710886400 cpu:               3.0 elap:               0.2
 (Enter /opt/ohpc/pub/libs/gaussian/g16-A.03/sandybridge/g16/l9999.exe)

 Test job not archived.
 1\1\GINC-CNODE212\SP\ULC-wHPBE\6-31G\C5H6(1+,2)\SMGO234\05-Mar-2020\0\
 \#P uLC-wHPBE/6-31G iop(3/130=0244500000, 3/131=0244500000, 3/119=0755
 500000, 3/120=0755500000) scf=(conver=6,fermi,ndamp=35,noincfock,novar
 acc,vshift=500,xqc)\\H6 C5\\1,2\C,0,0.,0.878804,-0.931542\C,0,0.,1.128
 157,0.423457\C,0,0.,0.,1.240879\C,0,0.,-1.128157,0.423457\C,0,0.,-0.87
 8804,-0.931542\H,0,0.,0.,-1.732269\H,0,0.,1.6083,-1.734053\H,0,0.,2.15
 6626,0.76567\H,0,0.,0.,2.320778\H,0,0.,-2.156626,0.76567\H,0,0.,-1.608
 3,-1.734053\\Version=EM64L-G16RevA.03\State=2-B1\HF=-196.9587914\S2=0.
 815252\S2-1=0.\S2A=0.752415\RMSD=6.467e-07\Dipole=0.,0.,-0.8042786\Qua
 drupole=-7.9402734,2.3641254,5.5761479,0.,0.,0.\PG=C02V [C2(H1C1H1),SG
 V(C4H4)]\\@


 MISERY NO LONGER LOVES COMPANY.  NOWADAYS IT INSISTS ON IT.

                                              -- BAKER'S LAW
 Job cpu time:       0 days  0 hours  1 minutes  8.0 seconds.
 Elapsed time:       0 days  0 hours  0 minutes  5.1 seconds.
 File lengths (MBytes):  RWF=    272 Int=      0 D2E=      0 Chk=     32 Scr=     32
 Normal termination of Gaussian 16 at Thu Mar  5 12:53:21 2020.
