 Entering Gaussian System, Link 0=g16
 Input=a1b_tune_n1.gjf
 Output=a1b_tune_n1.log
 Initial command:
 /opt/ohpc/pub/libs/gaussian/g16-A.03/sandybridge/g16/l1.exe "/scratch/smgo234/Ocelot/test/a1b/tuning_a1b_acycle1/Gau-78648.inp" -scrdir="/scratch/smgo234/Ocelot/test/a1b/tuning_a1b_acycle1/"
 Entering Link 1 = /opt/ohpc/pub/libs/gaussian/g16-A.03/sandybridge/g16/l1.exe PID=     78649.
  
 Copyright (c) 1988,1990,1992,1993,1995,1998,2003,2009,2016,
            Gaussian, Inc.  All Rights Reserved.
  
 This is part of the Gaussian(R) 16 program.  It is based on
 the Gaussian(R) 09 system (copyright 2009, Gaussian, Inc.),
 the Gaussian(R) 03 system (copyright 2003, Gaussian, Inc.),
 the Gaussian(R) 98 system (copyright 1998, Gaussian, Inc.),
 the Gaussian(R) 94 system (copyright 1995, Gaussian, Inc.),
 the Gaussian 92(TM) system (copyright 1992, Gaussian, Inc.),
 the Gaussian 90(TM) system (copyright 1990, Gaussian, Inc.),
 the Gaussian 88(TM) system (copyright 1988, Gaussian, Inc.),
 the Gaussian 86(TM) system (copyright 1986, Carnegie Mellon
 University), and the Gaussian 82(TM) system (copyright 1983,
 Carnegie Mellon University). Gaussian is a federally registered
 trademark of Gaussian, Inc.
  
 This software contains proprietary and confidential information,
 including trade secrets, belonging to Gaussian, Inc.
  
 This software is provided under written license and may be
 used, copied, transmitted, or stored only in accord with that
 written license.
  
 The following legend is applicable only to US Government
 contracts under FAR:
  
                    RESTRICTED RIGHTS LEGEND
  
 Use, reproduction and disclosure by the US Government is
 subject to restrictions as set forth in subparagraphs (a)
 and (c) of the Commercial Computer Software - Restricted
 Rights clause in FAR 52.227-19.
  
 Gaussian, Inc.
 340 Quinnipiac St., Bldg. 40, Wallingford CT 06492
  
  
 ---------------------------------------------------------------
 Warning -- This program may not be used in any manner that
 competes with the business of Gaussian, Inc. or will provide
 assistance to any competitor of Gaussian, Inc.  The licensee
 of this program is prohibited from giving any competitor of
 Gaussian, Inc. access to this program.  By using this program,
 the user acknowledges that Gaussian, Inc. is engaged in the
 business of creating and licensing software in the field of
 computational chemistry and represents and warrants to the
 licensee that it is not a competitor of Gaussian, Inc. and that
 it will not use this program in any manner prohibited above.
 ---------------------------------------------------------------
  

 Cite this work as:
 Gaussian 16, Revision A.03,
 M. J. Frisch, G. W. Trucks, H. B. Schlegel, G. E. Scuseria, 
 M. A. Robb, J. R. Cheeseman, G. Scalmani, V. Barone, 
 G. A. Petersson, H. Nakatsuji, X. Li, M. Caricato, A. V. Marenich, 
 J. Bloino, B. G. Janesko, R. Gomperts, B. Mennucci, H. P. Hratchian, 
 J. V. Ortiz, A. F. Izmaylov, J. L. Sonnenberg, D. Williams-Young, 
 F. Ding, F. Lipparini, F. Egidi, J. Goings, B. Peng, A. Petrone, 
 T. Henderson, D. Ranasinghe, V. G. Zakrzewski, J. Gao, N. Rega, 
 G. Zheng, W. Liang, M. Hada, M. Ehara, K. Toyota, R. Fukuda, 
 J. Hasegawa, M. Ishida, T. Nakajima, Y. Honda, O. Kitao, H. Nakai, 
 T. Vreven, K. Throssell, J. A. Montgomery, Jr., J. E. Peralta, 
 F. Ogliaro, M. J. Bearpark, J. J. Heyd, E. N. Brothers, K. N. Kudin, 
 V. N. Staroverov, T. A. Keith, R. Kobayashi, J. Normand, 
 K. Raghavachari, A. P. Rendell, J. C. Burant, S. S. Iyengar, 
 J. Tomasi, M. Cossi, J. M. Millam, M. Klene, C. Adamo, R. Cammi, 
 J. W. Ochterski, R. L. Martin, K. Morokuma, O. Farkas, 
 J. B. Foresman, and D. J. Fox, Gaussian, Inc., Wallingford CT, 2016.
 
 ******************************************
 Gaussian 16:  EM64L-G16RevA.03 25-Dec-2016
                 5-Mar-2020 
 ******************************************
 %mem=50GB
 %nproc=16
 Will use up to   16 processors via shared memory.
 ----------------------------------------------------------------------
 #P uLC-wHPBE/6-31G iop(3/130=0320700000, 3/131=0320700000, 3/119=06793
 00000, 3/120=0679300000) scf=(conver=6,fermi,ndamp=35,noincfock,novara
 cc,vshift=500,xqc)
 ----------------------------------------------------------------------
 1/38=1,172=1/1;
 2/12=2,17=6,18=5,40=1/2;
 3/5=1,6=6,11=2,25=1,30=1,74=-71,116=2,119=679300000,120=679300000,130=320700000,131=320700000/1,2,3;
 4//1;
 5/5=100002,6=6,8=3,10=500,13=1,18=-1,22=13,38=1,93=35/2,8;
 6/7=2,8=2,9=2,10=2,28=1/1;
 99/5=1,9=1/99;
 Leave Link    1 at Thu Mar  5 12:51:46 2020, MaxMem=  6710886400 cpu:              16.3 elap:               1.1
 (Enter /opt/ohpc/pub/libs/gaussian/g16-A.03/sandybridge/g16/l101.exe)
 -----
 H6 C5
 -----
 Symbolic Z-matrix:
 Charge =  0 Multiplicity = 1
 C                     0.        0.8788   -0.93154 
 C                     0.        1.12816   0.42346 
 C                     0.        0.        1.24088 
 C                     0.       -1.12816   0.42346 
 C                     0.       -0.8788   -0.93154 
 H                     0.        0.       -1.73227 
 H                     0.        1.6083   -1.73405 
 H                     0.        2.15663   0.76567 
 H                     0.        0.        2.32078 
 H                     0.       -2.15663   0.76567 
 H                     0.       -1.6083   -1.73405 
 
 ITRead=  0  0  0  0  0  0  0  0  0  0  0
 MicOpt= -1 -1 -1 -1 -1 -1 -1 -1 -1 -1 -1
 NAtoms=     11 NQM=       11 NQMF=       0 NMMI=      0 NMMIF=      0
                NMic=       0 NMicF=      0.
                    Isotopes and Nuclear Properties:
 (Nuclear quadrupole moments (NQMom) in fm**2, nuclear magnetic moments (NMagM)
  in nuclear magnetons)

  Atom         1           2           3           4           5           6           7           8           9          10
 IAtWgt=          12          12          12          12          12           1           1           1           1           1
 AtmWgt=  12.0000000  12.0000000  12.0000000  12.0000000  12.0000000   1.0078250   1.0078250   1.0078250   1.0078250   1.0078250
 NucSpn=           0           0           0           0           0           1           1           1           1           1
 AtZEff=  -0.0000000  -0.0000000  -0.0000000  -0.0000000  -0.0000000  -0.0000000  -0.0000000  -0.0000000  -0.0000000  -0.0000000
 NQMom=    0.0000000   0.0000000   0.0000000   0.0000000   0.0000000   0.0000000   0.0000000   0.0000000   0.0000000   0.0000000
 NMagM=    0.0000000   0.0000000   0.0000000   0.0000000   0.0000000   2.7928460   2.7928460   2.7928460   2.7928460   2.7928460
 AtZNuc=   6.0000000   6.0000000   6.0000000   6.0000000   6.0000000   1.0000000   1.0000000   1.0000000   1.0000000   1.0000000

  Atom        11
 IAtWgt=           1
 AtmWgt=   1.0078250
 NucSpn=           1
 AtZEff=  -0.0000000
 NQMom=    0.0000000
 NMagM=    2.7928460
 AtZNuc=   1.0000000
 Leave Link  101 at Thu Mar  5 12:51:46 2020, MaxMem=  6710886400 cpu:               2.5 elap:               0.2
 (Enter /opt/ohpc/pub/libs/gaussian/g16-A.03/sandybridge/g16/l202.exe)
                          Input orientation:                          
 ---------------------------------------------------------------------
 Center     Atomic      Atomic             Coordinates (Angstroms)
 Number     Number       Type             X           Y           Z
 ---------------------------------------------------------------------
      1          6           0        0.000000    0.878804   -0.931542
      2          6           0        0.000000    1.128157    0.423457
      3          6           0        0.000000    0.000000    1.240879
      4          6           0        0.000000   -1.128157    0.423457
      5          6           0        0.000000   -0.878804   -0.931542
      6          1           0        0.000000    0.000000   -1.732269
      7          1           0        0.000000    1.608300   -1.734053
      8          1           0        0.000000    2.156626    0.765670
      9          1           0        0.000000    0.000000    2.320778
     10          1           0        0.000000   -2.156626    0.765670
     11          1           0        0.000000   -1.608300   -1.734053
 ---------------------------------------------------------------------
                    Distance matrix (angstroms):
                    1          2          3          4          5
     1  C    0.000000
     2  C    1.377752   0.000000
     3  C    2.343440   1.393168   0.000000
     4  C    2.421552   2.256314   1.393168   0.000000
     5  C    1.757608   2.421552   2.343440   1.377752   0.000000
     6  H    1.188890   2.433083   2.973148   2.433083   1.188890
     7  H    1.084522   2.210291   3.381841   3.484687   2.613371
     8  H    2.124466   1.083909   2.208361   3.302561   3.477695
     9  H    3.368959   2.207389   1.079899   2.207389   3.368959
    10  H    3.477695   3.302561   2.208361   1.083909   2.124466
    11  H    2.613371   3.484687   3.381841   2.210291   1.084522
                    6          7          8          9         10
     6  H    0.000000
     7  H    1.608301   0.000000
     8  H    3.300111   2.559155   0.000000
     9  H    4.053047   4.362142   2.658834   0.000000
    10  H    3.300111   4.519213   4.313252   2.658834   0.000000
    11  H    1.608301   3.216600   4.519213   4.362142   2.559155
                   11
    11  H    0.000000
 Stoichiometry    C5H6
 Framework group  C2V[C2(HCH),SGV(C4H4)]
 Deg. of freedom    10
 Full point group                 C2V     NOp   4
 Largest Abelian subgroup         C2V     NOp   4
 Largest concise Abelian subgroup C2      NOp   2
                         Standard orientation:                         
 ---------------------------------------------------------------------
 Center     Atomic      Atomic             Coordinates (Angstroms)
 Number     Number       Type             X           Y           Z
 ---------------------------------------------------------------------
      1          6           0        0.000000    0.878804   -0.931542
      2          6           0        0.000000    1.128157    0.423457
      3          6           0        0.000000   -0.000000    1.240879
      4          6           0       -0.000000   -1.128157    0.423457
      5          6           0       -0.000000   -0.878804   -0.931542
      6          1           0       -0.000000    0.000000   -1.732269
      7          1           0        0.000000    1.608300   -1.734053
      8          1           0        0.000000    2.156626    0.765670
      9          1           0        0.000000   -0.000000    2.320778
     10          1           0       -0.000000   -2.156626    0.765670
     11          1           0       -0.000000   -1.608300   -1.734053
 ---------------------------------------------------------------------
 Rotational constants (GHZ):           8.5259551           7.9375455           4.1106177
 Leave Link  202 at Thu Mar  5 12:51:46 2020, MaxMem=  6710886400 cpu:               0.1 elap:               0.0
 (Enter /opt/ohpc/pub/libs/gaussian/g16-A.03/sandybridge/g16/l301.exe)
 Standard basis: 6-31G (6D, 7F)
 Ernie: Thresh=  0.10000D-02 Tol=  0.10000D-05 Strict=F.
 There are    27 symmetry adapted cartesian basis functions of A1  symmetry.
 There are     4 symmetry adapted cartesian basis functions of A2  symmetry.
 There are     6 symmetry adapted cartesian basis functions of B1  symmetry.
 There are    20 symmetry adapted cartesian basis functions of B2  symmetry.
 There are    27 symmetry adapted basis functions of A1  symmetry.
 There are     4 symmetry adapted basis functions of A2  symmetry.
 There are     6 symmetry adapted basis functions of B1  symmetry.
 There are    20 symmetry adapted basis functions of B2  symmetry.
    57 basis functions,   134 primitive gaussians,    57 cartesian basis functions
    18 alpha electrons       18 beta electrons
       nuclear repulsion energy       156.0127424860 Hartrees.
 IExCor=33909 DFT=T Ex+Corr=LC-wHPBE ExCW=0 ScaHFX=  1.000000
 ScaDFX=  1.000000  1.000000  1.000000  1.000000 ScalE2=  1.000000  1.000000
 IRadAn=      5 IRanWt=     -1 IRanGd=            0 ICorTp=0 IEmpDi=  4
 HFx  wShort=  0.000000 wLong=  0.400000 cFull=  0.000000 cShort=  0.000000 cLong=  0.679300
 DFx  wShort=  0.000000 wLong=  0.400000 cFull=  0.000000 cShort=  1.000000 cLong=  0.679300
 NAtoms=   11 NActive=   11 NUniq=    7 SFac= 2.47D+00 NAtFMM=   60 NAOKFM=F Big=F
 Integral buffers will be    131072 words long.
 Raffenetti 2 integral format.
 Two-electron integral symmetry is turned on.
 Leave Link  301 at Thu Mar  5 12:51:46 2020, MaxMem=  6710886400 cpu:               0.9 elap:               0.1
 (Enter /opt/ohpc/pub/libs/gaussian/g16-A.03/sandybridge/g16/l302.exe)
 NPDir=0 NMtPBC=     1 NCelOv=     1 NCel=       1 NClECP=     1 NCelD=      1
         NCelK=      1 NCelE2=     1 NClLst=     1 CellRange=     0.0.
 One-electron integrals computed using PRISM.
 One-electron integral symmetry used in STVInt
 NBasis=    57 RedAO= T EigKep=  1.84D-03  NBF=    27     4     6    20
 NBsUse=    57 1.00D-06 EigRej= -1.00D+00 NBFU=    27     4     6    20
 Precomputing XC quadrature grid using
 IXCGrd= 4 IRadAn=           5 IRanWt=          -1 IRanGd=           0 AccXCQ= 0.00D+00.
 Generated NRdTot=       0 NPtTot=           0 NUsed=           0 NTot=          32
 NSgBfM=    57    57    57    57    57 MxSgAt=    11 MxSgA2=    11.
 Leave Link  302 at Thu Mar  5 12:51:46 2020, MaxMem=  6710886400 cpu:               2.0 elap:               0.1
 (Enter /opt/ohpc/pub/libs/gaussian/g16-A.03/sandybridge/g16/l303.exe)
 DipDrv:  MaxL=1.
 Leave Link  303 at Thu Mar  5 12:51:46 2020, MaxMem=  6710886400 cpu:               0.4 elap:               0.0
 (Enter /opt/ohpc/pub/libs/gaussian/g16-A.03/sandybridge/g16/l401.exe)
 ExpMin= 1.61D-01 ExpMax= 3.05D+03 ExpMxC= 4.57D+02 IAcc=3 IRadAn=         5 AccDes= 0.00D+00
 Harris functional with IExCor=33909 and IRadAn=       5 diagonalized for initial guess.
 HarFok:  IExCor=33909 AccDes= 0.00D+00 IRadAn=         5 IDoV= 1 UseB2=F ITyADJ=14
 ICtDFT=  3500011 ScaDFX=  1.000000  1.000000  1.000000  1.000000
 FoFCou: FMM=F IPFlag=           0 FMFlag=      100000 FMFlg1=           0
         NFxFlg=           0 DoJE=T BraDBF=F KetDBF=T FulRan=T
         wScrn=  0.000000 ICntrl=       500 IOpCl=  0 I1Cent=   200000004 NGrid=           0
         NMat0=    1 NMatS0=      1 NMatT0=    0 NMatD0=    1 NMtDS0=    0 NMtDT0=    0
 Petite list used in FoFCou.
 Harris En= -191.526493026481    
 JPrj=0 DoOrth=F DoCkMO=F.
 Initial guess orbital symmetries:
 Alpha Orbitals:
       Occupied  (A1) (B2) (A1) (B2) (A1) (A1) (A1) (B2) (A1) (B2)
                 (A1) (B2) (A1) (B2) (A1) (B1) (A2) (B1)
       Virtual   (A2) (B2) (B1) (A1) (A1) (B2) (A1) (B2) (A1) (B2)
                 (A1) (B2) (A1) (B2) (B1) (A1) (A2) (B1) (B2) (A1)
                 (A1) (A2) (B1) (B2) (B2) (A1) (B2) (A1) (A1) (B2)
                 (A1) (A1) (A1) (B2) (A1) (B2) (A1) (A1) (B2)
 Beta  Orbitals:
       Occupied  (A1) (B2) (A1) (B2) (A1) (A1) (A1) (B2) (A1) (B2)
                 (A1) (B2) (A1) (B2) (A1) (B1) (A2) (B1)
       Virtual   (A2) (B2) (B1) (A1) (A1) (B2) (A1) (B2) (A1) (B2)
                 (A1) (B2) (A1) (B2) (B1) (A1) (A2) (B1) (B2) (A1)
                 (A1) (A2) (B1) (B2) (B2) (A1) (B2) (A1) (A1) (B2)
                 (A1) (A1) (A1) (B2) (A1) (B2) (A1) (A1) (B2)
 The electronic state of the initial guess is 1-A1.
 Initial guess <Sx>= 0.0000 <Sy>= 0.0000 <Sz>= 0.0000 <S**2>=-0.0000 S=-0.0000
 Leave Link  401 at Thu Mar  5 12:51:46 2020, MaxMem=  6710886400 cpu:               3.0 elap:               0.2
 (Enter /opt/ohpc/pub/libs/gaussian/g16-A.03/sandybridge/g16/l502.exe)
 Keep R1 and R2 ints in memory in symmetry-blocked form, NReq=16815681.
 FoFCou: FMM=F IPFlag=           0 FMFlag=           0 FMFlg1=           0
         NFxFlg=           0 DoJE=F BraDBF=F KetDBF=F FulRan=T
         wScrn=  0.000000 ICntrl=       600 IOpCl=  0 I1Cent=           0 NGrid=           0
         NMat0=    1 NMatS0=   1653 NMatT0=    0 NMatD0=    1 NMtDS0=    0 NMtDT0=    0
 Petite list used in FoFCou.
 UHF open shell SCF:
 Using DIIS extrapolation, IDIIS=    10.
 NGot=  6710886400 LenX=  6710059561 LenY=  6710055871
 Requested convergence on RMS density matrix=1.00D-06 within  32 cycles.
 Requested convergence on MAX density matrix=1.00D-04.
 Requested convergence on             energy=1.00D-04.
 Virtual orbitals will be shifted by   0.500 hartree.
 No special actions if energy rises.
 Dynamic level shift is on during FON iterations.

 Cycle   1  Pass 1  IDiag  1:
 E= -196.140598905825    
 DIIS: error= 4.33D-02 at cycle   1 NSaved=   1.
 NSaved= 1 IEnMin= 1 EnMin= -196.140598905825     IErMin= 1 ErrMin= 4.33D-02
 ErrMax= 4.33D-02  0.00D+00 EMaxC= 1.00D+00 BMatC= 3.45D-01 BMatP= 3.45D-01
 IDIUse=1 WtCom= 1.00D+00 WtEn= 0.00D+00
 Coeff-Com:  0.100D+01
 Coeff:      0.100D+01
 Gap=     0.291 Goal=   None    Shift=    0.500
 T= 1717. Gap= 0.747 NK=0 IS=   19 IE=   57 IFin=   18
          NO(<0.9)=   0  NV(>0.1)=   0     18.00e < EF      0.00e >EF  Err=0.0D+00
 Gap=     0.291 Goal=   None    Shift=    0.500
 T= 1717. Gap= 0.747 NK=0 IS=   19 IE=   57 IFin=   18
          NO(<0.9)=   0  NV(>0.1)=   0     18.00e < EF      0.00e >EF  Err=0.0D+00
 GapD=    0.291 DampG=1.000 DampE=0.500 DampFc=0.5000 IDamp=-1.
 Damping current iteration by 5.00D-01
 RMSDP=7.30D-03 MaxDP=6.42D-02              OVMax= 8.39D-02

 Cycle   2  Pass 1  IDiag  1:
 E= -196.205708715250     Delta-E=       -0.065109809425 Rises=F Damp=T
 DIIS: error= 1.84D-02 at cycle   2 NSaved=   2.
 NSaved= 2 IEnMin= 2 EnMin= -196.205708715250     IErMin= 2 ErrMin= 1.84D-02
 ErrMax= 1.84D-02  0.00D+00 EMaxC= 1.00D+00 BMatC= 6.19D-02 BMatP= 3.45D-01
 IDIUse=1 WtCom= 1.00D+00 WtEn= 0.00D+00
 Coeff-Com: -0.655D+00 0.166D+01
 Coeff:     -0.655D+00 0.166D+01
 Gap=     0.351 Goal=   None    Shift=    0.500
 T= 1589. Gap= 0.838 NK=0 IS=   19 IE=   57 IFin=   18
          NO(<0.9)=   0  NV(>0.1)=   0     18.00e < EF      0.00e >EF  Err=0.0D+00
 Gap=     0.351 Goal=   None    Shift=    0.500
 T= 1589. Gap= 0.838 NK=0 IS=   19 IE=   57 IFin=   18
          NO(<0.9)=   0  NV(>0.1)=   0     18.00e < EF      0.00e >EF  Err=0.0D+00
 GapD=    0.351 DampG=1.000 DampE=0.500 DampFc=0.5000 IDamp=-1.
 Damping current iteration by 5.00D-01
 RMSDP=3.77D-03 MaxDP=2.54D-02 DE=-6.51D-02 OVMax= 9.33D-03

 Cycle   3  Pass 1  IDiag  1:
 E= -196.227978815872     Delta-E=       -0.022270100622 Rises=F Damp=T
 DIIS: error= 8.13D-03 at cycle   3 NSaved=   3.
 NSaved= 3 IEnMin= 3 EnMin= -196.227978815872     IErMin= 3 ErrMin= 8.13D-03
 ErrMax= 8.13D-03  0.00D+00 EMaxC= 1.00D+00 BMatC= 1.20D-02 BMatP= 6.19D-02
 IDIUse=1 WtCom= 1.00D+00 WtEn= 0.00D+00
 Coeff-Com:  0.142D+00-0.122D+01 0.208D+01
 Coeff:      0.142D+00-0.122D+01 0.208D+01
 Gap=     0.337 Goal=   None    Shift=    0.500
 T= 1345. Gap= 0.837 NK=0 IS=   19 IE=   57 IFin=   18
          NO(<0.9)=   0  NV(>0.1)=   0     18.00e < EF      0.00e >EF  Err=0.0D+00
 Gap=     0.337 Goal=   None    Shift=    0.500
 T= 1345. Gap= 0.837 NK=0 IS=   19 IE=   57 IFin=   18
          NO(<0.9)=   0  NV(>0.1)=   0     18.00e < EF      0.00e >EF  Err=0.0D+00
 GapD=    0.337 DampG=1.000 DampE=1.000 DampFc=1.0000 IDamp=-1.
 RMSDP=1.87D-03 MaxDP=1.24D-02 DE=-2.23D-02 OVMax= 6.43D-03

 Cycle   4  Pass 1  IDiag  1:
 E= -196.245867010911     Delta-E=       -0.017888195039 Rises=F Damp=F
 DIIS: error= 1.78D-03 at cycle   4 NSaved=   4.
 NSaved= 4 IEnMin= 4 EnMin= -196.245867010911     IErMin= 4 ErrMin= 1.78D-03
 ErrMax= 1.78D-03  0.00D+00 EMaxC= 1.00D+00 BMatC= 4.53D-04 BMatP= 1.20D-02
 IDIUse=1 WtCom= 1.00D+00 WtEn= 0.00D+00
 Coeff-Com:  0.112D+00-0.140D+00-0.147D+00 0.118D+01
 Coeff:      0.112D+00-0.140D+00-0.147D+00 0.118D+01
 Gap=     0.338 Goal=   None    Shift=    0.500
 T=  803. Gap= 0.838 NK=0 IS=   19 IE=   57 IFin=   18
          NO(<0.9)=   0  NV(>0.1)=   0     18.00e < EF      0.00e >EF  Err=0.0D+00
 Gap=     0.338 Goal=   None    Shift=    0.500
 T=  803. Gap= 0.838 NK=0 IS=   19 IE=   57 IFin=   18
          NO(<0.9)=   0  NV(>0.1)=   0     18.00e < EF      0.00e >EF  Err=0.0D+00
 GapD=    0.338 DampG=1.000 DampE=1.000 DampFc=1.0000 IDamp=-1.
 RMSDP=3.54D-04 MaxDP=2.87D-03 DE=-1.79D-02 OVMax= 2.75D-03

 Cycle   5  Pass 1  IDiag  1:
 E= -196.246032612426     Delta-E=       -0.000165601515 Rises=F Damp=F
 DIIS: error= 6.06D-04 at cycle   5 NSaved=   5.
 NSaved= 5 IEnMin= 5 EnMin= -196.246032612426     IErMin= 5 ErrMin= 6.06D-04
 ErrMax= 6.06D-04  0.00D+00 EMaxC= 1.00D+00 BMatC= 6.24D-05 BMatP= 4.53D-04
 IDIUse=1 WtCom= 1.00D+00 WtEn= 0.00D+00
 Coeff-Com: -0.392D-01 0.188D+00-0.244D+00-0.676D+00 0.177D+01
 Coeff:     -0.392D-01 0.188D+00-0.244D+00-0.676D+00 0.177D+01
 Gap=     0.338 Goal=   None    Shift=    0.500
 Gap=     0.338 Goal=   None    Shift=    0.500
 RMSDP=1.97D-04 MaxDP=1.64D-03 DE=-1.66D-04 OVMax= 2.23D-03

 Cycle   6  Pass 1  IDiag  1:
 E= -196.246072038455     Delta-E=       -0.000039426029 Rises=F Damp=F
 DIIS: error= 4.54D-04 at cycle   6 NSaved=   6.
 NSaved= 6 IEnMin= 6 EnMin= -196.246072038455     IErMin= 6 ErrMin= 4.54D-04
 ErrMax= 4.54D-04  0.00D+00 EMaxC= 1.00D+00 BMatC= 1.14D-05 BMatP= 6.24D-05
 IDIUse=1 WtCom= 1.00D+00 WtEn= 0.00D+00
 Coeff-Com: -0.314D-02-0.324D-01 0.730D-01 0.165D+00-0.154D+01 0.233D+01
 Coeff:     -0.314D-02-0.324D-01 0.730D-01 0.165D+00-0.154D+01 0.233D+01
 Gap=     0.338 Goal=   None    Shift=    0.500
 Gap=     0.338 Goal=   None    Shift=    0.500
 RMSDP=9.70D-05 MaxDP=7.80D-04 DE=-3.94D-05 OVMax= 1.41D-03

 Cycle   7  Pass 1  IDiag  1:
 E= -196.246082522160     Delta-E=       -0.000010483706 Rises=F Damp=F
 DIIS: error= 3.05D-04 at cycle   7 NSaved=   7.
 NSaved= 7 IEnMin= 7 EnMin= -196.246082522160     IErMin= 7 ErrMin= 3.05D-04
 ErrMax= 3.05D-04  0.00D+00 EMaxC= 1.00D+00 BMatC= 2.93D-06 BMatP= 1.14D-05
 IDIUse=1 WtCom= 1.00D+00 WtEn= 0.00D+00
 Coeff-Com:  0.107D-02 0.307D-01-0.670D-01 0.102D+00 0.341D+00-0.218D+01
 Coeff-Com:  0.278D+01
 Coeff:      0.107D-02 0.307D-01-0.670D-01 0.102D+00 0.341D+00-0.218D+01
 Coeff:      0.278D+01
 Gap=     0.338 Goal=   None    Shift=    0.500
 Gap=     0.338 Goal=   None    Shift=    0.500
 RMSDP=4.45D-05 MaxDP=3.68D-04 DE=-1.05D-05 OVMax= 8.44D-04

 Cycle   8  Pass 1  IDiag  1:
 E= -196.246085509584     Delta-E=       -0.000002987423 Rises=F Damp=F
 DIIS: error= 2.03D-04 at cycle   8 NSaved=   8.
 NSaved= 8 IEnMin= 8 EnMin= -196.246085509584     IErMin= 8 ErrMin= 2.03D-04
 ErrMax= 2.03D-04  0.00D+00 EMaxC= 1.00D+00 BMatC= 1.02D-06 BMatP= 2.93D-06
 IDIUse=1 WtCom= 1.00D+00 WtEn= 0.00D+00
 Coeff-Com: -0.566D-03 0.345D-01-0.680D-01 0.501D-01 0.427D+00-0.156D+01
 Coeff-Com:  0.909D+00 0.120D+01
 Coeff:     -0.566D-03 0.345D-01-0.680D-01 0.501D-01 0.427D+00-0.156D+01
 Coeff:      0.909D+00 0.120D+01
 Gap=     0.338 Goal=   None    Shift=    0.500
 Gap=     0.338 Goal=   None    Shift=    0.500
 RMSDP=2.05D-05 MaxDP=1.65D-04 DE=-2.99D-06 OVMax= 5.01D-04

 Cycle   9  Pass 1  IDiag  1:
 E= -196.246086397704     Delta-E=       -0.000000888120 Rises=F Damp=F
 DIIS: error= 1.20D-04 at cycle   9 NSaved=   9.
 NSaved= 9 IEnMin= 9 EnMin= -196.246086397704     IErMin= 9 ErrMin= 1.20D-04
 ErrMax= 1.20D-04  0.00D+00 EMaxC= 1.00D+00 BMatC= 3.44D-07 BMatP= 1.02D-06
 IDIUse=1 WtCom= 1.00D+00 WtEn= 0.00D+00
 Coeff-Com: -0.131D-02 0.926D-02-0.139D-01-0.442D-02 0.447D-01 0.210D+00
 Coeff-Com: -0.751D+00-0.521D+00 0.203D+01
 Coeff:     -0.131D-02 0.926D-02-0.139D-01-0.442D-02 0.447D-01 0.210D+00
 Coeff:     -0.751D+00-0.521D+00 0.203D+01
 Gap=     0.338 Goal=   None    Shift=    0.500
 Gap=     0.338 Goal=   None    Shift=    0.500
 RMSDP=1.04D-05 MaxDP=8.31D-05 DE=-8.88D-07 OVMax= 2.84D-04

 Cycle  10  Pass 1  IDiag  1:
 E= -196.246086664942     Delta-E=       -0.000000267238 Rises=F Damp=F
 DIIS: error= 7.39D-05 at cycle  10 NSaved=  10.
 NSaved=10 IEnMin=10 EnMin= -196.246086664942     IErMin=10 ErrMin= 7.39D-05
 ErrMax= 7.39D-05  0.00D+00 EMaxC= 1.00D+00 BMatC= 1.31D-07 BMatP= 3.44D-07
 IDIUse=1 WtCom= 1.00D+00 WtEn= 0.00D+00
 Coeff-Com:  0.519D-03-0.411D-02 0.603D-02 0.156D-01-0.973D-01 0.110D+00
 Coeff-Com:  0.343D+00-0.567D+00-0.159D+01 0.278D+01
 Coeff:      0.519D-03-0.411D-02 0.603D-02 0.156D-01-0.973D-01 0.110D+00
 Coeff:      0.343D+00-0.567D+00-0.159D+01 0.278D+01
 Gap=     0.338 Goal=   None    Shift=    0.500
 Gap=     0.338 Goal=   None    Shift=    0.500
 RMSDP=5.29D-06 MaxDP=4.53D-05 DE=-2.67D-07 OVMax= 1.65D-04

 Cycle  11  Pass 1  IDiag  1:
 E= -196.246086749407     Delta-E=       -0.000000084465 Rises=F Damp=F
 DIIS: error= 4.45D-05 at cycle  11 NSaved=  11.
 NSaved=11 IEnMin=11 EnMin= -196.246086749407     IErMin=11 ErrMin= 4.45D-05
 ErrMax= 4.45D-05  0.00D+00 EMaxC= 1.00D+00 BMatC= 4.99D-08 BMatP= 1.31D-07
 IDIUse=1 WtCom= 1.00D+00 WtEn= 0.00D+00
 Coeff-Com: -0.131D-03 0.142D-02-0.243D-02 0.144D-02 0.837D-02-0.134D-01
 Coeff-Com:  0.126D-01-0.396D-01 0.489D+00-0.251D+01 0.305D+01
 Coeff:     -0.131D-03 0.142D-02-0.243D-02 0.144D-02 0.837D-02-0.134D-01
 Coeff:      0.126D-01-0.396D-01 0.489D+00-0.251D+01 0.305D+01
 Gap=     0.338 Goal=   None    Shift=    0.500
 Gap=     0.338 Goal=   None    Shift=    0.500
 RMSDP=2.70D-06 MaxDP=2.48D-05 DE=-8.45D-08 OVMax= 9.57D-05

 Cycle  12  Pass 1  IDiag  1:
 E= -196.246086777012     Delta-E=       -0.000000027605 Rises=F Damp=F
 DIIS: error= 2.62D-05 at cycle  12 NSaved=  12.
 NSaved=12 IEnMin=12 EnMin= -196.246086777012     IErMin=12 ErrMin= 2.62D-05
 ErrMax= 2.62D-05  0.00D+00 EMaxC= 1.00D+00 BMatC= 1.82D-08 BMatP= 4.99D-08
 IDIUse=1 WtCom= 1.00D+00 WtEn= 0.00D+00
 Coeff-Com: -0.673D-04 0.507D-03-0.772D-03 0.446D-03-0.138D-02 0.786D-02
 Coeff-Com: -0.148D-01-0.167D-01 0.112D+00 0.537D+00-0.310D+01 0.347D+01
 Coeff:     -0.673D-04 0.507D-03-0.772D-03 0.446D-03-0.138D-02 0.786D-02
 Coeff:     -0.148D-01-0.167D-01 0.112D+00 0.537D+00-0.310D+01 0.347D+01
 Gap=     0.338 Goal=   None    Shift=    0.500
 Gap=     0.338 Goal=   None    Shift=    0.500
 RMSDP=1.42D-06 MaxDP=1.33D-05 DE=-2.76D-08 OVMax= 5.45D-05

 Cycle  13  Pass 1  IDiag  1:
 E= -196.246086785959     Delta-E=       -0.000000008947 Rises=F Damp=F
 DIIS: error= 1.54D-05 at cycle  13 NSaved=  13.
 NSaved=13 IEnMin=13 EnMin= -196.246086785959     IErMin=13 ErrMin= 1.54D-05
 ErrMax= 1.54D-05  0.00D+00 EMaxC= 1.00D+00 BMatC= 6.54D-09 BMatP= 1.82D-08
 IDIUse=1 WtCom= 1.00D+00 WtEn= 0.00D+00
 Coeff-Com:  0.915D-04-0.680D-03 0.100D-02 0.172D-02-0.127D-01 0.179D-01
 Coeff-Com:  0.303D-01-0.455D-01-0.166D+00 0.332D+00 0.533D+00-0.321D+01
 Coeff-Com:  0.352D+01
 Coeff:      0.915D-04-0.680D-03 0.100D-02 0.172D-02-0.127D-01 0.179D-01
 Coeff:      0.303D-01-0.455D-01-0.166D+00 0.332D+00 0.533D+00-0.321D+01
 Coeff:      0.352D+01
 Gap=     0.338 Goal=   None    Shift=    0.500
 Gap=     0.338 Goal=   None    Shift=    0.500
 RMSDP=7.71D-07 MaxDP=7.51D-06 DE=-8.95D-09 OVMax= 3.11D-05

 SCF Done:  E(ULC-wHPBE) =  -196.246086786     A.U. after   13 cycles
            NFock= 13  Conv=0.77D-06     -V/T= 2.0171
 <Sx>= 0.0000 <Sy>= 0.0000 <Sz>= 0.0000 <S**2>=-0.0000 S=-0.0000
 <L.S>= 0.000000000000E+00
 KE= 1.929555463687D+02 PE=-7.615319688348D+02 EE= 2.163175931941D+02
 Annihilation of the first spin contaminant:
 S**2 before annihilation    -0.0000,   after    -0.0000
 Leave Link  502 at Thu Mar  5 12:51:48 2020, MaxMem=  6710886400 cpu:              26.0 elap:               1.7
 (Enter /opt/ohpc/pub/libs/gaussian/g16-A.03/sandybridge/g16/l508.exe)
 QCSCF skips out because SCF is already converged.
 Leave Link  508 at Thu Mar  5 12:51:48 2020, MaxMem=  6710886400 cpu:               0.1 elap:               0.0
 (Enter /opt/ohpc/pub/libs/gaussian/g16-A.03/sandybridge/g16/l601.exe)
 Copying SCF densities to generalized density rwf, IOpCl= 1 IROHF=0.

 **********************************************************************

            Population analysis using the SCF density.

 **********************************************************************

 Orbital symmetries:
 Alpha Orbitals:
       Occupied  (B2) (A1) (B2) (A1) (A1) (A1) (A1) (B2) (A1) (B2)
                 (A1) (B2) (A1) (A1) (B2) (B1) (A2) (B1)
       Virtual   (A2) (B2) (A1) (B1) (A1) (B2) (A1) (B2) (A1) (A1)
                 (B2) (A1) (B2) (B2) (B1) (A2) (B1) (A1) (A1) (B2)
                 (A1) (A2) (B1) (B2) (B2) (A1) (B2) (A1) (A1) (B2)
                 (A1) (A1) (A1) (B2) (A1) (B2) (A1) (A1) (B2)
 Beta  Orbitals:
       Occupied  (B2) (A1) (B2) (A1) (A1) (A1) (A1) (B2) (A1) (B2)
                 (A1) (B2) (A1) (A1) (B2) (B1) (A2) (B1)
       Virtual   (A2) (B2) (A1) (B1) (A1) (B2) (A1) (B2) (A1) (A1)
                 (B2) (A1) (B2) (B2) (B1) (A2) (B1) (A1) (A1) (B2)
                 (A1) (A2) (B1) (B2) (B2) (A1) (B2) (A1) (A1) (B2)
                 (A1) (A1) (A1) (B2) (A1) (B2) (A1) (A1) (B2)
 The electronic state is 1-A1.
 Alpha  occ. eigenvalues --  -10.14401 -10.14398 -10.10666 -10.10666 -10.07239
 Alpha  occ. eigenvalues --   -1.01039  -0.88262  -0.85254  -0.70931  -0.69594
 Alpha  occ. eigenvalues --   -0.65482  -0.54877  -0.54135  -0.51039  -0.49700
 Alpha  occ. eigenvalues --   -0.48751  -0.35117  -0.30986
 Alpha virt. eigenvalues --    0.02802   0.03411   0.07804   0.10109   0.11705
 Alpha virt. eigenvalues --    0.16500   0.18197   0.20011   0.20845   0.33253
 Alpha virt. eigenvalues --    0.34580   0.44578   0.45190   0.54052   0.55603
 Alpha virt. eigenvalues --    0.62139   0.63035   0.63041   0.64982   0.66396
 Alpha virt. eigenvalues --    0.67625   0.68630   0.71171   0.78468   0.84249
 Alpha virt. eigenvalues --    0.87062   0.88687   0.88874   0.90682   0.97638
 Alpha virt. eigenvalues --    0.97860   1.01037   1.05503   1.11977   1.20022
 Alpha virt. eigenvalues --    1.21686   1.28567   1.49618   1.50697
  Beta  occ. eigenvalues --  -10.14401 -10.14398 -10.10666 -10.10666 -10.07239
  Beta  occ. eigenvalues --   -1.01039  -0.88262  -0.85254  -0.70931  -0.69594
  Beta  occ. eigenvalues --   -0.65482  -0.54877  -0.54135  -0.51039  -0.49700
  Beta  occ. eigenvalues --   -0.48751  -0.35117  -0.30986
  Beta virt. eigenvalues --    0.02802   0.03411   0.07804   0.10109   0.11705
  Beta virt. eigenvalues --    0.16500   0.18197   0.20011   0.20845   0.33253
  Beta virt. eigenvalues --    0.34580   0.44578   0.45190   0.54052   0.55603
  Beta virt. eigenvalues --    0.62139   0.63035   0.63041   0.64982   0.66396
  Beta virt. eigenvalues --    0.67625   0.68630   0.71171   0.78468   0.84249
  Beta virt. eigenvalues --    0.87062   0.88687   0.88874   0.90682   0.97638
  Beta virt. eigenvalues --    0.97860   1.01037   1.05503   1.11977   1.20022
  Beta virt. eigenvalues --    1.21686   1.28567   1.49618   1.50697
          Condensed to atoms (all electrons):
               1          2          3          4          5          6
     1  C    5.443197   0.473675  -0.055624  -0.129025   0.255762   0.166528
     2  C    0.473675   4.905926   0.557956  -0.016210  -0.129025  -0.018556
     3  C   -0.055624   0.557956   4.831357   0.557956  -0.055624   0.004498
     4  C   -0.129025  -0.016210   0.557956   4.905926   0.473675  -0.018556
     5  C    0.255762  -0.129025  -0.055624   0.473675   5.443197   0.166528
     6  H    0.166528  -0.018556   0.004498  -0.018556   0.166528   0.389899
     7  H    0.344664  -0.000664   0.000033   0.004087  -0.024675  -0.011905
     8  H   -0.037889   0.363638  -0.016883   0.004557   0.001870   0.000897
     9  H    0.006628  -0.039653   0.373710  -0.039653   0.006628  -0.000109
    10  H    0.001870   0.004557  -0.016883   0.363638  -0.037889   0.000897
    11  H   -0.024675   0.004087   0.000033  -0.000664   0.344664  -0.011905
               7          8          9         10         11
     1  C    0.344664  -0.037889   0.006628   0.001870  -0.024675
     2  C   -0.000664   0.363638  -0.039653   0.004557   0.004087
     3  C    0.000033  -0.016883   0.373710  -0.016883   0.000033
     4  C    0.004087   0.004557  -0.039653   0.363638  -0.000664
     5  C   -0.024675   0.001870   0.006628  -0.037889   0.344664
     6  H   -0.011905   0.000897  -0.000109   0.000897  -0.011905
     7  H    0.462746  -0.000314  -0.000106  -0.000038   0.000822
     8  H   -0.000314   0.510710  -0.002135  -0.000169  -0.000038
     9  H   -0.000106  -0.002135   0.548717  -0.002135  -0.000106
    10  H   -0.000038  -0.000169  -0.002135   0.510710  -0.000314
    11  H    0.000822  -0.000038  -0.000106  -0.000314   0.462746
          Atomic-Atomic Spin Densities.
               1          2          3          4          5          6
     1  C    0.000000  -0.000000   0.000000  -0.000000   0.000000  -0.000000
     2  C   -0.000000   0.000000  -0.000000   0.000000  -0.000000   0.000000
     3  C    0.000000  -0.000000  -0.000000  -0.000000   0.000000  -0.000000
     4  C   -0.000000   0.000000  -0.000000   0.000000  -0.000000   0.000000
     5  C    0.000000  -0.000000   0.000000  -0.000000   0.000000  -0.000000
     6  H   -0.000000   0.000000  -0.000000   0.000000  -0.000000  -0.000000
     7  H    0.000000   0.000000  -0.000000   0.000000  -0.000000  -0.000000
     8  H   -0.000000   0.000000  -0.000000   0.000000  -0.000000   0.000000
     9  H    0.000000  -0.000000   0.000000  -0.000000   0.000000  -0.000000
    10  H   -0.000000   0.000000  -0.000000   0.000000  -0.000000   0.000000
    11  H   -0.000000   0.000000  -0.000000   0.000000   0.000000  -0.000000
               7          8          9         10         11
     1  C    0.000000  -0.000000   0.000000  -0.000000  -0.000000
     2  C    0.000000   0.000000  -0.000000   0.000000   0.000000
     3  C   -0.000000  -0.000000   0.000000  -0.000000  -0.000000
     4  C    0.000000   0.000000  -0.000000   0.000000   0.000000
     5  C   -0.000000  -0.000000   0.000000  -0.000000   0.000000
     6  H   -0.000000   0.000000  -0.000000   0.000000  -0.000000
     7  H   -0.000000  -0.000000   0.000000   0.000000  -0.000000
     8  H   -0.000000   0.000000  -0.000000   0.000000   0.000000
     9  H    0.000000  -0.000000   0.000000  -0.000000   0.000000
    10  H    0.000000   0.000000  -0.000000   0.000000  -0.000000
    11  H   -0.000000   0.000000   0.000000  -0.000000  -0.000000
 Mulliken charges and spin densities:
               1          2
     1  C   -0.445110  -0.000000
     2  C   -0.105731  -0.000000
     3  C   -0.180527  -0.000000
     4  C   -0.105731  -0.000000
     5  C   -0.445110  -0.000000
     6  H    0.331783  -0.000000
     7  H    0.225350   0.000000
     8  H    0.175756   0.000000
     9  H    0.148214   0.000000
    10  H    0.175756   0.000000
    11  H    0.225350   0.000000
 Sum of Mulliken charges =  -0.00000  -0.00000
 Mulliken charges and spin densities with hydrogens summed into heavy atoms:
               1          2
     1  C    0.112023  -0.000000
     2  C    0.070025  -0.000000
     3  C   -0.032313  -0.000000
     4  C    0.070025  -0.000000
     5  C   -0.219760  -0.000000
 Electronic spatial extent (au):  <R**2>=            335.5144
 Charge=             -0.0000 electrons
 Dipole moment (field-independent basis, Debye):
    X=             -0.0000    Y=             -0.0000    Z=             -1.9848  Tot=              1.9848
 Quadrupole moment (field-independent basis, Debye-Ang):
   XX=            -35.1174   YY=            -25.6560   ZZ=            -23.5755
   XY=              0.0000   XZ=              0.0000   YZ=             -0.0000
 Traceless Quadrupole moment (field-independent basis, Debye-Ang):
   XX=             -7.0011   YY=              2.4603   ZZ=              4.5408
   XY=              0.0000   XZ=              0.0000   YZ=             -0.0000
 Octapole moment (field-independent basis, Debye-Ang**2):
  XXX=              0.0000  YYY=              0.0000  ZZZ=             -8.8493  XYY=              0.0000
  XXY=             -0.0000  XXZ=              0.8297  XZZ=              0.0000  YZZ=              0.0000
  YYZ=             -1.0450  XYZ=             -0.0000
 Hexadecapole moment (field-independent basis, Debye-Ang**3):
 XXXX=            -37.3866 YYYY=           -183.4243 ZZZZ=           -170.3002 XXXY=             -0.0000
 XXXZ=             -0.0000 YYYX=             -0.0000 YYYZ=             -0.0000 ZZZX=             -0.0000
 ZZZY=             -0.0000 XXYY=            -46.7656 XXZZ=            -45.6931 YYZZ=            -58.1613
 XXYZ=              0.0000 YYXZ=             -0.0000 ZZXY=             -0.0000
 N-N= 1.560127424860D+02 E-N=-7.615319493034D+02  KE= 1.929555463687D+02
 Symmetry A1   KE= 1.109889946942D+02
 Symmetry A2   KE= 2.433355373008D+00
 Symmetry B1   KE= 4.270213027424D+00
 Symmetry B2   KE= 7.526298327413D+01
 Symmetry A1   SP=-1.707666347236D-14
 Symmetry A2   SP= 1.708738205266D-15
 Symmetry B1   SP=-1.733452192236D-15
 Symmetry B2   SP=-1.566091407420D-14
                          Isotropic Fermi Contact Couplings
        Atom                 a.u.       MegaHertz       Gauss      10(-4) cm-1
     1  C(13)             -0.00000      -0.00000      -0.00000      -0.00000
     2  C(13)             -0.00000      -0.00000      -0.00000      -0.00000
     3  C(13)             -0.00000      -0.00000      -0.00000      -0.00000
     4  C(13)             -0.00000      -0.00000      -0.00000      -0.00000
     5  C(13)             -0.00000      -0.00000      -0.00000      -0.00000
     6  H(1)              -0.00000      -0.00000      -0.00000      -0.00000
     7  H(1)              -0.00000      -0.00000      -0.00000      -0.00000
     8  H(1)               0.00000       0.00000       0.00000       0.00000
     9  H(1)               0.00000       0.00000       0.00000       0.00000
    10  H(1)               0.00000       0.00000       0.00000       0.00000
    11  H(1)              -0.00000      -0.00000      -0.00000      -0.00000
 --------------------------------------------------------
       Center         ----  Spin Dipole Couplings  ----
                      3XX-RR        3YY-RR        3ZZ-RR
 --------------------------------------------------------
     1   Atom        0.000000      0.000000      0.000000
     2   Atom        0.000000      0.000000      0.000000
     3   Atom        0.000000      0.000000      0.000000
     4   Atom        0.000000      0.000000      0.000000
     5   Atom        0.000000      0.000000      0.000000
     6   Atom        0.000000      0.000000      0.000000
     7   Atom        0.000000      0.000000      0.000000
     8   Atom        0.000000      0.000000      0.000000
     9   Atom        0.000000      0.000000      0.000000
    10   Atom        0.000000      0.000000      0.000000
    11   Atom        0.000000      0.000000      0.000000
 --------------------------------------------------------
                        XY            XZ            YZ
 --------------------------------------------------------
     1   Atom        0.000000      0.000000      0.000000
     2   Atom        0.000000      0.000000      0.000000
     3   Atom        0.000000      0.000000      0.000000
     4   Atom        0.000000      0.000000      0.000000
     5   Atom        0.000000      0.000000      0.000000
     6   Atom        0.000000      0.000000      0.000000
     7   Atom        0.000000      0.000000      0.000000
     8   Atom        0.000000      0.000000      0.000000
     9   Atom        0.000000      0.000000      0.000000
    10   Atom        0.000000      0.000000      0.000000
    11   Atom        0.000000      0.000000      0.000000
 --------------------------------------------------------


 ---------------------------------------------------------------------------------
              Anisotropic Spin Dipole Couplings in Principal Axis System
 ---------------------------------------------------------------------------------

       Atom             a.u.   MegaHertz   Gauss  10(-4) cm-1        Axes

              Baa     0.0000     0.000     0.000     0.000  1.0000  0.0000  0.0000
     1 C(13)  Bbb     0.0000     0.000     0.000     0.000 -0.0000  1.0000  0.0000
              Bcc     0.0000     0.000     0.000     0.000  0.0000  0.0000  1.0000
 
              Baa     0.0000     0.000     0.000     0.000  1.0000  0.0000  0.0000
     2 C(13)  Bbb     0.0000     0.000     0.000     0.000 -0.0000  1.0000  0.0000
              Bcc     0.0000     0.000     0.000     0.000  0.0000  0.0000  1.0000
 
              Baa     0.0000     0.000     0.000     0.000  1.0000  0.0000  0.0000
     3 C(13)  Bbb     0.0000     0.000     0.000     0.000 -0.0000  1.0000  0.0000
              Bcc     0.0000     0.000     0.000     0.000  0.0000  0.0000  1.0000
 
              Baa     0.0000     0.000     0.000     0.000  1.0000  0.0000  0.0000
     4 C(13)  Bbb     0.0000     0.000     0.000     0.000 -0.0000  1.0000  0.0000
              Bcc     0.0000     0.000     0.000     0.000  0.0000  0.0000  1.0000
 
              Baa     0.0000     0.000     0.000     0.000  1.0000  0.0000  0.0000
     5 C(13)  Bbb     0.0000     0.000     0.000     0.000 -0.0000  1.0000  0.0000
              Bcc     0.0000     0.000     0.000     0.000  0.0000  0.0000  1.0000
 
              Baa     0.0000     0.000     0.000     0.000  1.0000  0.0000  0.0000
     6 H(1)   Bbb     0.0000     0.000     0.000     0.000 -0.0000  1.0000  0.0000
              Bcc     0.0000     0.000     0.000     0.000  0.0000  0.0000  1.0000
 
              Baa     0.0000     0.000     0.000     0.000  1.0000  0.0000  0.0000
     7 H(1)   Bbb     0.0000     0.000     0.000     0.000 -0.0000  1.0000  0.0000
              Bcc     0.0000     0.000     0.000     0.000  0.0000  0.0000  1.0000
 
              Baa     0.0000     0.000     0.000     0.000  1.0000  0.0000  0.0000
     8 H(1)   Bbb     0.0000     0.000     0.000     0.000 -0.0000  1.0000  0.0000
              Bcc     0.0000     0.000     0.000     0.000  0.0000  0.0000  1.0000
 
              Baa     0.0000     0.000     0.000     0.000  1.0000  0.0000  0.0000
     9 H(1)   Bbb     0.0000     0.000     0.000     0.000 -0.0000  1.0000  0.0000
              Bcc     0.0000     0.000     0.000     0.000  0.0000  0.0000  1.0000
 
              Baa     0.0000     0.000     0.000     0.000  1.0000  0.0000  0.0000
    10 H(1)   Bbb     0.0000     0.000     0.000     0.000 -0.0000  1.0000  0.0000
              Bcc     0.0000     0.000     0.000     0.000  0.0000  0.0000  1.0000
 
              Baa     0.0000     0.000     0.000     0.000  1.0000  0.0000  0.0000
    11 H(1)   Bbb     0.0000     0.000     0.000     0.000 -0.0000  1.0000  0.0000
              Bcc     0.0000     0.000     0.000     0.000  0.0000  0.0000  1.0000
 

 ---------------------------------------------------------------------------------

 No NMR shielding tensors so no spin-rotation constants.
 Leave Link  601 at Thu Mar  5 12:51:48 2020, MaxMem=  6710886400 cpu:               1.9 elap:               0.1
 (Enter /opt/ohpc/pub/libs/gaussian/g16-A.03/sandybridge/g16/l9999.exe)

 Test job not archived.
 1\1\GINC-CNODE212\SP\ULC-wHPBE\6-31G\C5H6\SMGO234\05-Mar-2020\0\\#P uL
 C-wHPBE/6-31G iop(3/130=0320700000, 3/131=0320700000, 3/119=0679300000
 , 3/120=0679300000) scf=(conver=6,fermi,ndamp=35,noincfock,novaracc,vs
 hift=500,xqc)\\H6 C5\\0,1\C,0,0.,0.878804,-0.931542\C,0,0.,1.128157,0.
 423457\C,0,0.,0.,1.240879\C,0,0.,-1.128157,0.423457\C,0,0.,-0.878804,-
 0.931542\H,0,0.,0.,-1.732269\H,0,0.,1.6083,-1.734053\H,0,0.,2.156626,0
 .76567\H,0,0.,0.,2.320778\H,0,0.,-2.156626,0.76567\H,0,0.,-1.6083,-1.7
 34053\\Version=EM64L-G16RevA.03\State=1-A1\HF=-196.2460868\S2=0.\S2-1=
 0.\S2A=0.\RMSD=7.708e-07\Dipole=0.,0.,-0.7808845\Quadrupole=-5.2051217
 ,1.8291574,3.3759644,0.,0.,0.\PG=C02V [C2(H1C1H1),SGV(C4H4)]\\@


 HE THAT RISETH LATE MUST TROT ALL DAY.

                  -- BENJAMIN FRANKLIN
 Job cpu time:       0 days  0 hours  0 minutes 53.7 seconds.
 Elapsed time:       0 days  0 hours  0 minutes  3.7 seconds.
 File lengths (MBytes):  RWF=    272 Int=      0 D2E=      0 Chk=     32 Scr=     32
 Normal termination of Gaussian 16 at Thu Mar  5 12:51:48 2020.
