 Entering Gaussian System, Link 0=g16
 Input=a1b_tune_c4.gjf
 Output=a1b_tune_c4.log
 Initial command:
 /opt/ohpc/pub/libs/gaussian/g16-A.03/sandybridge/g16/l1.exe "/scratch/smgo234/Ocelot/test/a1b/tuning_a1b_acycle1/Gau-79841.inp" -scrdir="/scratch/smgo234/Ocelot/test/a1b/tuning_a1b_acycle1/"
 Entering Link 1 = /opt/ohpc/pub/libs/gaussian/g16-A.03/sandybridge/g16/l1.exe PID=     79842.
  
 Copyright (c) 1988,1990,1992,1993,1995,1998,2003,2009,2016,
            Gaussian, Inc.  All Rights Reserved.
  
 This is part of the Gaussian(R) 16 program.  It is based on
 the Gaussian(R) 09 system (copyright 2009, Gaussian, Inc.),
 the Gaussian(R) 03 system (copyright 2003, Gaussian, Inc.),
 the Gaussian(R) 98 system (copyright 1998, Gaussian, Inc.),
 the Gaussian(R) 94 system (copyright 1995, Gaussian, Inc.),
 the Gaussian 92(TM) system (copyright 1992, Gaussian, Inc.),
 the Gaussian 90(TM) system (copyright 1990, Gaussian, Inc.),
 the Gaussian 88(TM) system (copyright 1988, Gaussian, Inc.),
 the Gaussian 86(TM) system (copyright 1986, Carnegie Mellon
 University), and the Gaussian 82(TM) system (copyright 1983,
 Carnegie Mellon University). Gaussian is a federally registered
 trademark of Gaussian, Inc.
  
 This software contains proprietary and confidential information,
 including trade secrets, belonging to Gaussian, Inc.
  
 This software is provided under written license and may be
 used, copied, transmitted, or stored only in accord with that
 written license.
  
 The following legend is applicable only to US Government
 contracts under FAR:
  
                    RESTRICTED RIGHTS LEGEND
  
 Use, reproduction and disclosure by the US Government is
 subject to restrictions as set forth in subparagraphs (a)
 and (c) of the Commercial Computer Software - Restricted
 Rights clause in FAR 52.227-19.
  
 Gaussian, Inc.
 340 Quinnipiac St., Bldg. 40, Wallingford CT 06492
  
  
 ---------------------------------------------------------------
 Warning -- This program may not be used in any manner that
 competes with the business of Gaussian, Inc. or will provide
 assistance to any competitor of Gaussian, Inc.  The licensee
 of this program is prohibited from giving any competitor of
 Gaussian, Inc. access to this program.  By using this program,
 the user acknowledges that Gaussian, Inc. is engaged in the
 business of creating and licensing software in the field of
 computational chemistry and represents and warrants to the
 licensee that it is not a competitor of Gaussian, Inc. and that
 it will not use this program in any manner prohibited above.
 ---------------------------------------------------------------
  

 Cite this work as:
 Gaussian 16, Revision A.03,
 M. J. Frisch, G. W. Trucks, H. B. Schlegel, G. E. Scuseria, 
 M. A. Robb, J. R. Cheeseman, G. Scalmani, V. Barone, 
 G. A. Petersson, H. Nakatsuji, X. Li, M. Caricato, A. V. Marenich, 
 J. Bloino, B. G. Janesko, R. Gomperts, B. Mennucci, H. P. Hratchian, 
 J. V. Ortiz, A. F. Izmaylov, J. L. Sonnenberg, D. Williams-Young, 
 F. Ding, F. Lipparini, F. Egidi, J. Goings, B. Peng, A. Petrone, 
 T. Henderson, D. Ranasinghe, V. G. Zakrzewski, J. Gao, N. Rega, 
 G. Zheng, W. Liang, M. Hada, M. Ehara, K. Toyota, R. Fukuda, 
 J. Hasegawa, M. Ishida, T. Nakajima, Y. Honda, O. Kitao, H. Nakai, 
 T. Vreven, K. Throssell, J. A. Montgomery, Jr., J. E. Peralta, 
 F. Ogliaro, M. J. Bearpark, J. J. Heyd, E. N. Brothers, K. N. Kudin, 
 V. N. Staroverov, T. A. Keith, R. Kobayashi, J. Normand, 
 K. Raghavachari, A. P. Rendell, J. C. Burant, S. S. Iyengar, 
 J. Tomasi, M. Cossi, J. M. Millam, M. Klene, C. Adamo, R. Cammi, 
 J. W. Ochterski, R. L. Martin, K. Morokuma, O. Farkas, 
 J. B. Foresman, and D. J. Fox, Gaussian, Inc., Wallingford CT, 2016.
 
 ******************************************
 Gaussian 16:  EM64L-G16RevA.03 25-Dec-2016
                 5-Mar-2020 
 ******************************************
 %mem=50GB
 %nproc=16
 Will use up to   16 processors via shared memory.
 ----------------------------------------------------------------------
 #P uLC-wHPBE/6-31G iop(3/130=0277000000, 3/131=0277000000, 3/119=07230
 00000, 3/120=0723000000) scf=(conver=6,fermi,ndamp=35,noincfock,novara
 cc,vshift=500,xqc)
 ----------------------------------------------------------------------
 1/38=1,172=1/1;
 2/12=2,17=6,18=5,40=1/2;
 3/5=1,6=6,11=2,25=1,30=1,74=-71,116=2,119=723000000,120=723000000,130=277000000,131=277000000/1,2,3;
 4//1;
 5/5=100002,6=6,8=3,10=500,13=1,18=-1,22=13,38=1,93=35/2,8;
 6/7=2,8=2,9=2,10=2,28=1/1;
 99/5=1,9=1/99;
 Leave Link    1 at Thu Mar  5 12:52:14 2020, MaxMem=  6710886400 cpu:              14.5 elap:               1.0
 (Enter /opt/ohpc/pub/libs/gaussian/g16-A.03/sandybridge/g16/l101.exe)
 -----
 H6 C5
 -----
 Symbolic Z-matrix:
 Charge =  1 Multiplicity = 2
 C                     0.        0.8788   -0.93154 
 C                     0.        1.12816   0.42346 
 C                     0.        0.        1.24088 
 C                     0.       -1.12816   0.42346 
 C                     0.       -0.8788   -0.93154 
 H                     0.        0.       -1.73227 
 H                     0.        1.6083   -1.73405 
 H                     0.        2.15663   0.76567 
 H                     0.        0.        2.32078 
 H                     0.       -2.15663   0.76567 
 H                     0.       -1.6083   -1.73405 
 
 ITRead=  0  0  0  0  0  0  0  0  0  0  0
 MicOpt= -1 -1 -1 -1 -1 -1 -1 -1 -1 -1 -1
 NAtoms=     11 NQM=       11 NQMF=       0 NMMI=      0 NMMIF=      0
                NMic=       0 NMicF=      0.
                    Isotopes and Nuclear Properties:
 (Nuclear quadrupole moments (NQMom) in fm**2, nuclear magnetic moments (NMagM)
  in nuclear magnetons)

  Atom         1           2           3           4           5           6           7           8           9          10
 IAtWgt=          12          12          12          12          12           1           1           1           1           1
 AtmWgt=  12.0000000  12.0000000  12.0000000  12.0000000  12.0000000   1.0078250   1.0078250   1.0078250   1.0078250   1.0078250
 NucSpn=           0           0           0           0           0           1           1           1           1           1
 AtZEff=  -0.0000000  -0.0000000  -0.0000000  -0.0000000  -0.0000000  -0.0000000  -0.0000000  -0.0000000  -0.0000000  -0.0000000
 NQMom=    0.0000000   0.0000000   0.0000000   0.0000000   0.0000000   0.0000000   0.0000000   0.0000000   0.0000000   0.0000000
 NMagM=    0.0000000   0.0000000   0.0000000   0.0000000   0.0000000   2.7928460   2.7928460   2.7928460   2.7928460   2.7928460
 AtZNuc=   6.0000000   6.0000000   6.0000000   6.0000000   6.0000000   1.0000000   1.0000000   1.0000000   1.0000000   1.0000000

  Atom        11
 IAtWgt=           1
 AtmWgt=   1.0078250
 NucSpn=           1
 AtZEff=  -0.0000000
 NQMom=    0.0000000
 NMagM=    2.7928460
 AtZNuc=   1.0000000
 Leave Link  101 at Thu Mar  5 12:52:14 2020, MaxMem=  6710886400 cpu:               3.0 elap:               0.2
 (Enter /opt/ohpc/pub/libs/gaussian/g16-A.03/sandybridge/g16/l202.exe)
                          Input orientation:                          
 ---------------------------------------------------------------------
 Center     Atomic      Atomic             Coordinates (Angstroms)
 Number     Number       Type             X           Y           Z
 ---------------------------------------------------------------------
      1          6           0        0.000000    0.878804   -0.931542
      2          6           0        0.000000    1.128157    0.423457
      3          6           0        0.000000    0.000000    1.240879
      4          6           0        0.000000   -1.128157    0.423457
      5          6           0        0.000000   -0.878804   -0.931542
      6          1           0        0.000000    0.000000   -1.732269
      7          1           0        0.000000    1.608300   -1.734053
      8          1           0        0.000000    2.156626    0.765670
      9          1           0        0.000000    0.000000    2.320778
     10          1           0        0.000000   -2.156626    0.765670
     11          1           0        0.000000   -1.608300   -1.734053
 ---------------------------------------------------------------------
                    Distance matrix (angstroms):
                    1          2          3          4          5
     1  C    0.000000
     2  C    1.377752   0.000000
     3  C    2.343440   1.393168   0.000000
     4  C    2.421552   2.256314   1.393168   0.000000
     5  C    1.757608   2.421552   2.343440   1.377752   0.000000
     6  H    1.188890   2.433083   2.973148   2.433083   1.188890
     7  H    1.084522   2.210291   3.381841   3.484687   2.613371
     8  H    2.124466   1.083909   2.208361   3.302561   3.477695
     9  H    3.368959   2.207389   1.079899   2.207389   3.368959
    10  H    3.477695   3.302561   2.208361   1.083909   2.124466
    11  H    2.613371   3.484687   3.381841   2.210291   1.084522
                    6          7          8          9         10
     6  H    0.000000
     7  H    1.608301   0.000000
     8  H    3.300111   2.559155   0.000000
     9  H    4.053047   4.362142   2.658834   0.000000
    10  H    3.300111   4.519213   4.313252   2.658834   0.000000
    11  H    1.608301   3.216600   4.519213   4.362142   2.559155
                   11
    11  H    0.000000
 Stoichiometry    C5H6(1+,2)
 Framework group  C2V[C2(HCH),SGV(C4H4)]
 Deg. of freedom    10
 Full point group                 C2V     NOp   4
 Largest Abelian subgroup         C2V     NOp   4
 Largest concise Abelian subgroup C2      NOp   2
                         Standard orientation:                         
 ---------------------------------------------------------------------
 Center     Atomic      Atomic             Coordinates (Angstroms)
 Number     Number       Type             X           Y           Z
 ---------------------------------------------------------------------
      1          6           0        0.000000    0.878804   -0.931542
      2          6           0        0.000000    1.128157    0.423457
      3          6           0        0.000000   -0.000000    1.240879
      4          6           0       -0.000000   -1.128157    0.423457
      5          6           0       -0.000000   -0.878804   -0.931542
      6          1           0       -0.000000    0.000000   -1.732269
      7          1           0        0.000000    1.608300   -1.734053
      8          1           0        0.000000    2.156626    0.765670
      9          1           0        0.000000   -0.000000    2.320778
     10          1           0       -0.000000   -2.156626    0.765670
     11          1           0       -0.000000   -1.608300   -1.734053
 ---------------------------------------------------------------------
 Rotational constants (GHZ):           8.5259551           7.9375455           4.1106177
 Leave Link  202 at Thu Mar  5 12:52:14 2020, MaxMem=  6710886400 cpu:               0.5 elap:               0.1
 (Enter /opt/ohpc/pub/libs/gaussian/g16-A.03/sandybridge/g16/l301.exe)
 Standard basis: 6-31G (6D, 7F)
 Ernie: Thresh=  0.10000D-02 Tol=  0.10000D-05 Strict=F.
 There are    27 symmetry adapted cartesian basis functions of A1  symmetry.
 There are     4 symmetry adapted cartesian basis functions of A2  symmetry.
 There are     6 symmetry adapted cartesian basis functions of B1  symmetry.
 There are    20 symmetry adapted cartesian basis functions of B2  symmetry.
 There are    27 symmetry adapted basis functions of A1  symmetry.
 There are     4 symmetry adapted basis functions of A2  symmetry.
 There are     6 symmetry adapted basis functions of B1  symmetry.
 There are    20 symmetry adapted basis functions of B2  symmetry.
    57 basis functions,   134 primitive gaussians,    57 cartesian basis functions
    18 alpha electrons       17 beta electrons
       nuclear repulsion energy       156.0127424860 Hartrees.
 IExCor=33909 DFT=T Ex+Corr=LC-wHPBE ExCW=0 ScaHFX=  1.000000
 ScaDFX=  1.000000  1.000000  1.000000  1.000000 ScalE2=  1.000000  1.000000
 IRadAn=      5 IRanWt=     -1 IRanGd=            0 ICorTp=0 IEmpDi=  4
 HFx  wShort=  0.000000 wLong=  0.400000 cFull=  0.000000 cShort=  0.000000 cLong=  0.723000
 DFx  wShort=  0.000000 wLong=  0.400000 cFull=  0.000000 cShort=  1.000000 cLong=  0.723000
 NAtoms=   11 NActive=   11 NUniq=    7 SFac= 2.47D+00 NAtFMM=   60 NAOKFM=F Big=F
 Integral buffers will be    131072 words long.
 Raffenetti 2 integral format.
 Two-electron integral symmetry is turned on.
 Leave Link  301 at Thu Mar  5 12:52:14 2020, MaxMem=  6710886400 cpu:               0.9 elap:               0.1
 (Enter /opt/ohpc/pub/libs/gaussian/g16-A.03/sandybridge/g16/l302.exe)
 NPDir=0 NMtPBC=     1 NCelOv=     1 NCel=       1 NClECP=     1 NCelD=      1
         NCelK=      1 NCelE2=     1 NClLst=     1 CellRange=     0.0.
 One-electron integrals computed using PRISM.
 One-electron integral symmetry used in STVInt
 NBasis=    57 RedAO= T EigKep=  1.84D-03  NBF=    27     4     6    20
 NBsUse=    57 1.00D-06 EigRej= -1.00D+00 NBFU=    27     4     6    20
 Precomputing XC quadrature grid using
 IXCGrd= 4 IRadAn=           5 IRanWt=          -1 IRanGd=           0 AccXCQ= 0.00D+00.
 Generated NRdTot=       0 NPtTot=           0 NUsed=           0 NTot=          32
 NSgBfM=    57    57    57    57    57 MxSgAt=    11 MxSgA2=    11.
 Leave Link  302 at Thu Mar  5 12:52:14 2020, MaxMem=  6710886400 cpu:               2.0 elap:               0.1
 (Enter /opt/ohpc/pub/libs/gaussian/g16-A.03/sandybridge/g16/l303.exe)
 DipDrv:  MaxL=1.
 Leave Link  303 at Thu Mar  5 12:52:14 2020, MaxMem=  6710886400 cpu:               0.3 elap:               0.0
 (Enter /opt/ohpc/pub/libs/gaussian/g16-A.03/sandybridge/g16/l401.exe)
 ExpMin= 1.61D-01 ExpMax= 3.05D+03 ExpMxC= 4.57D+02 IAcc=3 IRadAn=         5 AccDes= 0.00D+00
 Harris functional with IExCor=33909 and IRadAn=       5 diagonalized for initial guess.
 HarFok:  IExCor=33909 AccDes= 0.00D+00 IRadAn=         5 IDoV= 1 UseB2=F ITyADJ=14
 ICtDFT=  3500011 ScaDFX=  1.000000  1.000000  1.000000  1.000000
 FoFCou: FMM=F IPFlag=           0 FMFlag=      100000 FMFlg1=           0
         NFxFlg=           0 DoJE=T BraDBF=F KetDBF=T FulRan=T
         wScrn=  0.000000 ICntrl=       500 IOpCl=  0 I1Cent=   200000004 NGrid=           0
         NMat0=    1 NMatS0=      1 NMatT0=    0 NMatD0=    1 NMtDS0=    0 NMtDT0=    0
 Petite list used in FoFCou.
 Harris En= -191.595685698471    
 JPrj=0 DoOrth=F DoCkMO=F.
 Initial guess orbital symmetries:
 Alpha Orbitals:
       Occupied  (A1) (B2) (A1) (B2) (A1) (A1) (A1) (B2) (A1) (B2)
                 (A1) (B2) (A1) (B2) (A1) (B1) (A2) (B1)
       Virtual   (A2) (B2) (B1) (A1) (A1) (B2) (A1) (B2) (A1) (B2)
                 (A1) (B2) (A1) (B2) (B1) (A1) (A2) (B1) (B2) (A1)
                 (A1) (A2) (B1) (B2) (B2) (A1) (B2) (A1) (A1) (B2)
                 (A1) (A1) (A1) (B2) (A1) (B2) (A1) (A1) (B2)
 Beta  Orbitals:
       Occupied  (A1) (B2) (A1) (B2) (A1) (A1) (A1) (B2) (A1) (B2)
                 (A1) (B2) (A1) (B2) (A1) (B1) (A2)
       Virtual   (B1) (A2) (B2) (B1) (A1) (A1) (B2) (A1) (B2) (A1)
                 (B2) (A1) (B2) (A1) (B2) (B1) (A1) (A2) (B1) (B2)
                 (A1) (A1) (A2) (B1) (B2) (B2) (A1) (B2) (A1) (A1)
                 (B2) (A1) (A1) (A1) (B2) (A1) (B2) (A1) (A1) (B2)
 The electronic state of the initial guess is 2-B1.
 Initial guess <Sx>= 0.0000 <Sy>= 0.0000 <Sz>= 0.5000 <S**2>= 0.7500 S= 0.5000
 Leave Link  401 at Thu Mar  5 12:52:14 2020, MaxMem=  6710886400 cpu:               3.1 elap:               0.2
 (Enter /opt/ohpc/pub/libs/gaussian/g16-A.03/sandybridge/g16/l502.exe)
 Keep R1 and R2 ints in memory in symmetry-blocked form, NReq=16815681.
 FoFCou: FMM=F IPFlag=           0 FMFlag=           0 FMFlg1=           0
         NFxFlg=           0 DoJE=F BraDBF=F KetDBF=F FulRan=T
         wScrn=  0.000000 ICntrl=       600 IOpCl=  0 I1Cent=           0 NGrid=           0
         NMat0=    1 NMatS0=   1653 NMatT0=    0 NMatD0=    1 NMtDS0=    0 NMtDT0=    0
 Petite list used in FoFCou.
 UHF open shell SCF:
 Using DIIS extrapolation, IDIIS=    10.
 NGot=  6710886400 LenX=  6710059561 LenY=  6710055871
 Requested convergence on RMS density matrix=1.00D-06 within  32 cycles.
 Requested convergence on MAX density matrix=1.00D-04.
 Requested convergence on             energy=1.00D-04.
 Virtual orbitals will be shifted by   0.500 hartree.
 No special actions if energy rises.
 Dynamic level shift is on during FON iterations.

 Cycle   1  Pass 1  IDiag  1:
 E= -196.444957541245    
 DIIS: error= 4.82D-02 at cycle   1 NSaved=   1.
 NSaved= 1 IEnMin= 1 EnMin= -196.444957541245     IErMin= 1 ErrMin= 4.82D-02
 ErrMax= 4.82D-02  0.00D+00 EMaxC= 1.00D+00 BMatC= 1.95D-01 BMatP= 1.95D-01
 IDIUse=1 WtCom= 1.00D+00 WtEn= 0.00D+00
 Coeff-Com:  0.100D+01
 Coeff:      0.100D+01
 Gap=     0.317 Goal=   None    Shift=    0.500
 T= 1781. Gap= 0.790 NK=0 IS=   19 IE=   57 IFin=   18
          NO(<0.9)=   0  NV(>0.1)=   0     18.00e < EF      0.00e >EF  Err=0.0D+00
 Gap=     0.194 Goal=   None    Shift=    0.500
 T= 1781. Gap= 0.697 NK=0 IS=   18 IE=   57 IFin=   17
          NO(<0.9)=   0  NV(>0.1)=   0     17.00e < EF      0.00e >EF  Err=0.0D+00
 GapD=    0.194 DampG=1.000 DampE=0.500 DampFc=0.5000 IDamp=-1.
 Damping current iteration by 5.00D-01
 RMSDP=6.98D-03 MaxDP=5.26D-02              OVMax= 1.07D-01

 Cycle   2  Pass 1  IDiag  1:
 E= -196.482882502285     Delta-E=       -0.037924961041 Rises=F Damp=T
 DIIS: error= 2.23D-02 at cycle   2 NSaved=   2.
 NSaved= 2 IEnMin= 2 EnMin= -196.482882502285     IErMin= 2 ErrMin= 2.23D-02
 ErrMax= 2.23D-02  0.00D+00 EMaxC= 1.00D+00 BMatC= 3.21D-02 BMatP= 1.95D-01
 IDIUse=1 WtCom= 1.00D+00 WtEn= 0.00D+00
 Coeff-Com: -0.510D+00 0.151D+01
 Coeff:     -0.510D+00 0.151D+01
 Gap=     0.389 Goal=   None    Shift=    0.500
 T= 1662. Gap= 0.874 NK=4 IS=   19 IE=   23 IFin=   18
          NO(<0.9)=   0  NV(>0.1)=   0     18.00e < EF      0.00e >EF  Err=0.0D+00
 Gap=     0.222 Goal=   None    Shift=    0.500
 T= 1662. Gap= 0.721 NK=4 IS=   18 IE=   23 IFin=   17
          NO(<0.9)=   0  NV(>0.1)=   0     17.00e < EF      0.00e >EF  Err=0.0D+00
 GapD=    0.222 DampG=1.000 DampE=0.500 DampFc=0.5000 IDamp=-1.
 Damping current iteration by 5.00D-01
 RMSDP=4.13D-03 MaxDP=3.19D-02 DE=-3.79D-02 OVMax= 1.68D-02

 Cycle   3  Pass 1  IDiag  1:
 E= -196.495891692666     Delta-E=       -0.013009190381 Rises=F Damp=T
 DIIS: error= 1.23D-02 at cycle   3 NSaved=   3.
 NSaved= 3 IEnMin= 3 EnMin= -196.495891692666     IErMin= 3 ErrMin= 1.23D-02
 ErrMax= 1.23D-02  0.00D+00 EMaxC= 1.00D+00 BMatC= 7.15D-03 BMatP= 3.21D-02
 IDIUse=1 WtCom= 1.00D+00 WtEn= 0.00D+00
 Coeff-Com:  0.316D+00-0.174D+01 0.243D+01
 Coeff:      0.316D+00-0.174D+01 0.243D+01
 Gap=     0.377 Goal=   None    Shift=    0.500
 T= 1446. Gap= 0.877 NK=0 IS=   19 IE=   57 IFin=   18
          NO(<0.9)=   0  NV(>0.1)=   0     18.00e < EF      0.00e >EF  Err=0.0D+00
 Gap=     0.226 Goal=   None    Shift=    0.500
 T= 1446. Gap= 0.727 NK=0 IS=   18 IE=   57 IFin=   17
          NO(<0.9)=   0  NV(>0.1)=   0     17.00e < EF      0.00e >EF  Err=0.0D+00
 GapD=    0.226 DampG=1.000 DampE=0.500 DampFc=0.5000 IDamp=-1.
 Damping current iteration by 5.00D-01
 RMSDP=2.23D-03 MaxDP=1.82D-02 DE=-1.30D-02 OVMax= 1.50D-02

 Cycle   4  Pass 1  IDiag  1:
 E= -196.501985016301     Delta-E=       -0.006093323635 Rises=F Damp=T
 DIIS: error= 7.72D-03 at cycle   4 NSaved=   4.
 NSaved= 4 IEnMin= 4 EnMin= -196.501985016301     IErMin= 4 ErrMin= 7.72D-03
 ErrMax= 7.72D-03  0.00D+00 EMaxC= 1.00D+00 BMatC= 2.48D-03 BMatP= 7.15D-03
 IDIUse=1 WtCom= 1.00D+00 WtEn= 0.00D+00
 Coeff-Com:  0.336D-01 0.630D+00-0.333D+01 0.367D+01
 Coeff:      0.336D-01 0.630D+00-0.333D+01 0.367D+01
 Gap=     0.381 Goal=   None    Shift=    0.500
 T= 1043. Gap= 0.881 NK=0 IS=   19 IE=   57 IFin=   18
          NO(<0.9)=   0  NV(>0.1)=   0     18.00e < EF      0.00e >EF  Err=0.0D+00
 Gap=     0.231 Goal=   None    Shift=    0.500
 T= 1043. Gap= 0.731 NK=0 IS=   18 IE=   57 IFin=   17
          NO(<0.9)=   0  NV(>0.1)=   0     17.00e < EF      0.00e >EF  Err=0.0D+00
 GapD=    0.231 DampG=1.000 DampE=1.000 DampFc=1.0000 IDamp=-1.
 RMSDP=1.40D-03 MaxDP=1.48D-02 DE=-6.09D-03 OVMax= 1.39D-02

 Cycle   5  Pass 1  IDiag  1:
 E= -196.509020919447     Delta-E=       -0.007035903147 Rises=F Damp=F
 DIIS: error= 3.61D-03 at cycle   5 NSaved=   5.
 NSaved= 5 IEnMin= 5 EnMin= -196.509020919447     IErMin= 5 ErrMin= 3.61D-03
 ErrMax= 3.61D-03  0.00D+00 EMaxC= 1.00D+00 BMatC= 4.07D-04 BMatP= 2.48D-03
 IDIUse=1 WtCom= 1.00D+00 WtEn= 0.00D+00
 Coeff-Com: -0.170D+00 0.881D+00-0.810D+00-0.768D+00 0.187D+01
 Coeff:     -0.170D+00 0.881D+00-0.810D+00-0.768D+00 0.187D+01
 Gap=     0.384 Goal=   None    Shift=    0.500
 T=  695. Gap= 0.884 NK=0 IS=   19 IE=   57 IFin=   18
          NO(<0.9)=   0  NV(>0.1)=   0     18.00e < EF      0.00e >EF  Err=0.0D+00
 Gap=     0.235 Goal=   None    Shift=    0.500
 T=  695. Gap= 0.735 NK=0 IS=   18 IE=   57 IFin=   17
          NO(<0.9)=   0  NV(>0.1)=   0     17.00e < EF      0.00e >EF  Err=0.0D+00
 GapD=    0.235 DampG=1.000 DampE=1.000 DampFc=1.0000 IDamp=-1.
 RMSDP=4.11D-04 MaxDP=6.57D-03 DE=-7.04D-03 OVMax= 1.35D-02

 Cycle   6  Pass 1  IDiag  1:
 E= -196.509590124278     Delta-E=       -0.000569204831 Rises=F Damp=F
 DIIS: error= 2.92D-03 at cycle   6 NSaved=   6.
 NSaved= 6 IEnMin= 6 EnMin= -196.509590124278     IErMin= 6 ErrMin= 2.92D-03
 ErrMax= 2.92D-03  0.00D+00 EMaxC= 1.00D+00 BMatC= 1.86D-04 BMatP= 4.07D-04
 IDIUse=1 WtCom= 1.00D+00 WtEn= 0.00D+00
 Coeff-Com: -0.978D-02-0.205D+00 0.732D+00-0.567D+00-0.160D+01 0.265D+01
 Coeff:     -0.978D-02-0.205D+00 0.732D+00-0.567D+00-0.160D+01 0.265D+01
 Gap=     0.386 Goal=   None    Shift=    0.500
 T=  390. Gap= 0.886 NK=0 IS=   19 IE=   57 IFin=   18
          NO(<0.9)=   0  NV(>0.1)=   0     18.00e < EF      0.00e >EF  Err=0.0D+00
 Gap=     0.237 Goal=   None    Shift=    0.500
 T=  390. Gap= 0.737 NK=0 IS=   18 IE=   57 IFin=   17
          NO(<0.9)=   0  NV(>0.1)=   0     17.00e < EF      0.00e >EF  Err=0.0D+00
 GapD=    0.237 DampG=1.000 DampE=1.000 DampFc=1.0000 IDamp=-1.
 RMSDP=3.27D-04 MaxDP=5.36D-03 DE=-5.69D-04 OVMax= 1.24D-02

 Cycle   7  Pass 1  IDiag  1:
 E= -196.509917110790     Delta-E=       -0.000326986512 Rises=F Damp=F
 DIIS: error= 2.16D-03 at cycle   7 NSaved=   7.
 NSaved= 7 IEnMin= 7 EnMin= -196.509917110790     IErMin= 7 ErrMin= 2.16D-03
 ErrMax= 2.16D-03  0.00D+00 EMaxC= 1.00D+00 BMatC= 8.50D-05 BMatP= 1.86D-04
 IDIUse=1 WtCom= 1.00D+00 WtEn= 0.00D+00
 Coeff-Com:  0.190D-01-0.112D+00 0.263D-01 0.265D+00-0.530D+00-0.755D+00
 Coeff-Com:  0.209D+01
 Coeff:      0.190D-01-0.112D+00 0.263D-01 0.265D+00-0.530D+00-0.755D+00
 Coeff:      0.209D+01
 Gap=     0.386 Goal=   None    Shift=    0.500
 T=   94. Gap= 0.887 NK=0 IS=   19 IE=   57 IFin=   18
          NO(<0.9)=   0  NV(>0.1)=   0     18.00e < EF      0.00e >EF  Err=0.0D+00
 Gap=     0.238 Goal=   None    Shift=    0.500
 T=   94. Gap= 0.738 NK=0 IS=   18 IE=   57 IFin=   17
          NO(<0.9)=   0  NV(>0.1)=   0     17.00e < EF      0.00e >EF  Err=0.0D+00
 GapD=    0.238 DampG=1.000 DampE=1.000 DampFc=1.0000 IDamp=-1.
 RMSDP=2.22D-04 MaxDP=3.23D-03 DE=-3.27D-04 OVMax= 9.22D-03

 Cycle   8  Pass 1  IDiag  1:
 E= -196.510066325146     Delta-E=       -0.000149214356 Rises=F Damp=F
 DIIS: error= 1.58D-03 at cycle   8 NSaved=   8.
 NSaved= 8 IEnMin= 8 EnMin= -196.510066325146     IErMin= 8 ErrMin= 1.58D-03
 ErrMax= 1.58D-03  0.00D+00 EMaxC= 1.00D+00 BMatC= 4.22D-05 BMatP= 8.50D-05
 IDIUse=1 WtCom= 1.00D+00 WtEn= 0.00D+00
 Coeff-Com: -0.119D-02 0.207D+00-0.684D+00 0.535D+00 0.121D+01-0.256D+01
 Coeff-Com: -0.176D+00 0.247D+01
 Coeff:     -0.119D-02 0.207D+00-0.684D+00 0.535D+00 0.121D+01-0.256D+01
 Coeff:     -0.176D+00 0.247D+01
 Gap=     0.387 Goal=   None    Shift=    0.500
 Gap=     0.238 Goal=   None    Shift=    0.500
 GapD=    0.238 DampG=1.000 DampE=1.000 DampFc=1.0000 IDamp=-1.
 RMSDP=1.83D-04 MaxDP=2.64D-03 DE=-1.49D-04 OVMax= 8.09D-03

 Cycle   9  Pass 1  IDiag  1:
 E= -196.510147576887     Delta-E=       -0.000081251741 Rises=F Damp=F
 DIIS: error= 1.09D-03 at cycle   9 NSaved=   9.
 NSaved= 9 IEnMin= 9 EnMin= -196.510147576887     IErMin= 9 ErrMin= 1.09D-03
 ErrMax= 1.09D-03  0.00D+00 EMaxC= 1.00D+00 BMatC= 1.88D-05 BMatP= 4.22D-05
 IDIUse=1 WtCom= 1.00D+00 WtEn= 0.00D+00
 Coeff-Com: -0.101D-01-0.741D-01 0.440D+00-0.508D+00-0.369D+00 0.180D+01
 Coeff-Com: -0.901D+00-0.352D+01 0.414D+01
 Coeff:     -0.101D-01-0.741D-01 0.440D+00-0.508D+00-0.369D+00 0.180D+01
 Coeff:     -0.901D+00-0.352D+01 0.414D+01
 Gap=     0.387 Goal=   None    Shift=    0.500
 Gap=     0.239 Goal=   None    Shift=    0.500
 GapD=    0.239 DampG=1.000 DampE=1.000 DampFc=1.0000 IDamp=-1.
 RMSDP=1.41D-04 MaxDP=2.10D-03 DE=-8.13D-05 OVMax= 6.74D-03

 Cycle  10  Pass 1  IDiag  1:
 E= -196.510187685008     Delta-E=       -0.000040108121 Rises=F Damp=F
 DIIS: error= 6.70D-04 at cycle  10 NSaved=  10.
 NSaved=10 IEnMin=10 EnMin= -196.510187685008     IErMin=10 ErrMin= 6.70D-04
 ErrMax= 6.70D-04  0.00D+00 EMaxC= 1.00D+00 BMatC= 7.40D-06 BMatP= 1.88D-05
 IDIUse=1 WtCom= 1.00D+00 WtEn= 0.00D+00
 Coeff-Com:  0.263D-02-0.699D-03-0.242D-01 0.336D-01 0.136D-01-0.111D+00
 Coeff-Com:  0.208D+00 0.124D+00-0.186D+01 0.261D+01
 Coeff:      0.263D-02-0.699D-03-0.242D-01 0.336D-01 0.136D-01-0.111D+00
 Coeff:      0.208D+00 0.124D+00-0.186D+01 0.261D+01
 Gap=     0.388 Goal=   None    Shift=    0.500
 Gap=     0.239 Goal=   None    Shift=    0.500
 RMSDP=8.35D-05 MaxDP=1.27D-03 DE=-4.01D-05 OVMax= 4.17D-03

 Cycle  11  Pass 1  IDiag  1:
 E= -196.510202454632     Delta-E=       -0.000014769624 Rises=F Damp=F
 DIIS: error= 4.16D-04 at cycle  11 NSaved=  11.
 NSaved=11 IEnMin=11 EnMin= -196.510202454632     IErMin=11 ErrMin= 4.16D-04
 ErrMax= 4.16D-04  0.00D+00 EMaxC= 1.00D+00 BMatC= 3.08D-06 BMatP= 7.40D-06
 IDIUse=1 WtCom= 1.00D+00 WtEn= 0.00D+00
 Coeff-Com: -0.222D-02 0.318D-02 0.311D-01-0.582D-01 0.491D-01 0.113D+00
 Coeff-Com: -0.261D+00-0.379D+00 0.237D+01-0.548D+01 0.461D+01
 Coeff:     -0.222D-02 0.318D-02 0.311D-01-0.582D-01 0.491D-01 0.113D+00
 Coeff:     -0.261D+00-0.379D+00 0.237D+01-0.548D+01 0.461D+01
 Gap=     0.388 Goal=   None    Shift=    0.500
 Gap=     0.239 Goal=   None    Shift=    0.500
 RMSDP=5.51D-05 MaxDP=8.04D-04 DE=-1.48D-05 OVMax= 2.81D-03

 Cycle  12  Pass 1  IDiag  1:
 E= -196.510208522749     Delta-E=       -0.000006068117 Rises=F Damp=F
 DIIS: error= 2.47D-04 at cycle  12 NSaved=  12.
 NSaved=12 IEnMin=12 EnMin= -196.510208522749     IErMin=12 ErrMin= 2.47D-04
 ErrMax= 2.47D-04  0.00D+00 EMaxC= 1.00D+00 BMatC= 1.14D-06 BMatP= 3.08D-06
 IDIUse=1 WtCom= 1.00D+00 WtEn= 0.00D+00
 Coeff-Com: -0.146D-02-0.132D-01 0.746D-01-0.854D-01-0.555D-01 0.277D+00
 Coeff-Com: -0.745D-01-0.646D+00 0.687D+00 0.402D+00-0.242D+01 0.286D+01
 Coeff:     -0.146D-02-0.132D-01 0.746D-01-0.854D-01-0.555D-01 0.277D+00
 Coeff:     -0.745D-01-0.646D+00 0.687D+00 0.402D+00-0.242D+01 0.286D+01
 Gap=     0.388 Goal=   None    Shift=    0.500
 Gap=     0.239 Goal=   None    Shift=    0.500
 RMSDP=3.32D-05 MaxDP=4.74D-04 DE=-6.07D-06 OVMax= 1.70D-03

 Cycle  13  Pass 1  IDiag  1:
 E= -196.510210718034     Delta-E=       -0.000002195285 Rises=F Damp=F
 DIIS: error= 1.46D-04 at cycle  13 NSaved=  13.
 NSaved=13 IEnMin=13 EnMin= -196.510210718034     IErMin=13 ErrMin= 1.46D-04
 ErrMax= 1.46D-04  0.00D+00 EMaxC= 1.00D+00 BMatC= 4.07D-07 BMatP= 1.14D-06
 IDIUse=1 WtCom= 1.00D+00 WtEn= 0.00D+00
 Coeff-Com:  0.958D-03 0.514D-02-0.295D-01 0.321D-01 0.374D-01-0.115D+00
 Coeff-Com: -0.181D-02 0.270D+00-0.886D-01-0.892D+00 0.244D+01-0.469D+01
 Coeff-Com:  0.404D+01
 Coeff:      0.958D-03 0.514D-02-0.295D-01 0.321D-01 0.374D-01-0.115D+00
 Coeff:     -0.181D-02 0.270D+00-0.886D-01-0.892D+00 0.244D+01-0.469D+01
 Coeff:      0.404D+01
 Gap=     0.388 Goal=   None    Shift=    0.500
 Gap=     0.239 Goal=   None    Shift=    0.500
 RMSDP=2.03D-05 MaxDP=2.96D-04 DE=-2.20D-06 OVMax= 1.06D-03

 Cycle  14  Pass 1  IDiag  1:
 E= -196.510211512766     Delta-E=       -0.000000794731 Rises=F Damp=F
 DIIS: error= 8.33D-05 at cycle  14 NSaved=  14.
 NSaved=14 IEnMin=14 EnMin= -196.510211512766     IErMin=14 ErrMin= 8.33D-05
 ErrMax= 8.33D-05  0.00D+00 EMaxC= 1.00D+00 BMatC= 1.47D-07 BMatP= 4.07D-07
 IDIUse=1 WtCom= 1.00D+00 WtEn= 0.00D+00
 Coeff-Com: -0.329D-03-0.147D-02 0.138D-01-0.189D-01-0.705D-03 0.382D-01
 Coeff-Com: -0.747D-02-0.131D+00 0.315D+00-0.476D+00 0.147D-01 0.137D+01
 Coeff-Com: -0.341D+01 0.329D+01
 Coeff:     -0.329D-03-0.147D-02 0.138D-01-0.189D-01-0.705D-03 0.382D-01
 Coeff:     -0.747D-02-0.131D+00 0.315D+00-0.476D+00 0.147D-01 0.137D+01
 Coeff:     -0.341D+01 0.329D+01
 Gap=     0.388 Goal=   None    Shift=    0.500
 Gap=     0.239 Goal=   None    Shift=    0.500
 RMSDP=1.21D-05 MaxDP=1.76D-04 DE=-7.95D-07 OVMax= 6.35D-04

 Cycle  15  Pass 1  IDiag  1:
 E= -196.510211790613     Delta-E=       -0.000000277848 Rises=F Damp=F
 DIIS: error= 4.70D-05 at cycle  15 NSaved=  15.
 NSaved=15 IEnMin=15 EnMin= -196.510211790613     IErMin=15 ErrMin= 4.70D-05
 ErrMax= 4.70D-05  0.00D+00 EMaxC= 1.00D+00 BMatC= 5.11D-08 BMatP= 1.47D-07
 IDIUse=1 WtCom= 1.00D+00 WtEn= 0.00D+00
 Coeff-Com:  0.201D-03 0.129D-03-0.470D-02 0.743D-02-0.174D-02-0.114D-01
 Coeff-Com:  0.796D-02 0.482D-01-0.147D+00 0.273D+00-0.170D+00-0.607D+00
 Coeff-Com:  0.220D+01-0.444D+01 0.385D+01
 Coeff:      0.201D-03 0.129D-03-0.470D-02 0.743D-02-0.174D-02-0.114D-01
 Coeff:      0.796D-02 0.482D-01-0.147D+00 0.273D+00-0.170D+00-0.607D+00
 Coeff:      0.220D+01-0.444D+01 0.385D+01
 Gap=     0.388 Goal=   None    Shift=    0.500
 Gap=     0.239 Goal=   None    Shift=    0.500
 RMSDP=7.03D-06 MaxDP=1.01D-04 DE=-2.78D-07 OVMax= 3.72D-04

 Cycle  16  Pass 1  IDiag  1:
 E= -196.510211883714     Delta-E=       -0.000000093100 Rises=F Damp=F
 DIIS: error= 2.60D-05 at cycle  16 NSaved=  16.
 NSaved=16 IEnMin=16 EnMin= -196.510211883714     IErMin=16 ErrMin= 2.60D-05
 ErrMax= 2.60D-05  0.00D+00 EMaxC= 1.00D+00 BMatC= 1.80D-08 BMatP= 5.11D-08
 IDIUse=1 WtCom= 1.00D+00 WtEn= 0.00D+00
 Coeff-Com:  0.434D-04 0.584D-03-0.149D-02 0.432D-03 0.677D-02-0.151D-01
 Coeff-Com:  0.648D-02 0.159D-01 0.273D-01-0.168D+00 0.290D+00-0.318D+00
 Coeff-Com: -0.127D+00 0.140D+01-0.350D+01 0.338D+01
 Coeff:      0.434D-04 0.584D-03-0.149D-02 0.432D-03 0.677D-02-0.151D-01
 Coeff:      0.648D-02 0.159D-01 0.273D-01-0.168D+00 0.290D+00-0.318D+00
 Coeff:     -0.127D+00 0.140D+01-0.350D+01 0.338D+01
 Gap=     0.388 Goal=   None    Shift=    0.500
 Gap=     0.239 Goal=   None    Shift=    0.500
 RMSDP=4.00D-06 MaxDP=5.60D-05 DE=-9.31D-08 OVMax= 2.12D-04

 Cycle  17  Pass 1  IDiag  1:
 E= -196.510211914038     Delta-E=       -0.000000030325 Rises=F Damp=F
 DIIS: error= 1.41D-05 at cycle  17 NSaved=  17.
 NSaved=17 IEnMin=17 EnMin= -196.510211914038     IErMin=17 ErrMin= 1.41D-05
 ErrMax= 1.41D-05  0.00D+00 EMaxC= 1.00D+00 BMatC= 6.23D-09 BMatP= 1.80D-08
 IDIUse=1 WtCom= 1.00D+00 WtEn= 0.00D+00
 Coeff-Com:  0.242D-04-0.316D-03 0.604D-03-0.553D-04-0.273D-02 0.450D-02
 Coeff-Com:  0.144D-02-0.572D-02-0.132D-01 0.643D-01-0.112D+00 0.101D+00
 Coeff-Com:  0.124D+00-0.867D+00 0.240D+01-0.462D+01 0.393D+01
 Coeff:      0.242D-04-0.316D-03 0.604D-03-0.553D-04-0.273D-02 0.450D-02
 Coeff:      0.144D-02-0.572D-02-0.132D-01 0.643D-01-0.112D+00 0.101D+00
 Coeff:      0.124D+00-0.867D+00 0.240D+01-0.462D+01 0.393D+01
 Gap=     0.388 Goal=   None    Shift=    0.500
 Gap=     0.239 Goal=   None    Shift=    0.500
 RMSDP=2.21D-06 MaxDP=3.02D-05 DE=-3.03D-08 OVMax= 1.18D-04

 Cycle  18  Pass 1  IDiag  1:
 E= -196.510211923655     Delta-E=       -0.000000009617 Rises=F Damp=F
 DIIS: error= 7.72D-06 at cycle  18 NSaved=  18.
 NSaved=18 IEnMin=18 EnMin= -196.510211923655     IErMin=18 ErrMin= 7.72D-06
 ErrMax= 7.72D-06  0.00D+00 EMaxC= 1.00D+00 BMatC= 2.11D-09 BMatP= 6.23D-09
 IDIUse=1 WtCom= 1.00D+00 WtEn= 0.00D+00
 Coeff-Com:  0.394D-04 0.180D-03-0.133D-02 0.165D-02 0.125D-02-0.643D-02
 Coeff-Com:  0.387D-02 0.118D-01-0.219D-01 0.167D-01 0.230D-01-0.121D+00
 Coeff-Com:  0.244D+00-0.275D+00-0.154D+00 0.146D+01-0.373D+01 0.355D+01
 Coeff:      0.394D-04 0.180D-03-0.133D-02 0.165D-02 0.125D-02-0.643D-02
 Coeff:      0.387D-02 0.118D-01-0.219D-01 0.167D-01 0.230D-01-0.121D+00
 Coeff:      0.244D+00-0.275D+00-0.154D+00 0.146D+01-0.373D+01 0.355D+01
 Gap=     0.388 Goal=   None    Shift=    0.500
 Gap=     0.239 Goal=   None    Shift=    0.500
 RMSDP=1.20D-06 MaxDP=1.62D-05 DE=-9.62D-09 OVMax= 6.41D-05

 Cycle  19  Pass 1  IDiag  1:
 E= -196.510211926662     Delta-E=       -0.000000003007 Rises=F Damp=F
 DIIS: error= 4.24D-06 at cycle  19 NSaved=  19.
 NSaved=19 IEnMin=19 EnMin= -196.510211926662     IErMin=19 ErrMin= 4.24D-06
 ErrMax= 4.24D-06  0.00D+00 EMaxC= 1.00D+00 BMatC= 6.97D-10 BMatP= 2.11D-09
 IDIUse=1 WtCom= 1.00D+00 WtEn= 0.00D+00
 Coeff-Com:  0.276D-05 0.810D-04-0.218D-03 0.114D-03 0.705D-03-0.214D-02
 Coeff-Com:  0.176D-02 0.175D-02-0.151D-02-0.545D-02 0.127D-01-0.119D-01
 Coeff-Com: -0.140D-01 0.779D-01-0.102D+00-0.258D+00 0.125D+01-0.311D+01
 Coeff-Com:  0.316D+01
 Coeff:      0.276D-05 0.810D-04-0.218D-03 0.114D-03 0.705D-03-0.214D-02
 Coeff:      0.176D-02 0.175D-02-0.151D-02-0.545D-02 0.127D-01-0.119D-01
 Coeff:     -0.140D-01 0.779D-01-0.102D+00-0.258D+00 0.125D+01-0.311D+01
 Coeff:      0.316D+01
 Gap=     0.388 Goal=   None    Shift=    0.500
 Gap=     0.239 Goal=   None    Shift=    0.500
 RMSDP=6.48D-07 MaxDP=8.89D-06 DE=-3.01D-09 OVMax= 3.48D-05

 SCF Done:  E(ULC-wHPBE) =  -196.510211927     A.U. after   19 cycles
            NFock= 19  Conv=0.65D-06     -V/T= 2.0188
 <Sx>= 0.0000 <Sy>= 0.0000 <Sz>= 0.5000 <S**2>= 0.8101 S= 0.5296
 <L.S>= 0.000000000000E+00
 KE= 1.928885437488D+02 PE=-7.525294315118D+02 EE= 2.071179333503D+02
 Annihilation of the first spin contaminant:
 S**2 before annihilation     0.8101,   after     0.7521
 Leave Link  502 at Thu Mar  5 12:52:16 2020, MaxMem=  6710886400 cpu:              28.9 elap:               1.8
 (Enter /opt/ohpc/pub/libs/gaussian/g16-A.03/sandybridge/g16/l508.exe)
 QCSCF skips out because SCF is already converged.
 Leave Link  508 at Thu Mar  5 12:52:16 2020, MaxMem=  6710886400 cpu:               0.1 elap:               0.0
 (Enter /opt/ohpc/pub/libs/gaussian/g16-A.03/sandybridge/g16/l601.exe)
 Copying SCF densities to generalized density rwf, IOpCl= 1 IROHF=0.

 **********************************************************************

            Population analysis using the SCF density.

 **********************************************************************

 Orbital symmetries:
 Alpha Orbitals:
       Occupied  (B2) (A1) (A1) (B2) (A1) (A1) (A1) (B2) (A1) (B2)
                 (A1) (B2) (A1) (A1) (B1) (B2) (A2) (B1)
       Virtual   (A2) (B2) (B1) (A1) (A1) (B2) (A1) (B2) (A1) (A1)
                 (B2) (A1) (B2) (B1) (B2) (B1) (A2) (A1) (A1) (B2)
                 (A1) (A2) (B1) (B2) (B2) (A1) (A1) (A1) (B2) (A1)
                 (B2) (A1) (A1) (B2) (A1) (B2) (A1) (A1) (B2)
 Beta  Orbitals:
       Occupied  (B2) (A1) (A1) (B2) (A1) (A1) (A1) (B2) (A1) (B2)
                 (A1) (B2) (A1) (A1) (B2) (B1) (A2)
       Virtual   (B1) (B2) (A2) (A1) (B1) (A1) (B2) (A1) (B2) (A1)
                 (A1) (B2) (A1) (B2) (B2) (B1) (A2) (A1) (B1) (A1)
                 (B2) (A1) (A2) (B1) (B2) (B2) (A1) (A1) (B2) (A1)
                 (B2) (A1) (A1) (A1) (B2) (A1) (B2) (A1) (A1) (B2)
 The electronic state is 2-B1.
 Alpha  occ. eigenvalues --  -10.43570 -10.43567 -10.38591 -10.37707 -10.37706
 Alpha  occ. eigenvalues --   -1.30286  -1.17395  -1.12462  -0.98748  -0.96446
 Alpha  occ. eigenvalues --   -0.91789  -0.81968  -0.79788  -0.78627  -0.77499
 Alpha  occ. eigenvalues --   -0.76285  -0.62757  -0.61727
 Alpha virt. eigenvalues --   -0.22971  -0.22489  -0.16118  -0.15481  -0.09003
 Alpha virt. eigenvalues --   -0.04236  -0.02281   0.00144   0.00146   0.10900
 Alpha virt. eigenvalues --    0.11244   0.21457   0.21863   0.29994   0.30914
 Alpha virt. eigenvalues --    0.37652   0.38216   0.39036   0.40998   0.41812
 Alpha virt. eigenvalues --    0.42166   0.45545   0.47028   0.54867   0.61546
 Alpha virt. eigenvalues --    0.63849   0.64967   0.67504   0.67559   0.73663
 Alpha virt. eigenvalues --    0.73784   0.78097   0.82344   0.88949   0.97021
 Alpha virt. eigenvalues --    0.97994   1.03875   1.25307   1.26838
  Beta  occ. eigenvalues --  -10.42965 -10.42960 -10.38020 -10.38020 -10.37629
  Beta  occ. eigenvalues --   -1.29001  -1.15492  -1.12218  -0.97661  -0.95709
  Beta  occ. eigenvalues --   -0.91535  -0.81688  -0.79521  -0.78066  -0.76135
  Beta  occ. eigenvalues --   -0.73031  -0.61387
  Beta virt. eigenvalues --   -0.37499  -0.20991  -0.19978  -0.15252  -0.12641
  Beta virt. eigenvalues --   -0.08596  -0.03974  -0.02075   0.00088   0.00793
  Beta virt. eigenvalues --    0.11387   0.11582   0.21876   0.22229   0.31319
  Beta virt. eigenvalues --    0.32375   0.39306   0.39594   0.40568   0.41381
  Beta virt. eigenvalues --    0.42203   0.43301   0.46127   0.48689   0.55423
  Beta virt. eigenvalues --    0.61979   0.64743   0.65440   0.67453   0.67963
  Beta virt. eigenvalues --    0.74083   0.74336   0.78917   0.83129   0.88956
  Beta virt. eigenvalues --    0.97515   0.98511   1.05059   1.26251   1.27709
          Condensed to atoms (all electrons):
               1          2          3          4          5          6
     1  C    5.370482   0.497135  -0.043974  -0.124463   0.179453   0.162000
     2  C    0.497135   4.959917   0.461267  -0.028032  -0.124463  -0.020883
     3  C   -0.043974   0.461267   4.878859   0.461267  -0.043974   0.007077
     4  C   -0.124463  -0.028032   0.461267   4.959917   0.497135  -0.020883
     5  C    0.179453  -0.124463  -0.043974   0.497135   5.370482   0.162000
     6  H    0.162000  -0.020883   0.007077  -0.020883   0.162000   0.348528
     7  H    0.335225   0.004443  -0.000298   0.003187  -0.015885  -0.009496
     8  H   -0.023599   0.360442  -0.011910   0.003844   0.000892   0.000385
     9  H    0.005001  -0.026597   0.363339  -0.026597   0.005001  -0.000041
    10  H    0.000892   0.003844  -0.011910   0.360442  -0.023599   0.000385
    11  H   -0.015885   0.003187  -0.000298   0.004443   0.335225  -0.009496
               7          8          9         10         11
     1  C    0.335225  -0.023599   0.005001   0.000892  -0.015885
     2  C    0.004443   0.360442  -0.026597   0.003844   0.003187
     3  C   -0.000298  -0.011910   0.363339  -0.011910  -0.000298
     4  C    0.003187   0.003844  -0.026597   0.360442   0.004443
     5  C   -0.015885   0.000892   0.005001  -0.023599   0.335225
     6  H   -0.009496   0.000385  -0.000041   0.000385  -0.009496
     7  H    0.341779   0.000069  -0.000051  -0.000017   0.000400
     8  H    0.000069   0.380895  -0.001212  -0.000084  -0.000017
     9  H   -0.000051  -0.001212   0.400231  -0.001212  -0.000051
    10  H   -0.000017  -0.000084  -0.001212   0.380895   0.000069
    11  H    0.000400  -0.000017  -0.000051   0.000069   0.341779
          Atomic-Atomic Spin Densities.
               1          2          3          4          5          6
     1  C    0.511699  -0.040681  -0.022900  -0.009519   0.024134  -0.004053
     2  C   -0.040681  -0.259059   0.027910  -0.000158  -0.009519   0.000347
     3  C   -0.022900   0.027910   0.722039   0.027910  -0.022900   0.000214
     4  C   -0.009519  -0.000158   0.027910  -0.259059  -0.040681   0.000347
     5  C    0.024134  -0.009519  -0.022900  -0.040681   0.511699  -0.004053
     6  H   -0.004053   0.000347   0.000214   0.000347  -0.004053  -0.015676
     7  H   -0.002870  -0.000534   0.000115  -0.000105   0.000199  -0.000149
     8  H   -0.000390   0.002069  -0.001127  -0.000130   0.000067   0.000023
     9  H   -0.000017  -0.000037  -0.001144  -0.000037  -0.000017  -0.000001
    10  H    0.000067  -0.000130  -0.001127   0.002069  -0.000390   0.000023
    11  H    0.000199  -0.000105   0.000115  -0.000534  -0.002870  -0.000149
               7          8          9         10         11
     1  C   -0.002870  -0.000390  -0.000017   0.000067   0.000199
     2  C   -0.000534   0.002069  -0.000037  -0.000130  -0.000105
     3  C    0.000115  -0.001127  -0.001144  -0.001127   0.000115
     4  C   -0.000105  -0.000130  -0.000037   0.002069  -0.000534
     5  C    0.000199   0.000067  -0.000017  -0.000390  -0.002870
     6  H   -0.000149   0.000023  -0.000001   0.000023  -0.000149
     7  H   -0.018585   0.000056   0.000004  -0.000000  -0.000074
     8  H    0.000056   0.007466   0.000010   0.000000  -0.000000
     9  H    0.000004   0.000010  -0.028492   0.000010   0.000004
    10  H   -0.000000   0.000000   0.000010   0.007466   0.000056
    11  H   -0.000074  -0.000000   0.000004   0.000056  -0.018585
 Mulliken charges and spin densities:
               1          2
     1  C   -0.342267   0.455669
     2  C   -0.090259  -0.279897
     3  C   -0.059447   0.729105
     4  C   -0.090259  -0.279897
     5  C   -0.342267   0.455669
     6  H    0.380425  -0.023128
     7  H    0.340646  -0.021944
     8  H    0.290296   0.008043
     9  H    0.282191  -0.029717
    10  H    0.290296   0.008043
    11  H    0.340646  -0.021944
 Sum of Mulliken charges =   1.00000   1.00000
 Mulliken charges and spin densities with hydrogens summed into heavy atoms:
               1          2
     1  C    0.378804   0.410596
     2  C    0.200037  -0.271854
     3  C    0.222744   0.699387
     4  C    0.200037  -0.271854
     5  C   -0.001621   0.433725
 Electronic spatial extent (au):  <R**2>=            317.9843
 Charge=              1.0000 electrons
 Dipole moment (field-independent basis, Debye):
    X=             -0.0000    Y=             -0.0000    Z=             -2.0387  Tot=              2.0387
 Quadrupole moment (field-independent basis, Debye-Ang):
   XX=            -30.9332   YY=            -17.0808   ZZ=            -12.7563
   XY=              0.0000   XZ=              0.0000   YZ=             -0.0000
 Traceless Quadrupole moment (field-independent basis, Debye-Ang):
   XX=            -10.6764   YY=              3.1760   ZZ=              7.5005
   XY=              0.0000   XZ=              0.0000   YZ=             -0.0000
 Octapole moment (field-independent basis, Debye-Ang**2):
  XXX=              0.0000  YYY=              0.0000  ZZZ=             -7.5668  XYY=             -0.0000
  XXY=             -0.0000  XXZ=              0.6610  XZZ=              0.0000  YZZ=              0.0000
  YYZ=             -2.7266  XYZ=             -0.0000
 Hexadecapole moment (field-independent basis, Debye-Ang**3):
 XXXX=            -30.5129 YYYY=           -140.9042 ZZZZ=           -121.7768 XXXY=             -0.0000
 XXXZ=             -0.0000 YYYX=             -0.0000 YYYZ=             -0.0000 ZZZX=              0.0000
 ZZZY=              0.0000 XXYY=            -41.5670 XXZZ=            -38.1573 YYZZ=            -41.5084
 XXYZ=             -0.0000 YYXZ=             -0.0000 ZZXY=             -0.0000
 N-N= 1.560127424860D+02 E-N=-7.525294354116D+02  KE= 1.928885437488D+02
 Symmetry A1   KE= 1.114599762476D+02
 Symmetry A2   KE= 2.549738047966D+00
 Symmetry B1   KE= 3.285123335967D+00
 Symmetry B2   KE= 7.559370611721D+01
 Symmetry A1   SP= 2.752923994179D-14
 Symmetry A2   SP=-2.302086472838D-15
 Symmetry B1   SP= 1.000000000000D+00
 Symmetry B2   SP=-2.328032786079D-15
                          Isotropic Fermi Contact Couplings
        Atom                 a.u.       MegaHertz       Gauss      10(-4) cm-1
     1  C(13)              0.07239      81.37538      29.03676      27.14390
     2  C(13)             -0.05011     -56.33738     -20.10258     -18.79213
     3  C(13)              0.10806     121.48075      43.34735      40.52162
     4  C(13)             -0.05011     -56.33738     -20.10258     -18.79213
     5  C(13)              0.07239      81.37538      29.03676      27.14390
     6  H(1)              -0.00874     -39.06594     -13.93970     -13.03100
     7  H(1)              -0.00946     -42.28583     -15.08863     -14.10503
     8  H(1)               0.00322      14.37874       5.13069       4.79623
     9  H(1)              -0.01348     -60.25060     -21.49891     -20.09744
    10  H(1)               0.00322      14.37874       5.13069       4.79623
    11  H(1)              -0.00946     -42.28583     -15.08863     -14.10503
 --------------------------------------------------------
       Center         ----  Spin Dipole Couplings  ----
                      3XX-RR        3YY-RR        3ZZ-RR
 --------------------------------------------------------
     1   Atom        0.475442     -0.231559     -0.243882
     2   Atom       -0.184556      0.090447      0.094109
     3   Atom        0.696672     -0.355955     -0.340717
     4   Atom       -0.184556      0.090447      0.094109
     5   Atom        0.475442     -0.231559     -0.243882
     6   Atom       -0.007712      0.007401      0.000312
     7   Atom       -0.006494      0.006659     -0.000164
     8   Atom       -0.006277     -0.000456      0.006733
     9   Atom       -0.008482     -0.045399      0.053881
    10   Atom       -0.006277     -0.000456      0.006733
    11   Atom       -0.006494      0.006659     -0.000164
 --------------------------------------------------------
                        XY            XZ            YZ
 --------------------------------------------------------
     1   Atom       -0.000000      0.000000     -0.008083
     2   Atom       -0.000000      0.000000     -0.005493
     3   Atom       -0.000000     -0.000000      0.000000
     4   Atom       -0.000000     -0.000000      0.005493
     5   Atom        0.000000      0.000000      0.008083
     6   Atom       -0.000000      0.000000      0.000000
     7   Atom        0.000000      0.000000     -0.034679
     8   Atom       -0.000000      0.000000     -0.005872
     9   Atom       -0.000000     -0.000000     -0.000000
    10   Atom        0.000000     -0.000000      0.005872
    11   Atom       -0.000000     -0.000000      0.034679
 --------------------------------------------------------


 ---------------------------------------------------------------------------------
              Anisotropic Spin Dipole Couplings in Principal Axis System
 ---------------------------------------------------------------------------------

       Atom             a.u.   MegaHertz   Gauss  10(-4) cm-1        Axes

              Baa    -0.2479   -33.264   -11.869   -11.096 -0.0000  0.4437  0.8962
     1 C(13)  Bbb    -0.2276   -30.536   -10.896   -10.186 -0.0000  0.8962 -0.4437
              Bcc     0.4754    63.800    22.765    21.281  1.0000  0.0000  0.0000
 
              Baa    -0.1846   -24.766    -8.837    -8.261  1.0000  0.0000  0.0000
     2 C(13)  Bbb     0.0865    11.606     4.141     3.871 -0.0000  0.8112  0.5847
              Bcc     0.0981    13.160     4.696     4.390  0.0000 -0.5847  0.8112
 
              Baa    -0.3560   -47.766   -17.044   -15.933 -0.0000  1.0000  0.0000
     3 C(13)  Bbb    -0.3407   -45.721   -16.314   -15.251  0.0000  0.0000  1.0000
              Bcc     0.6967    93.487    33.358    31.184  1.0000  0.0000  0.0000
 
              Baa    -0.1846   -24.766    -8.837    -8.261  1.0000  0.0000  0.0000
     4 C(13)  Bbb     0.0865    11.606     4.141     3.871 -0.0000  0.8112 -0.5847
              Bcc     0.0981    13.160     4.696     4.390 -0.0000  0.5847  0.8112
 
              Baa    -0.2479   -33.264   -11.869   -11.096 -0.0000 -0.4437  0.8962
     5 C(13)  Bbb    -0.2276   -30.536   -10.896   -10.186  0.0000  0.8962  0.4437
              Bcc     0.4754    63.800    22.765    21.281  1.0000 -0.0000  0.0000
 
              Baa    -0.0077    -4.115    -1.468    -1.373  1.0000  0.0000 -0.0000
     6 H(1)   Bbb     0.0003     0.166     0.059     0.055  0.0000 -0.0000  1.0000
              Bcc     0.0074     3.949     1.409     1.317 -0.0000  1.0000  0.0000
 
              Baa    -0.0316   -16.860    -6.016    -5.624 -0.0000  0.6716  0.7409
     7 H(1)   Bbb    -0.0065    -3.465    -1.236    -1.156  1.0000  0.0000  0.0000
              Bcc     0.0381    20.325     7.252     6.780 -0.0000  0.7409 -0.6716
 
              Baa    -0.0063    -3.349    -1.195    -1.117  1.0000  0.0000  0.0000
     8 H(1)   Bbb    -0.0037    -1.999    -0.713    -0.667 -0.0000  0.8724  0.4888
              Bcc     0.0100     5.348     1.908     1.784  0.0000 -0.4888  0.8724
 
              Baa    -0.0454   -24.223    -8.643    -8.080  0.0000  1.0000 -0.0000
     9 H(1)   Bbb    -0.0085    -4.525    -1.615    -1.509  1.0000 -0.0000 -0.0000
              Bcc     0.0539    28.748    10.258     9.589  0.0000  0.0000  1.0000
 
              Baa    -0.0063    -3.349    -1.195    -1.117  1.0000 -0.0000  0.0000
    10 H(1)   Bbb    -0.0037    -1.999    -0.713    -0.667  0.0000  0.8724 -0.4888
              Bcc     0.0100     5.348     1.908     1.784  0.0000  0.4888  0.8724
 
              Baa    -0.0316   -16.860    -6.016    -5.624  0.0000 -0.6716  0.7409
    11 H(1)   Bbb    -0.0065    -3.465    -1.236    -1.156  1.0000  0.0000  0.0000
              Bcc     0.0381    20.325     7.252     6.780 -0.0000  0.7409  0.6716
 

 ---------------------------------------------------------------------------------

 No NMR shielding tensors so no spin-rotation constants.
 Leave Link  601 at Thu Mar  5 12:52:17 2020, MaxMem=  6710886400 cpu:               4.8 elap:               0.3
 (Enter /opt/ohpc/pub/libs/gaussian/g16-A.03/sandybridge/g16/l9999.exe)

 Test job not archived.
 1\1\GINC-CNODE212\SP\ULC-wHPBE\6-31G\C5H6(1+,2)\SMGO234\05-Mar-2020\0\
 \#P uLC-wHPBE/6-31G iop(3/130=0277000000, 3/131=0277000000, 3/119=0723
 000000, 3/120=0723000000) scf=(conver=6,fermi,ndamp=35,noincfock,novar
 acc,vshift=500,xqc)\\H6 C5\\1,2\C,0,0.,0.878804,-0.931542\C,0,0.,1.128
 157,0.423457\C,0,0.,0.,1.240879\C,0,0.,-1.128157,0.423457\C,0,0.,-0.87
 8804,-0.931542\H,0,0.,0.,-1.732269\H,0,0.,1.6083,-1.734053\H,0,0.,2.15
 6626,0.76567\H,0,0.,0.,2.320778\H,0,0.,-2.156626,0.76567\H,0,0.,-1.608
 3,-1.734053\\Version=EM64L-G16RevA.03\State=2-B1\HF=-196.5102119\S2=0.
 810089\S2-1=0.\S2A=0.752057\RMSD=6.476e-07\Dipole=0.,0.,-0.8020792\Qua
 drupole=-7.9376507,2.3612452,5.5764055,0.,0.,0.\PG=C02V [C2(H1C1H1),SG
 V(C4H4)]\\@


 IF YOU GIVE EVERYONE A PIECE OF YOUR MIND,
 PRETTY SOON IT WILL BE ALL GONE.
 Job cpu time:       0 days  0 hours  0 minutes 58.9 seconds.
 Elapsed time:       0 days  0 hours  0 minutes  4.0 seconds.
 File lengths (MBytes):  RWF=    272 Int=      0 D2E=      0 Chk=     32 Scr=     32
 Normal termination of Gaussian 16 at Thu Mar  5 12:52:17 2020.
