 Entering Gaussian System, Link 0=g16
 Input=a1b_tune_n7.gjf
 Output=a1b_tune_n7.log
 Initial command:
 /opt/ohpc/pub/libs/gaussian/g16-A.03/sandybridge/g16/l1.exe "/scratch/smgo234/Ocelot/test/a1b/tuning_a1b_acycle1/Gau-80696.inp" -scrdir="/scratch/smgo234/Ocelot/test/a1b/tuning_a1b_acycle1/"
 Entering Link 1 = /opt/ohpc/pub/libs/gaussian/g16-A.03/sandybridge/g16/l1.exe PID=     80697.
  
 Copyright (c) 1988,1990,1992,1993,1995,1998,2003,2009,2016,
            Gaussian, Inc.  All Rights Reserved.
  
 This is part of the Gaussian(R) 16 program.  It is based on
 the Gaussian(R) 09 system (copyright 2009, Gaussian, Inc.),
 the Gaussian(R) 03 system (copyright 2003, Gaussian, Inc.),
 the Gaussian(R) 98 system (copyright 1998, Gaussian, Inc.),
 the Gaussian(R) 94 system (copyright 1995, Gaussian, Inc.),
 the Gaussian 92(TM) system (copyright 1992, Gaussian, Inc.),
 the Gaussian 90(TM) system (copyright 1990, Gaussian, Inc.),
 the Gaussian 88(TM) system (copyright 1988, Gaussian, Inc.),
 the Gaussian 86(TM) system (copyright 1986, Carnegie Mellon
 University), and the Gaussian 82(TM) system (copyright 1983,
 Carnegie Mellon University). Gaussian is a federally registered
 trademark of Gaussian, Inc.
  
 This software contains proprietary and confidential information,
 including trade secrets, belonging to Gaussian, Inc.
  
 This software is provided under written license and may be
 used, copied, transmitted, or stored only in accord with that
 written license.
  
 The following legend is applicable only to US Government
 contracts under FAR:
  
                    RESTRICTED RIGHTS LEGEND
  
 Use, reproduction and disclosure by the US Government is
 subject to restrictions as set forth in subparagraphs (a)
 and (c) of the Commercial Computer Software - Restricted
 Rights clause in FAR 52.227-19.
  
 Gaussian, Inc.
 340 Quinnipiac St., Bldg. 40, Wallingford CT 06492
  
  
 ---------------------------------------------------------------
 Warning -- This program may not be used in any manner that
 competes with the business of Gaussian, Inc. or will provide
 assistance to any competitor of Gaussian, Inc.  The licensee
 of this program is prohibited from giving any competitor of
 Gaussian, Inc. access to this program.  By using this program,
 the user acknowledges that Gaussian, Inc. is engaged in the
 business of creating and licensing software in the field of
 computational chemistry and represents and warrants to the
 licensee that it is not a competitor of Gaussian, Inc. and that
 it will not use this program in any manner prohibited above.
 ---------------------------------------------------------------
  

 Cite this work as:
 Gaussian 16, Revision A.03,
 M. J. Frisch, G. W. Trucks, H. B. Schlegel, G. E. Scuseria, 
 M. A. Robb, J. R. Cheeseman, G. Scalmani, V. Barone, 
 G. A. Petersson, H. Nakatsuji, X. Li, M. Caricato, A. V. Marenich, 
 J. Bloino, B. G. Janesko, R. Gomperts, B. Mennucci, H. P. Hratchian, 
 J. V. Ortiz, A. F. Izmaylov, J. L. Sonnenberg, D. Williams-Young, 
 F. Ding, F. Lipparini, F. Egidi, J. Goings, B. Peng, A. Petrone, 
 T. Henderson, D. Ranasinghe, V. G. Zakrzewski, J. Gao, N. Rega, 
 G. Zheng, W. Liang, M. Hada, M. Ehara, K. Toyota, R. Fukuda, 
 J. Hasegawa, M. Ishida, T. Nakajima, Y. Honda, O. Kitao, H. Nakai, 
 T. Vreven, K. Throssell, J. A. Montgomery, Jr., J. E. Peralta, 
 F. Ogliaro, M. J. Bearpark, J. J. Heyd, E. N. Brothers, K. N. Kudin, 
 V. N. Staroverov, T. A. Keith, R. Kobayashi, J. Normand, 
 K. Raghavachari, A. P. Rendell, J. C. Burant, S. S. Iyengar, 
 J. Tomasi, M. Cossi, J. M. Millam, M. Klene, C. Adamo, R. Cammi, 
 J. W. Ochterski, R. L. Martin, K. Morokuma, O. Farkas, 
 J. B. Foresman, and D. J. Fox, Gaussian, Inc., Wallingford CT, 2016.
 
 ******************************************
 Gaussian 16:  EM64L-G16RevA.03 25-Dec-2016
                 5-Mar-2020 
 ******************************************
 %mem=50GB
 %nproc=16
 Will use up to   16 processors via shared memory.
 ----------------------------------------------------------------------
 #P uLC-wHPBE/6-31G iop(3/130=0238200000, 3/131=0238200000, 3/119=07618
 00000, 3/120=0761800000) scf=(conver=6,fermi,ndamp=35,noincfock,novara
 cc,vshift=500,xqc)
 ----------------------------------------------------------------------
 1/38=1,172=1/1;
 2/12=2,17=6,18=5,40=1/2;
 3/5=1,6=6,11=2,25=1,30=1,74=-71,116=2,119=761800000,120=761800000,130=238200000,131=238200000/1,2,3;
 4//1;
 5/5=100002,6=6,8=3,10=500,13=1,18=-1,22=13,38=1,93=35/2,8;
 6/7=2,8=2,9=2,10=2,28=1/1;
 99/5=1,9=1/99;
 Leave Link    1 at Thu Mar  5 12:52:34 2020, MaxMem=  6710886400 cpu:              14.8 elap:               1.0
 (Enter /opt/ohpc/pub/libs/gaussian/g16-A.03/sandybridge/g16/l101.exe)
 -----
 H6 C5
 -----
 Symbolic Z-matrix:
 Charge =  0 Multiplicity = 1
 C                     0.        0.8788   -0.93154 
 C                     0.        1.12816   0.42346 
 C                     0.        0.        1.24088 
 C                     0.       -1.12816   0.42346 
 C                     0.       -0.8788   -0.93154 
 H                     0.        0.       -1.73227 
 H                     0.        1.6083   -1.73405 
 H                     0.        2.15663   0.76567 
 H                     0.        0.        2.32078 
 H                     0.       -2.15663   0.76567 
 H                     0.       -1.6083   -1.73405 
 
 ITRead=  0  0  0  0  0  0  0  0  0  0  0
 MicOpt= -1 -1 -1 -1 -1 -1 -1 -1 -1 -1 -1
 NAtoms=     11 NQM=       11 NQMF=       0 NMMI=      0 NMMIF=      0
                NMic=       0 NMicF=      0.
                    Isotopes and Nuclear Properties:
 (Nuclear quadrupole moments (NQMom) in fm**2, nuclear magnetic moments (NMagM)
  in nuclear magnetons)

  Atom         1           2           3           4           5           6           7           8           9          10
 IAtWgt=          12          12          12          12          12           1           1           1           1           1
 AtmWgt=  12.0000000  12.0000000  12.0000000  12.0000000  12.0000000   1.0078250   1.0078250   1.0078250   1.0078250   1.0078250
 NucSpn=           0           0           0           0           0           1           1           1           1           1
 AtZEff=  -0.0000000  -0.0000000  -0.0000000  -0.0000000  -0.0000000  -0.0000000  -0.0000000  -0.0000000  -0.0000000  -0.0000000
 NQMom=    0.0000000   0.0000000   0.0000000   0.0000000   0.0000000   0.0000000   0.0000000   0.0000000   0.0000000   0.0000000
 NMagM=    0.0000000   0.0000000   0.0000000   0.0000000   0.0000000   2.7928460   2.7928460   2.7928460   2.7928460   2.7928460
 AtZNuc=   6.0000000   6.0000000   6.0000000   6.0000000   6.0000000   1.0000000   1.0000000   1.0000000   1.0000000   1.0000000

  Atom        11
 IAtWgt=           1
 AtmWgt=   1.0078250
 NucSpn=           1
 AtZEff=  -0.0000000
 NQMom=    0.0000000
 NMagM=    2.7928460
 AtZNuc=   1.0000000
 Leave Link  101 at Thu Mar  5 12:52:35 2020, MaxMem=  6710886400 cpu:               3.1 elap:               0.2
 (Enter /opt/ohpc/pub/libs/gaussian/g16-A.03/sandybridge/g16/l202.exe)
                          Input orientation:                          
 ---------------------------------------------------------------------
 Center     Atomic      Atomic             Coordinates (Angstroms)
 Number     Number       Type             X           Y           Z
 ---------------------------------------------------------------------
      1          6           0        0.000000    0.878804   -0.931542
      2          6           0        0.000000    1.128157    0.423457
      3          6           0        0.000000    0.000000    1.240879
      4          6           0        0.000000   -1.128157    0.423457
      5          6           0        0.000000   -0.878804   -0.931542
      6          1           0        0.000000    0.000000   -1.732269
      7          1           0        0.000000    1.608300   -1.734053
      8          1           0        0.000000    2.156626    0.765670
      9          1           0        0.000000    0.000000    2.320778
     10          1           0        0.000000   -2.156626    0.765670
     11          1           0        0.000000   -1.608300   -1.734053
 ---------------------------------------------------------------------
                    Distance matrix (angstroms):
                    1          2          3          4          5
     1  C    0.000000
     2  C    1.377752   0.000000
     3  C    2.343440   1.393168   0.000000
     4  C    2.421552   2.256314   1.393168   0.000000
     5  C    1.757608   2.421552   2.343440   1.377752   0.000000
     6  H    1.188890   2.433083   2.973148   2.433083   1.188890
     7  H    1.084522   2.210291   3.381841   3.484687   2.613371
     8  H    2.124466   1.083909   2.208361   3.302561   3.477695
     9  H    3.368959   2.207389   1.079899   2.207389   3.368959
    10  H    3.477695   3.302561   2.208361   1.083909   2.124466
    11  H    2.613371   3.484687   3.381841   2.210291   1.084522
                    6          7          8          9         10
     6  H    0.000000
     7  H    1.608301   0.000000
     8  H    3.300111   2.559155   0.000000
     9  H    4.053047   4.362142   2.658834   0.000000
    10  H    3.300111   4.519213   4.313252   2.658834   0.000000
    11  H    1.608301   3.216600   4.519213   4.362142   2.559155
                   11
    11  H    0.000000
 Stoichiometry    C5H6
 Framework group  C2V[C2(HCH),SGV(C4H4)]
 Deg. of freedom    10
 Full point group                 C2V     NOp   4
 Largest Abelian subgroup         C2V     NOp   4
 Largest concise Abelian subgroup C2      NOp   2
                         Standard orientation:                         
 ---------------------------------------------------------------------
 Center     Atomic      Atomic             Coordinates (Angstroms)
 Number     Number       Type             X           Y           Z
 ---------------------------------------------------------------------
      1          6           0        0.000000    0.878804   -0.931542
      2          6           0        0.000000    1.128157    0.423457
      3          6           0        0.000000   -0.000000    1.240879
      4          6           0       -0.000000   -1.128157    0.423457
      5          6           0       -0.000000   -0.878804   -0.931542
      6          1           0       -0.000000    0.000000   -1.732269
      7          1           0        0.000000    1.608300   -1.734053
      8          1           0        0.000000    2.156626    0.765670
      9          1           0        0.000000   -0.000000    2.320778
     10          1           0       -0.000000   -2.156626    0.765670
     11          1           0       -0.000000   -1.608300   -1.734053
 ---------------------------------------------------------------------
 Rotational constants (GHZ):           8.5259551           7.9375455           4.1106177
 Leave Link  202 at Thu Mar  5 12:52:35 2020, MaxMem=  6710886400 cpu:               0.2 elap:               0.0
 (Enter /opt/ohpc/pub/libs/gaussian/g16-A.03/sandybridge/g16/l301.exe)
 Standard basis: 6-31G (6D, 7F)
 Ernie: Thresh=  0.10000D-02 Tol=  0.10000D-05 Strict=F.
 There are    27 symmetry adapted cartesian basis functions of A1  symmetry.
 There are     4 symmetry adapted cartesian basis functions of A2  symmetry.
 There are     6 symmetry adapted cartesian basis functions of B1  symmetry.
 There are    20 symmetry adapted cartesian basis functions of B2  symmetry.
 There are    27 symmetry adapted basis functions of A1  symmetry.
 There are     4 symmetry adapted basis functions of A2  symmetry.
 There are     6 symmetry adapted basis functions of B1  symmetry.
 There are    20 symmetry adapted basis functions of B2  symmetry.
    57 basis functions,   134 primitive gaussians,    57 cartesian basis functions
    18 alpha electrons       18 beta electrons
       nuclear repulsion energy       156.0127424860 Hartrees.
 IExCor=33909 DFT=T Ex+Corr=LC-wHPBE ExCW=0 ScaHFX=  1.000000
 ScaDFX=  1.000000  1.000000  1.000000  1.000000 ScalE2=  1.000000  1.000000
 IRadAn=      5 IRanWt=     -1 IRanGd=            0 ICorTp=0 IEmpDi=  4
 HFx  wShort=  0.000000 wLong=  0.400000 cFull=  0.000000 cShort=  0.000000 cLong=  0.761800
 DFx  wShort=  0.000000 wLong=  0.400000 cFull=  0.000000 cShort=  0.000000 cLong=  0.761800
 NAtoms=   11 NActive=   11 NUniq=    7 SFac= 2.47D+00 NAtFMM=   60 NAOKFM=F Big=F
 Integral buffers will be    131072 words long.
 Raffenetti 2 integral format.
 Two-electron integral symmetry is turned on.
 Leave Link  301 at Thu Mar  5 12:52:35 2020, MaxMem=  6710886400 cpu:               0.9 elap:               0.1
 (Enter /opt/ohpc/pub/libs/gaussian/g16-A.03/sandybridge/g16/l302.exe)
 NPDir=0 NMtPBC=     1 NCelOv=     1 NCel=       1 NClECP=     1 NCelD=      1
         NCelK=      1 NCelE2=     1 NClLst=     1 CellRange=     0.0.
 One-electron integrals computed using PRISM.
 One-electron integral symmetry used in STVInt
 NBasis=    57 RedAO= T EigKep=  1.84D-03  NBF=    27     4     6    20
 NBsUse=    57 1.00D-06 EigRej= -1.00D+00 NBFU=    27     4     6    20
 Precomputing XC quadrature grid using
 IXCGrd= 4 IRadAn=           5 IRanWt=          -1 IRanGd=           0 AccXCQ= 0.00D+00.
 Generated NRdTot=       0 NPtTot=           0 NUsed=           0 NTot=          32
 NSgBfM=    57    57    57    57    57 MxSgAt=    11 MxSgA2=    11.
 Leave Link  302 at Thu Mar  5 12:52:35 2020, MaxMem=  6710886400 cpu:               2.1 elap:               0.2
 (Enter /opt/ohpc/pub/libs/gaussian/g16-A.03/sandybridge/g16/l303.exe)
 DipDrv:  MaxL=1.
 Leave Link  303 at Thu Mar  5 12:52:35 2020, MaxMem=  6710886400 cpu:               0.4 elap:               0.0
 (Enter /opt/ohpc/pub/libs/gaussian/g16-A.03/sandybridge/g16/l401.exe)
 ExpMin= 1.61D-01 ExpMax= 3.05D+03 ExpMxC= 4.57D+02 IAcc=3 IRadAn=         5 AccDes= 0.00D+00
 Harris functional with IExCor=33909 and IRadAn=       5 diagonalized for initial guess.
 HarFok:  IExCor=33909 AccDes= 0.00D+00 IRadAn=         5 IDoV= 1 UseB2=F ITyADJ=14
 ICtDFT=  3500011 ScaDFX=  1.000000  1.000000  1.000000  1.000000
 FoFCou: FMM=F IPFlag=           0 FMFlag=      100000 FMFlg1=           0
         NFxFlg=           0 DoJE=T BraDBF=F KetDBF=T FulRan=T
         wScrn=  0.000000 ICntrl=       500 IOpCl=  0 I1Cent=   200000004 NGrid=           0
         NMat0=    1 NMatS0=      1 NMatT0=    0 NMatD0=    1 NMtDS0=    0 NMtDT0=    0
 Petite list used in FoFCou.
 Harris En= -171.695039681232    
 JPrj=0 DoOrth=F DoCkMO=F.
 Initial guess orbital symmetries:
 Alpha Orbitals:
       Occupied  (A1) (B2) (A1) (B2) (A1) (A1) (A1) (B2) (A1) (A1)
                 (B2) (B1) (B2) (A1) (A1) (B2) (A2) (B1)
       Virtual   (A2) (A1) (B2) (B1) (A1) (B2) (A1) (A1) (B2) (A1)
                 (B2) (B2) (A1) (B1) (B2) (A2) (A1) (B1) (A1) (B2)
                 (A2) (A1) (B1) (B2) (A1) (B2) (B2) (A1) (A1) (B2)
                 (A1) (A1) (A1) (B2) (B2) (A1) (A1) (A1) (B2)
 Beta  Orbitals:
       Occupied  (A1) (B2) (A1) (B2) (A1) (A1) (A1) (B2) (A1) (A1)
                 (B2) (B1) (B2) (A1) (A1) (B2) (A2) (B1)
       Virtual   (A2) (A1) (B2) (B1) (A1) (B2) (A1) (A1) (B2) (A1)
                 (B2) (B2) (A1) (B1) (B2) (A2) (A1) (B1) (A1) (B2)
                 (A2) (A1) (B1) (B2) (A1) (B2) (B2) (A1) (A1) (B2)
                 (A1) (A1) (A1) (B2) (B2) (A1) (A1) (A1) (B2)
 The electronic state of the initial guess is 1-A1.
 Initial guess <Sx>= 0.0000 <Sy>= 0.0000 <Sz>= 0.0000 <S**2>= 0.0000 S= 0.0000
 Leave Link  401 at Thu Mar  5 12:52:35 2020, MaxMem=  6710886400 cpu:               3.1 elap:               0.2
 (Enter /opt/ohpc/pub/libs/gaussian/g16-A.03/sandybridge/g16/l502.exe)
 Keep R1 and R2 ints in memory in symmetry-blocked form, NReq=16815681.
 FoFCou: FMM=F IPFlag=           0 FMFlag=           0 FMFlg1=           0
         NFxFlg=           0 DoJE=F BraDBF=F KetDBF=F FulRan=T
         wScrn=  0.000000 ICntrl=       600 IOpCl=  0 I1Cent=           0 NGrid=           0
         NMat0=    1 NMatS0=   1653 NMatT0=    0 NMatD0=    1 NMtDS0=    0 NMtDT0=    0
 Petite list used in FoFCou.
 UHF open shell SCF:
 Using DIIS extrapolation, IDIIS=    10.
 NGot=  6710886400 LenX=  6710059561 LenY=  6710055871
 Requested convergence on RMS density matrix=1.00D-06 within  32 cycles.
 Requested convergence on MAX density matrix=1.00D-04.
 Requested convergence on             energy=1.00D-04.
 Virtual orbitals will be shifted by   0.500 hartree.
 No special actions if energy rises.
 Dynamic level shift is on during FON iterations.

 Cycle   1  Pass 1  IDiag  1:
 E= -176.786212636461    
 DIIS: error= 4.90D-02 at cycle   1 NSaved=   1.
 NSaved= 1 IEnMin= 1 EnMin= -176.786212636461     IErMin= 1 ErrMin= 4.90D-02
 ErrMax= 4.90D-02  0.00D+00 EMaxC= 1.00D+00 BMatC= 4.41D-01 BMatP= 4.41D-01
 IDIUse=1 WtCom= 1.00D+00 WtEn= 0.00D+00
 Coeff-Com:  0.100D+01
 Coeff:      0.100D+01
 Gap=     0.355 Goal=   None    Shift=    0.500
 T= 1790. Gap= 0.824 NK=0 IS=   19 IE=   57 IFin=   18
          NO(<0.9)=   0  NV(>0.1)=   0     18.00e < EF      0.00e >EF  Err=0.0D+00
 Gap=     0.355 Goal=   None    Shift=    0.500
 T= 1790. Gap= 0.824 NK=0 IS=   19 IE=   57 IFin=   18
          NO(<0.9)=   0  NV(>0.1)=   0     18.00e < EF      0.00e >EF  Err=0.0D+00
 GapD=    0.355 DampG=1.000 DampE=0.500 DampFc=0.5000 IDamp=-1.
 Damping current iteration by 5.00D-01
 RMSDP=9.37D-03 MaxDP=7.35D-02              OVMax= 8.70D-02

 Cycle   2  Pass 1  IDiag  1:
 E= -176.861531905616     Delta-E=       -0.075319269155 Rises=F Damp=T
 DIIS: error= 2.06D-02 at cycle   2 NSaved=   2.
 NSaved= 2 IEnMin= 2 EnMin= -176.861531905616     IErMin= 2 ErrMin= 2.06D-02
 ErrMax= 2.06D-02  0.00D+00 EMaxC= 1.00D+00 BMatC= 6.62D-02 BMatP= 4.41D-01
 IDIUse=1 WtCom= 1.00D+00 WtEn= 0.00D+00
 Coeff-Com: -0.570D+00 0.157D+01
 Coeff:     -0.570D+00 0.157D+01
 Gap=     0.373 Goal=   None    Shift=    0.500
 T= 1661. Gap= 0.862 NK=0 IS=   19 IE=   57 IFin=   18
          NO(<0.9)=   0  NV(>0.1)=   0     18.00e < EF      0.00e >EF  Err=0.0D+00
 Gap=     0.373 Goal=   None    Shift=    0.500
 T= 1661. Gap= 0.862 NK=0 IS=   19 IE=   57 IFin=   18
          NO(<0.9)=   0  NV(>0.1)=   0     18.00e < EF      0.00e >EF  Err=0.0D+00
 GapD=    0.373 DampG=1.000 DampE=0.500 DampFc=0.5000 IDamp=-1.
 Damping current iteration by 5.00D-01
 RMSDP=5.76D-03 MaxDP=4.84D-02 DE=-7.53D-02 OVMax= 9.19D-03

 Cycle   3  Pass 1  IDiag  1:
 E= -176.885881646455     Delta-E=       -0.024349740839 Rises=F Damp=T
 DIIS: error= 8.85D-03 at cycle   3 NSaved=   3.
 NSaved= 3 IEnMin= 3 EnMin= -176.885881646455     IErMin= 3 ErrMin= 8.85D-03
 ErrMax= 8.85D-03  0.00D+00 EMaxC= 1.00D+00 BMatC= 1.17D-02 BMatP= 6.62D-02
 IDIUse=1 WtCom= 1.00D+00 WtEn= 0.00D+00
 Coeff-Com:  0.231D+00-0.151D+01 0.228D+01
 Coeff:      0.231D+00-0.151D+01 0.228D+01
 Gap=     0.361 Goal=   None    Shift=    0.500
 T= 1413. Gap= 0.861 NK=0 IS=   19 IE=   57 IFin=   18
          NO(<0.9)=   0  NV(>0.1)=   0     18.00e < EF      0.00e >EF  Err=0.0D+00
 Gap=     0.361 Goal=   None    Shift=    0.500
 T= 1413. Gap= 0.861 NK=0 IS=   19 IE=   57 IFin=   18
          NO(<0.9)=   0  NV(>0.1)=   0     18.00e < EF      0.00e >EF  Err=0.0D+00
 GapD=    0.361 DampG=1.000 DampE=1.000 DampFc=1.0000 IDamp=-1.
 RMSDP=3.19D-03 MaxDP=2.79D-02 DE=-2.43D-02 OVMax= 4.46D-03

 Cycle   4  Pass 1  IDiag  1:
 E= -176.905531281717     Delta-E=       -0.019649635262 Rises=F Damp=F
 DIIS: error= 1.23D-03 at cycle   4 NSaved=   4.
 NSaved= 4 IEnMin= 4 EnMin= -176.905531281717     IErMin= 4 ErrMin= 1.23D-03
 ErrMax= 1.23D-03  0.00D+00 EMaxC= 1.00D+00 BMatC= 5.03D-04 BMatP= 1.17D-02
 IDIUse=1 WtCom= 1.00D+00 WtEn= 0.00D+00
 Coeff-Com:  0.107D+00-0.246D+00 0.774D-01 0.106D+01
 Coeff:      0.107D+00-0.246D+00 0.774D-01 0.106D+01
 Gap=     0.362 Goal=   None    Shift=    0.500
 T=  851. Gap= 0.862 NK=0 IS=   19 IE=   57 IFin=   18
          NO(<0.9)=   0  NV(>0.1)=   0     18.00e < EF      0.00e >EF  Err=0.0D+00
 Gap=     0.362 Goal=   None    Shift=    0.500
 T=  851. Gap= 0.862 NK=0 IS=   19 IE=   57 IFin=   18
          NO(<0.9)=   0  NV(>0.1)=   0     18.00e < EF      0.00e >EF  Err=0.0D+00
 GapD=    0.362 DampG=1.000 DampE=1.000 DampFc=1.0000 IDamp=-1.
 RMSDP=3.71D-04 MaxDP=3.72D-03 DE=-1.96D-02 OVMax= 2.08D-03

 Cycle   5  Pass 1  IDiag  1:
 E= -176.905677328944     Delta-E=       -0.000146047227 Rises=F Damp=F
 DIIS: error= 4.59D-04 at cycle   5 NSaved=   5.
 NSaved= 5 IEnMin= 5 EnMin= -176.905677328944     IErMin= 5 ErrMin= 4.59D-04
 ErrMax= 4.59D-04  0.00D+00 EMaxC= 1.00D+00 BMatC= 4.92D-05 BMatP= 5.03D-04
 IDIUse=1 WtCom= 1.00D+00 WtEn= 0.00D+00
 Coeff-Com: -0.182D-01 0.185D+00-0.312D+00-0.123D+00 0.127D+01
 Coeff:     -0.182D-01 0.185D+00-0.312D+00-0.123D+00 0.127D+01
 Gap=     0.362 Goal=   None    Shift=    0.500
 Gap=     0.362 Goal=   None    Shift=    0.500
 RMSDP=1.67D-04 MaxDP=1.97D-03 DE=-1.46D-04 OVMax= 1.47D-03

 Cycle   6  Pass 1  IDiag  1:
 E= -176.905701378679     Delta-E=       -0.000024049735 Rises=F Damp=F
 DIIS: error= 2.75D-04 at cycle   6 NSaved=   6.
 NSaved= 6 IEnMin= 6 EnMin= -176.905701378679     IErMin= 6 ErrMin= 2.75D-04
 ErrMax= 2.75D-04  0.00D+00 EMaxC= 1.00D+00 BMatC= 8.33D-06 BMatP= 4.92D-05
 IDIUse=1 WtCom= 1.00D+00 WtEn= 0.00D+00
 Coeff-Com: -0.696D-02-0.263D-01 0.795D-01-0.116D+00-0.819D+00 0.189D+01
 Coeff:     -0.696D-02-0.263D-01 0.795D-01-0.116D+00-0.819D+00 0.189D+01
 Gap=     0.362 Goal=   None    Shift=    0.500
 Gap=     0.362 Goal=   None    Shift=    0.500
 RMSDP=9.05D-05 MaxDP=1.17D-03 DE=-2.40D-05 OVMax= 9.21D-04

 Cycle   7  Pass 1  IDiag  1:
 E= -176.905707547831     Delta-E=       -0.000006169152 Rises=F Damp=F
 DIIS: error= 1.93D-04 at cycle   7 NSaved=   7.
 NSaved= 7 IEnMin= 7 EnMin= -176.905707547831     IErMin= 7 ErrMin= 1.93D-04
 ErrMax= 1.93D-04  0.00D+00 EMaxC= 1.00D+00 BMatC= 2.00D-06 BMatP= 8.33D-06
 IDIUse=1 WtCom= 1.00D+00 WtEn= 0.00D+00
 Coeff-Com:  0.476D-02-0.147D-01 0.101D-01 0.712D-01-0.335D-01-0.124D+01
 Coeff-Com:  0.221D+01
 Coeff:      0.476D-02-0.147D-01 0.101D-01 0.712D-01-0.335D-01-0.124D+01
 Coeff:      0.221D+01
 Gap=     0.362 Goal=   None    Shift=    0.500
 Gap=     0.362 Goal=   None    Shift=    0.500
 RMSDP=4.52D-05 MaxDP=5.70D-04 DE=-6.17D-06 OVMax= 5.96D-04

 Cycle   8  Pass 1  IDiag  1:
 E= -176.905709327197     Delta-E=       -0.000001779366 Rises=F Damp=F
 DIIS: error= 1.20D-04 at cycle   8 NSaved=   8.
 NSaved= 8 IEnMin= 8 EnMin= -176.905709327197     IErMin= 8 ErrMin= 1.20D-04
 ErrMax= 1.20D-04  0.00D+00 EMaxC= 1.00D+00 BMatC= 5.05D-07 BMatP= 2.00D-06
 IDIUse=1 WtCom= 1.00D+00 WtEn= 0.00D+00
 Coeff-Com:  0.121D-02 0.477D-02-0.152D-01 0.432D-01 0.724D-01-0.331D+00
 Coeff-Com: -0.720D+00 0.194D+01
 Coeff:      0.121D-02 0.477D-02-0.152D-01 0.432D-01 0.724D-01-0.331D+00
 Coeff:     -0.720D+00 0.194D+01
 Gap=     0.362 Goal=   None    Shift=    0.500
 Gap=     0.362 Goal=   None    Shift=    0.500
 RMSDP=2.12D-05 MaxDP=2.54D-04 DE=-1.78D-06 OVMax= 3.42D-04

 Cycle   9  Pass 1  IDiag  1:
 E= -176.905709814051     Delta-E=       -0.000000486854 Rises=F Damp=F
 DIIS: error= 7.83D-05 at cycle   9 NSaved=   9.
 NSaved= 9 IEnMin= 9 EnMin= -176.905709814051     IErMin= 9 ErrMin= 7.83D-05
 ErrMax= 7.83D-05  0.00D+00 EMaxC= 1.00D+00 BMatC= 1.59D-07 BMatP= 5.05D-07
 IDIUse=1 WtCom= 1.00D+00 WtEn= 0.00D+00
 Coeff-Com: -0.688D-03 0.863D-02-0.153D-01 0.142D-01 0.498D-01 0.170D+00
 Coeff-Com: -0.116D+01 0.674D+00 0.126D+01
 Coeff:     -0.688D-03 0.863D-02-0.153D-01 0.142D-01 0.498D-01 0.170D+00
 Coeff:     -0.116D+01 0.674D+00 0.126D+01
 Gap=     0.362 Goal=   None    Shift=    0.500
 Gap=     0.362 Goal=   None    Shift=    0.500
 RMSDP=1.03D-05 MaxDP=1.16D-04 DE=-4.87D-07 OVMax= 2.05D-04

 Cycle  10  Pass 1  IDiag  1:
 E= -176.905709958563     Delta-E=       -0.000000144512 Rises=F Damp=F
 DIIS: error= 4.56D-05 at cycle  10 NSaved=  10.
 NSaved=10 IEnMin=10 EnMin= -176.905709958563     IErMin=10 ErrMin= 4.56D-05
 ErrMax= 4.56D-05  0.00D+00 EMaxC= 1.00D+00 BMatC= 4.95D-08 BMatP= 1.59D-07
 IDIUse=1 WtCom= 1.00D+00 WtEn= 0.00D+00
 Coeff-Com: -0.198D-03 0.642D-03-0.612D-03 0.114D-02-0.165D-01 0.606D-01
 Coeff-Com:  0.989D-01-0.382D+00-0.104D+01 0.228D+01
 Coeff:     -0.198D-03 0.642D-03-0.612D-03 0.114D-02-0.165D-01 0.606D-01
 Coeff:      0.989D-01-0.382D+00-0.104D+01 0.228D+01
 Gap=     0.362 Goal=   None    Shift=    0.500
 Gap=     0.362 Goal=   None    Shift=    0.500
 RMSDP=5.20D-06 MaxDP=5.45D-05 DE=-1.45D-07 OVMax= 1.16D-04

 Cycle  11  Pass 1  IDiag  1:
 E= -176.905710000681     Delta-E=       -0.000000042118 Rises=F Damp=F
 DIIS: error= 2.75D-05 at cycle  11 NSaved=  11.
 NSaved=11 IEnMin=11 EnMin= -176.905710000681     IErMin=11 ErrMin= 2.75D-05
 ErrMax= 2.75D-05  0.00D+00 EMaxC= 1.00D+00 BMatC= 1.79D-08 BMatP= 4.95D-08
 IDIUse=1 WtCom= 1.00D+00 WtEn= 0.00D+00
 Coeff-Com:  0.647D-04 0.409D-03-0.111D-02 0.384D-02-0.697D-02-0.233D-01
 Coeff-Com:  0.120D+00 0.125D-01-0.421D+00-0.871D+00 0.219D+01
 Coeff:      0.647D-04 0.409D-03-0.111D-02 0.384D-02-0.697D-02-0.233D-01
 Coeff:      0.120D+00 0.125D-01-0.421D+00-0.871D+00 0.219D+01
 Gap=     0.362 Goal=   None    Shift=    0.500
 Gap=     0.362 Goal=   None    Shift=    0.500
 RMSDP=2.58D-06 MaxDP=2.48D-05 DE=-4.21D-08 OVMax= 6.66D-05

 Cycle  12  Pass 1  IDiag  1:
 E= -176.905710013702     Delta-E=       -0.000000013021 Rises=F Damp=F
 DIIS: error= 1.60D-05 at cycle  12 NSaved=  12.
 NSaved=12 IEnMin=12 EnMin= -176.905710013702     IErMin=12 ErrMin= 1.60D-05
 ErrMax= 1.60D-05  0.00D+00 EMaxC= 1.00D+00 BMatC= 6.11D-09 BMatP= 1.79D-08
 IDIUse=1 WtCom= 1.00D+00 WtEn= 0.00D+00
 Coeff-Com:  0.405D-04-0.993D-05-0.156D-03 0.104D-02-0.399D-04-0.631D-02
 Coeff-Com: -0.951D-02 0.830D-01-0.179D-01 0.223D-01-0.173D+01 0.266D+01
 Coeff:      0.405D-04-0.993D-05-0.156D-03 0.104D-02-0.399D-04-0.631D-02
 Coeff:     -0.951D-02 0.830D-01-0.179D-01 0.223D-01-0.173D+01 0.266D+01
 Gap=     0.362 Goal=   None    Shift=    0.500
 Gap=     0.362 Goal=   None    Shift=    0.500
 RMSDP=1.30D-06 MaxDP=1.33D-05 DE=-1.30D-08 OVMax= 3.74D-05

 Cycle  13  Pass 1  IDiag  1:
 E= -176.905710017658     Delta-E=       -0.000000003957 Rises=F Damp=F
 DIIS: error= 9.22D-06 at cycle  13 NSaved=  13.
 NSaved=13 IEnMin=13 EnMin= -176.905710017658     IErMin=13 ErrMin= 9.22D-06
 ErrMax= 9.22D-06  0.00D+00 EMaxC= 1.00D+00 BMatC= 2.08D-09 BMatP= 6.11D-09
 IDIUse=1 WtCom= 1.00D+00 WtEn= 0.00D+00
 Coeff-Com: -0.215D-04-0.241D-04 0.129D-03-0.435D-03-0.760D-03 0.115D-01
 Coeff-Com: -0.203D-01-0.113D-01-0.236D-01 0.405D+00-0.308D+00-0.212D+01
 Coeff-Com:  0.306D+01
 Coeff:     -0.215D-04-0.241D-04 0.129D-03-0.435D-03-0.760D-03 0.115D-01
 Coeff:     -0.203D-01-0.113D-01-0.236D-01 0.405D+00-0.308D+00-0.212D+01
 Coeff:      0.306D+01
 Gap=     0.362 Goal=   None    Shift=    0.500
 Gap=     0.362 Goal=   None    Shift=    0.500
 RMSDP=6.63D-07 MaxDP=7.17D-06 DE=-3.96D-09 OVMax= 2.09D-05

 SCF Done:  E(ULC-wHPBE) =  -176.905710018     A.U. after   13 cycles
            NFock= 13  Conv=0.66D-06     -V/T= 1.9524
 <Sx>= 0.0000 <Sy>= 0.0000 <Sz>= 0.0000 <S**2>=-0.0000 S=-0.0000
 <L.S>= 0.000000000000E+00
 KE= 1.857409404414D+02 PE=-7.468484428085D+02 EE= 2.281890498635D+02
 Annihilation of the first spin contaminant:
 S**2 before annihilation    -0.0000,   after     0.0000
 Leave Link  502 at Thu Mar  5 12:52:37 2020, MaxMem=  6710886400 cpu:              20.8 elap:               1.3
 (Enter /opt/ohpc/pub/libs/gaussian/g16-A.03/sandybridge/g16/l508.exe)
 QCSCF skips out because SCF is already converged.
 Leave Link  508 at Thu Mar  5 12:52:37 2020, MaxMem=  6710886400 cpu:               0.3 elap:               0.0
 (Enter /opt/ohpc/pub/libs/gaussian/g16-A.03/sandybridge/g16/l601.exe)
 Copying SCF densities to generalized density rwf, IOpCl= 1 IROHF=0.

 **********************************************************************

            Population analysis using the SCF density.

 **********************************************************************

 Orbital symmetries:
 Alpha Orbitals:
       Occupied  (B2) (A1) (A1) (B2) (A1) (A1) (A1) (B2) (A1) (B2)
                 (A1) (B2) (B1) (A1) (A1) (B2) (A2) (B1)
       Virtual   (A2) (B2) (A1) (A1) (B1) (B2) (A1) (B2) (A1) (A1)
                 (B2) (B2) (A1) (B2) (B1) (A2) (A1) (B1) (A1) (A2)
                 (B2) (A1) (B1) (B2) (A1) (B2) (B2) (A1) (A1) (A1)
                 (B2) (A1) (A1) (B2) (B2) (A1) (A1) (A1) (B2)
 Beta  Orbitals:
       Occupied  (B2) (A1) (A1) (B2) (A1) (A1) (A1) (B2) (A1) (B2)
                 (A1) (B2) (B1) (A1) (A1) (B2) (A2) (B1)
       Virtual   (A2) (B2) (A1) (A1) (B1) (B2) (A1) (B2) (A1) (A1)
                 (B2) (B2) (A1) (B2) (B1) (A2) (A1) (B1) (A1) (A2)
                 (B2) (A1) (B1) (B2) (A1) (B2) (B2) (A1) (A1) (A1)
                 (B2) (A1) (A1) (B2) (B2) (A1) (A1) (A1) (B2)
 The electronic state is 1-A1.
 Alpha  occ. eigenvalues --   -8.59248  -8.59216  -8.54133  -8.54110  -8.51615
 Alpha  occ. eigenvalues --   -0.89554  -0.75876  -0.71498  -0.58830  -0.56713
 Alpha  occ. eigenvalues --   -0.56234  -0.43551  -0.43157  -0.42512  -0.39202
 Alpha  occ. eigenvalues --   -0.37973  -0.27811  -0.24396
 Alpha virt. eigenvalues --    0.11766   0.13844   0.14462   0.16337   0.18401
 Alpha virt. eigenvalues --    0.21833   0.23245   0.25836   0.26873   0.38570
 Alpha virt. eigenvalues --    0.41699   0.52185   0.53511   0.63112   0.64485
 Alpha virt. eigenvalues --    0.70536   0.71401   0.72256   0.75425   0.78048
 Alpha virt. eigenvalues --    0.79327   0.81001   0.81080   0.90750   0.97257
 Alpha virt. eigenvalues --    0.97861   1.03453   1.03873   1.05116   1.11285
 Alpha virt. eigenvalues --    1.11429   1.15769   1.18785   1.22634   1.30953
 Alpha virt. eigenvalues --    1.31626   1.39833   1.60152   1.60787
  Beta  occ. eigenvalues --   -8.59248  -8.59216  -8.54133  -8.54110  -8.51615
  Beta  occ. eigenvalues --   -0.89554  -0.75876  -0.71498  -0.58830  -0.56713
  Beta  occ. eigenvalues --   -0.56234  -0.43551  -0.43157  -0.42512  -0.39202
  Beta  occ. eigenvalues --   -0.37973  -0.27811  -0.24396
  Beta virt. eigenvalues --    0.11766   0.13844   0.14462   0.16337   0.18401
  Beta virt. eigenvalues --    0.21833   0.23245   0.25836   0.26873   0.38570
  Beta virt. eigenvalues --    0.41699   0.52185   0.53511   0.63112   0.64485
  Beta virt. eigenvalues --    0.70536   0.71401   0.72256   0.75425   0.78048
  Beta virt. eigenvalues --    0.79327   0.81001   0.81080   0.90750   0.97257
  Beta virt. eigenvalues --    0.97861   1.03453   1.03873   1.05116   1.11285
  Beta virt. eigenvalues --    1.11429   1.15769   1.18785   1.22634   1.30953
  Beta virt. eigenvalues --    1.31626   1.39833   1.60152   1.60787
          Condensed to atoms (all electrons):
               1          2          3          4          5          6
     1  C    5.310549   0.495486  -0.064382  -0.189003   0.338614   0.173149
     2  C    0.495486   4.784033   0.625642  -0.012615  -0.189003  -0.019357
     3  C   -0.064382   0.625642   4.538592   0.625642  -0.064382   0.005328
     4  C   -0.189003  -0.012615   0.625642   4.784033   0.495486  -0.019357
     5  C    0.338614  -0.189003  -0.064382   0.495486   5.310549   0.173149
     6  H    0.173149  -0.019357   0.005328  -0.019357   0.173149   0.410548
     7  H    0.344966   0.009048   0.001949   0.005981  -0.040932   0.001722
     8  H   -0.037875   0.356382  -0.010901   0.008161   0.004046   0.001911
     9  H    0.011643  -0.045724   0.376885  -0.045724   0.011643  -0.000354
    10  H    0.004046   0.008161  -0.010901   0.356382  -0.037875   0.001911
    11  H   -0.040932   0.005981   0.001949   0.009048   0.344966   0.001722
               7          8          9         10         11
     1  C    0.344966  -0.037875   0.011643   0.004046  -0.040932
     2  C    0.009048   0.356382  -0.045724   0.008161   0.005981
     3  C    0.001949  -0.010901   0.376885  -0.010901   0.001949
     4  C    0.005981   0.008161  -0.045724   0.356382   0.009048
     5  C   -0.040932   0.004046   0.011643  -0.037875   0.344966
     6  H    0.001722   0.001911  -0.000354   0.001911   0.001722
     7  H    0.542879  -0.004789  -0.000151  -0.000086   0.001285
     8  H   -0.004789   0.607704  -0.006925  -0.000305  -0.000086
     9  H   -0.000151  -0.006925   0.663005  -0.006925  -0.000151
    10  H   -0.000086  -0.000305  -0.006925   0.607704  -0.004789
    11  H    0.001285  -0.000086  -0.000151  -0.004789   0.542879
          Atomic-Atomic Spin Densities.
               1          2          3          4          5          6
     1  C    0.000000  -0.000000   0.000000  -0.000000  -0.000000   0.000000
     2  C   -0.000000   0.000000  -0.000000   0.000000  -0.000000   0.000000
     3  C    0.000000  -0.000000  -0.000000  -0.000000   0.000000  -0.000000
     4  C   -0.000000   0.000000  -0.000000   0.000000  -0.000000   0.000000
     5  C   -0.000000  -0.000000   0.000000  -0.000000   0.000000   0.000000
     6  H    0.000000   0.000000  -0.000000   0.000000   0.000000  -0.000000
     7  H    0.000000  -0.000000  -0.000000  -0.000000  -0.000000   0.000000
     8  H   -0.000000   0.000000  -0.000000  -0.000000   0.000000   0.000000
     9  H    0.000000  -0.000000   0.000000  -0.000000   0.000000   0.000000
    10  H    0.000000  -0.000000  -0.000000   0.000000  -0.000000   0.000000
    11  H   -0.000000  -0.000000  -0.000000  -0.000000   0.000000   0.000000
               7          8          9         10         11
     1  C    0.000000  -0.000000   0.000000   0.000000  -0.000000
     2  C   -0.000000   0.000000  -0.000000  -0.000000  -0.000000
     3  C   -0.000000  -0.000000   0.000000  -0.000000  -0.000000
     4  C   -0.000000  -0.000000  -0.000000   0.000000  -0.000000
     5  C   -0.000000   0.000000   0.000000  -0.000000   0.000000
     6  H    0.000000   0.000000   0.000000   0.000000   0.000000
     7  H    0.000000  -0.000000  -0.000000   0.000000  -0.000000
     8  H   -0.000000   0.000000  -0.000000  -0.000000   0.000000
     9  H   -0.000000  -0.000000   0.000000  -0.000000  -0.000000
    10  H    0.000000  -0.000000  -0.000000   0.000000  -0.000000
    11  H   -0.000000   0.000000  -0.000000  -0.000000   0.000000
 Mulliken charges and spin densities:
               1          2
     1  C   -0.346262   0.000000
     2  C   -0.018035   0.000000
     3  C   -0.025421  -0.000000
     4  C   -0.018035   0.000000
     5  C   -0.346262   0.000000
     6  H    0.269628  -0.000000
     7  H    0.138127   0.000000
     8  H    0.082677   0.000000
     9  H    0.042779   0.000000
    10  H    0.082677   0.000000
    11  H    0.138127   0.000000
 Sum of Mulliken charges =  -0.00000  -0.00000
 Mulliken charges and spin densities with hydrogens summed into heavy atoms:
               1          2
     1  C    0.061493   0.000000
     2  C    0.064642   0.000000
     3  C    0.017358  -0.000000
     4  C    0.064642   0.000000
     5  C   -0.208135   0.000000
 Electronic spatial extent (au):  <R**2>=            355.2773
 Charge=              0.0000 electrons
 Dipole moment (field-independent basis, Debye):
    X=             -0.0000    Y=             -0.0000    Z=             -2.2367  Tot=              2.2367
 Quadrupole moment (field-independent basis, Debye-Ang):
   XX=            -41.7916   YY=            -35.7758   ZZ=            -33.3634
   XY=              0.0000   XZ=              0.0000   YZ=              0.0000
 Traceless Quadrupole moment (field-independent basis, Debye-Ang):
   XX=             -4.8147   YY=              1.2011   ZZ=              3.6135
   XY=              0.0000   XZ=              0.0000   YZ=              0.0000
 Octapole moment (field-independent basis, Debye-Ang**2):
  XXX=              0.0000  YYY=              0.0000  ZZZ=            -10.4768  XYY=              0.0000
  XXY=             -0.0000  XXZ=              0.7920  XZZ=              0.0000  YZZ=             -0.0000
  YYZ=             -1.5274  XYZ=             -0.0000
 Hexadecapole moment (field-independent basis, Debye-Ang**3):
 XXXX=            -51.0280 YYYY=           -267.4195 ZZZZ=           -250.1548 XXXY=             -0.0000
 XXXZ=             -0.0000 YYYX=             -0.0000 YYYZ=             -0.0000 ZZZX=             -0.0000
 ZZZY=              0.0000 XXYY=            -59.8021 XXZZ=            -58.1577 YYZZ=            -85.7332
 XXYZ=              0.0000 YYXZ=             -0.0000 ZZXY=             -0.0000
 N-N= 1.560127424860D+02 E-N=-7.468484432893D+02  KE= 1.857409404414D+02
 Symmetry A1   KE= 1.074105045432D+02
 Symmetry A2   KE= 2.024171447079D+00
 Symmetry B1   KE= 3.476985931618D+00
 Symmetry B2   KE= 7.282927851949D+01
 Symmetry A1   SP= 9.557259795401D-15
 Symmetry A2   SP=-3.092164743244D-16
 Symmetry B1   SP= 5.323966207219D-15
 Symmetry B2   SP=-2.063547142178D-14
                          Isotropic Fermi Contact Couplings
        Atom                 a.u.       MegaHertz       Gauss      10(-4) cm-1
     1  C(13)             -0.00000      -0.00000      -0.00000      -0.00000
     2  C(13)             -0.00000      -0.00000      -0.00000      -0.00000
     3  C(13)             -0.00000      -0.00000      -0.00000      -0.00000
     4  C(13)             -0.00000      -0.00000      -0.00000      -0.00000
     5  C(13)             -0.00000      -0.00000      -0.00000      -0.00000
     6  H(1)               0.00000       0.00000       0.00000       0.00000
     7  H(1)               0.00000       0.00000       0.00000       0.00000
     8  H(1)              -0.00000      -0.00000      -0.00000      -0.00000
     9  H(1)               0.00000       0.00000       0.00000       0.00000
    10  H(1)              -0.00000      -0.00000      -0.00000      -0.00000
    11  H(1)               0.00000       0.00000       0.00000       0.00000
 --------------------------------------------------------
       Center         ----  Spin Dipole Couplings  ----
                      3XX-RR        3YY-RR        3ZZ-RR
 --------------------------------------------------------
     1   Atom        0.000000      0.000000      0.000000
     2   Atom        0.000000      0.000000      0.000000
     3   Atom        0.000000      0.000000      0.000000
     4   Atom        0.000000      0.000000      0.000000
     5   Atom        0.000000      0.000000      0.000000
     6   Atom        0.000000      0.000000      0.000000
     7   Atom        0.000000      0.000000      0.000000
     8   Atom        0.000000      0.000000      0.000000
     9   Atom        0.000000      0.000000      0.000000
    10   Atom        0.000000      0.000000      0.000000
    11   Atom        0.000000      0.000000      0.000000
 --------------------------------------------------------
                        XY            XZ            YZ
 --------------------------------------------------------
     1   Atom        0.000000      0.000000      0.000000
     2   Atom        0.000000      0.000000      0.000000
     3   Atom        0.000000      0.000000      0.000000
     4   Atom        0.000000      0.000000      0.000000
     5   Atom        0.000000      0.000000      0.000000
     6   Atom        0.000000      0.000000      0.000000
     7   Atom        0.000000      0.000000      0.000000
     8   Atom        0.000000      0.000000      0.000000
     9   Atom        0.000000      0.000000      0.000000
    10   Atom        0.000000      0.000000      0.000000
    11   Atom        0.000000      0.000000      0.000000
 --------------------------------------------------------


 ---------------------------------------------------------------------------------
              Anisotropic Spin Dipole Couplings in Principal Axis System
 ---------------------------------------------------------------------------------

       Atom             a.u.   MegaHertz   Gauss  10(-4) cm-1        Axes

              Baa     0.0000     0.000     0.000     0.000  1.0000  0.0000  0.0000
     1 C(13)  Bbb     0.0000     0.000     0.000     0.000 -0.0000  1.0000  0.0000
              Bcc     0.0000     0.000     0.000     0.000  0.0000  0.0000  1.0000
 
              Baa     0.0000     0.000     0.000     0.000  1.0000  0.0000  0.0000
     2 C(13)  Bbb     0.0000     0.000     0.000     0.000 -0.0000  1.0000  0.0000
              Bcc     0.0000     0.000     0.000     0.000  0.0000  0.0000  1.0000
 
              Baa     0.0000     0.000     0.000     0.000  1.0000  0.0000  0.0000
     3 C(13)  Bbb     0.0000     0.000     0.000     0.000 -0.0000  1.0000  0.0000
              Bcc     0.0000     0.000     0.000     0.000  0.0000  0.0000  1.0000
 
              Baa     0.0000     0.000     0.000     0.000  1.0000  0.0000  0.0000
     4 C(13)  Bbb     0.0000     0.000     0.000     0.000 -0.0000  1.0000  0.0000
              Bcc     0.0000     0.000     0.000     0.000  0.0000  0.0000  1.0000
 
              Baa     0.0000     0.000     0.000     0.000  1.0000  0.0000  0.0000
     5 C(13)  Bbb     0.0000     0.000     0.000     0.000 -0.0000  1.0000  0.0000
              Bcc     0.0000     0.000     0.000     0.000  0.0000  0.0000  1.0000
 
              Baa     0.0000     0.000     0.000     0.000  1.0000  0.0000  0.0000
     6 H(1)   Bbb     0.0000     0.000     0.000     0.000 -0.0000  1.0000  0.0000
              Bcc     0.0000     0.000     0.000     0.000  0.0000  0.0000  1.0000
 
              Baa     0.0000     0.000     0.000     0.000  1.0000  0.0000  0.0000
     7 H(1)   Bbb     0.0000     0.000     0.000     0.000 -0.0000  1.0000  0.0000
              Bcc     0.0000     0.000     0.000     0.000  0.0000  0.0000  1.0000
 
              Baa     0.0000     0.000     0.000     0.000  1.0000  0.0000  0.0000
     8 H(1)   Bbb     0.0000     0.000     0.000     0.000 -0.0000  1.0000  0.0000
              Bcc     0.0000     0.000     0.000     0.000  0.0000  0.0000  1.0000
 
              Baa     0.0000     0.000     0.000     0.000  1.0000  0.0000  0.0000
     9 H(1)   Bbb     0.0000     0.000     0.000     0.000 -0.0000  1.0000  0.0000
              Bcc     0.0000     0.000     0.000     0.000  0.0000  0.0000  1.0000
 
              Baa     0.0000     0.000     0.000     0.000  1.0000  0.0000  0.0000
    10 H(1)   Bbb     0.0000     0.000     0.000     0.000 -0.0000  1.0000  0.0000
              Bcc     0.0000     0.000     0.000     0.000  0.0000  0.0000  1.0000
 
              Baa     0.0000     0.000     0.000     0.000  1.0000  0.0000  0.0000
    11 H(1)   Bbb     0.0000     0.000     0.000     0.000 -0.0000  1.0000  0.0000
              Bcc     0.0000     0.000     0.000     0.000  0.0000  0.0000  1.0000
 

 ---------------------------------------------------------------------------------

 No NMR shielding tensors so no spin-rotation constants.
 Leave Link  601 at Thu Mar  5 12:52:37 2020, MaxMem=  6710886400 cpu:               2.0 elap:               0.1
 (Enter /opt/ohpc/pub/libs/gaussian/g16-A.03/sandybridge/g16/l9999.exe)

 Test job not archived.
 1\1\GINC-CNODE212\SP\ULC-wHPBE\6-31G\C5H6\SMGO234\05-Mar-2020\0\\#P uL
 C-wHPBE/6-31G iop(3/130=0238200000, 3/131=0238200000, 3/119=0761800000
 , 3/120=0761800000) scf=(conver=6,fermi,ndamp=35,noincfock,novaracc,vs
 hift=500,xqc)\\H6 C5\\0,1\C,0,0.,0.878804,-0.931542\C,0,0.,1.128157,0.
 423457\C,0,0.,0.,1.240879\C,0,0.,-1.128157,0.423457\C,0,0.,-0.878804,-
 0.931542\H,0,0.,0.,-1.732269\H,0,0.,1.6083,-1.734053\H,0,0.,2.156626,0
 .76567\H,0,0.,0.,2.320778\H,0,0.,-2.156626,0.76567\H,0,0.,-1.6083,-1.7
 34053\\Version=EM64L-G16RevA.03\State=1-A1\HF=-176.90571\S2=0.\S2-1=0.
 \S2A=0.\RMSD=6.627e-07\Dipole=0.,0.,-0.8799677\Quadrupole=-3.5795965,0
 .8930114,2.6865851,0.,0.,0.\PG=C02V [C2(H1C1H1),SGV(C4H4)]\\@


 Life may have no meaning.  Or even worse, it may have a
 meaning of which I disapprove.
                                 -- Ashleigh Brilliant
 Job cpu time:       0 days  0 hours  0 minutes 48.1 seconds.
 Elapsed time:       0 days  0 hours  0 minutes  3.3 seconds.
 File lengths (MBytes):  RWF=    272 Int=      0 D2E=      0 Chk=     32 Scr=     32
 Normal termination of Gaussian 16 at Thu Mar  5 12:52:37 2020.
