 Entering Gaussian System, Link 0=g16
 Input=a1b_tune_c2.gjf
 Output=a1b_tune_c2.log
 Initial command:
 /opt/ohpc/pub/libs/gaussian/g16-A.03/sandybridge/g16/l1.exe "/scratch/smgo234/Ocelot/test/a1b/tuning_a1b_acycle1/Gau-79159.inp" -scrdir="/scratch/smgo234/Ocelot/test/a1b/tuning_a1b_acycle1/"
 Entering Link 1 = /opt/ohpc/pub/libs/gaussian/g16-A.03/sandybridge/g16/l1.exe PID=     79160.
  
 Copyright (c) 1988,1990,1992,1993,1995,1998,2003,2009,2016,
            Gaussian, Inc.  All Rights Reserved.
  
 This is part of the Gaussian(R) 16 program.  It is based on
 the Gaussian(R) 09 system (copyright 2009, Gaussian, Inc.),
 the Gaussian(R) 03 system (copyright 2003, Gaussian, Inc.),
 the Gaussian(R) 98 system (copyright 1998, Gaussian, Inc.),
 the Gaussian(R) 94 system (copyright 1995, Gaussian, Inc.),
 the Gaussian 92(TM) system (copyright 1992, Gaussian, Inc.),
 the Gaussian 90(TM) system (copyright 1990, Gaussian, Inc.),
 the Gaussian 88(TM) system (copyright 1988, Gaussian, Inc.),
 the Gaussian 86(TM) system (copyright 1986, Carnegie Mellon
 University), and the Gaussian 82(TM) system (copyright 1983,
 Carnegie Mellon University). Gaussian is a federally registered
 trademark of Gaussian, Inc.
  
 This software contains proprietary and confidential information,
 including trade secrets, belonging to Gaussian, Inc.
  
 This software is provided under written license and may be
 used, copied, transmitted, or stored only in accord with that
 written license.
  
 The following legend is applicable only to US Government
 contracts under FAR:
  
                    RESTRICTED RIGHTS LEGEND
  
 Use, reproduction and disclosure by the US Government is
 subject to restrictions as set forth in subparagraphs (a)
 and (c) of the Commercial Computer Software - Restricted
 Rights clause in FAR 52.227-19.
  
 Gaussian, Inc.
 340 Quinnipiac St., Bldg. 40, Wallingford CT 06492
  
  
 ---------------------------------------------------------------
 Warning -- This program may not be used in any manner that
 competes with the business of Gaussian, Inc. or will provide
 assistance to any competitor of Gaussian, Inc.  The licensee
 of this program is prohibited from giving any competitor of
 Gaussian, Inc. access to this program.  By using this program,
 the user acknowledges that Gaussian, Inc. is engaged in the
 business of creating and licensing software in the field of
 computational chemistry and represents and warrants to the
 licensee that it is not a competitor of Gaussian, Inc. and that
 it will not use this program in any manner prohibited above.
 ---------------------------------------------------------------
  

 Cite this work as:
 Gaussian 16, Revision A.03,
 M. J. Frisch, G. W. Trucks, H. B. Schlegel, G. E. Scuseria, 
 M. A. Robb, J. R. Cheeseman, G. Scalmani, V. Barone, 
 G. A. Petersson, H. Nakatsuji, X. Li, M. Caricato, A. V. Marenich, 
 J. Bloino, B. G. Janesko, R. Gomperts, B. Mennucci, H. P. Hratchian, 
 J. V. Ortiz, A. F. Izmaylov, J. L. Sonnenberg, D. Williams-Young, 
 F. Ding, F. Lipparini, F. Egidi, J. Goings, B. Peng, A. Petrone, 
 T. Henderson, D. Ranasinghe, V. G. Zakrzewski, J. Gao, N. Rega, 
 G. Zheng, W. Liang, M. Hada, M. Ehara, K. Toyota, R. Fukuda, 
 J. Hasegawa, M. Ishida, T. Nakajima, Y. Honda, O. Kitao, H. Nakai, 
 T. Vreven, K. Throssell, J. A. Montgomery, Jr., J. E. Peralta, 
 F. Ogliaro, M. J. Bearpark, J. J. Heyd, E. N. Brothers, K. N. Kudin, 
 V. N. Staroverov, T. A. Keith, R. Kobayashi, J. Normand, 
 K. Raghavachari, A. P. Rendell, J. C. Burant, S. S. Iyengar, 
 J. Tomasi, M. Cossi, J. M. Millam, M. Klene, C. Adamo, R. Cammi, 
 J. W. Ochterski, R. L. Martin, K. Morokuma, O. Farkas, 
 J. B. Foresman, and D. J. Fox, Gaussian, Inc., Wallingford CT, 2016.
 
 ******************************************
 Gaussian 16:  EM64L-G16RevA.03 25-Dec-2016
                 5-Mar-2020 
 ******************************************
 %mem=50GB
 %nproc=16
 Will use up to   16 processors via shared memory.
 ----------------------------------------------------------------------
 #P uLC-wHPBE/6-31G iop(3/130=0379000000, 3/131=0379000000, 3/119=06210
 00000, 3/120=0621000000) scf=(conver=6,fermi,ndamp=35,noincfock,novara
 cc,vshift=500,xqc)
 ----------------------------------------------------------------------
 1/38=1,172=1/1;
 2/12=2,17=6,18=5,40=1/2;
 3/5=1,6=6,11=2,25=1,30=1,74=-71,116=2,119=621000000,120=621000000,130=379000000,131=379000000/1,2,3;
 4//1;
 5/5=100002,6=6,8=3,10=500,13=1,18=-1,22=13,38=1,93=35/2,8;
 6/7=2,8=2,9=2,10=2,28=1/1;
 99/5=1,9=1/99;
 Leave Link    1 at Thu Mar  5 12:51:57 2020, MaxMem=  6710886400 cpu:              17.3 elap:               1.2
 (Enter /opt/ohpc/pub/libs/gaussian/g16-A.03/sandybridge/g16/l101.exe)
 -----
 H6 C5
 -----
 Symbolic Z-matrix:
 Charge =  1 Multiplicity = 2
 C                     0.        0.8788   -0.93154 
 C                     0.        1.12816   0.42346 
 C                     0.        0.        1.24088 
 C                     0.       -1.12816   0.42346 
 C                     0.       -0.8788   -0.93154 
 H                     0.        0.       -1.73227 
 H                     0.        1.6083   -1.73405 
 H                     0.        2.15663   0.76567 
 H                     0.        0.        2.32078 
 H                     0.       -2.15663   0.76567 
 H                     0.       -1.6083   -1.73405 
 
 ITRead=  0  0  0  0  0  0  0  0  0  0  0
 MicOpt= -1 -1 -1 -1 -1 -1 -1 -1 -1 -1 -1
 NAtoms=     11 NQM=       11 NQMF=       0 NMMI=      0 NMMIF=      0
                NMic=       0 NMicF=      0.
                    Isotopes and Nuclear Properties:
 (Nuclear quadrupole moments (NQMom) in fm**2, nuclear magnetic moments (NMagM)
  in nuclear magnetons)

  Atom         1           2           3           4           5           6           7           8           9          10
 IAtWgt=          12          12          12          12          12           1           1           1           1           1
 AtmWgt=  12.0000000  12.0000000  12.0000000  12.0000000  12.0000000   1.0078250   1.0078250   1.0078250   1.0078250   1.0078250
 NucSpn=           0           0           0           0           0           1           1           1           1           1
 AtZEff=  -0.0000000  -0.0000000  -0.0000000  -0.0000000  -0.0000000  -0.0000000  -0.0000000  -0.0000000  -0.0000000  -0.0000000
 NQMom=    0.0000000   0.0000000   0.0000000   0.0000000   0.0000000   0.0000000   0.0000000   0.0000000   0.0000000   0.0000000
 NMagM=    0.0000000   0.0000000   0.0000000   0.0000000   0.0000000   2.7928460   2.7928460   2.7928460   2.7928460   2.7928460
 AtZNuc=   6.0000000   6.0000000   6.0000000   6.0000000   6.0000000   1.0000000   1.0000000   1.0000000   1.0000000   1.0000000

  Atom        11
 IAtWgt=           1
 AtmWgt=   1.0078250
 NucSpn=           1
 AtZEff=  -0.0000000
 NQMom=    0.0000000
 NMagM=    2.7928460
 AtZNuc=   1.0000000
 Leave Link  101 at Thu Mar  5 12:51:58 2020, MaxMem=  6710886400 cpu:               3.0 elap:               0.2
 (Enter /opt/ohpc/pub/libs/gaussian/g16-A.03/sandybridge/g16/l202.exe)
                          Input orientation:                          
 ---------------------------------------------------------------------
 Center     Atomic      Atomic             Coordinates (Angstroms)
 Number     Number       Type             X           Y           Z
 ---------------------------------------------------------------------
      1          6           0        0.000000    0.878804   -0.931542
      2          6           0        0.000000    1.128157    0.423457
      3          6           0        0.000000    0.000000    1.240879
      4          6           0        0.000000   -1.128157    0.423457
      5          6           0        0.000000   -0.878804   -0.931542
      6          1           0        0.000000    0.000000   -1.732269
      7          1           0        0.000000    1.608300   -1.734053
      8          1           0        0.000000    2.156626    0.765670
      9          1           0        0.000000    0.000000    2.320778
     10          1           0        0.000000   -2.156626    0.765670
     11          1           0        0.000000   -1.608300   -1.734053
 ---------------------------------------------------------------------
                    Distance matrix (angstroms):
                    1          2          3          4          5
     1  C    0.000000
     2  C    1.377752   0.000000
     3  C    2.343440   1.393168   0.000000
     4  C    2.421552   2.256314   1.393168   0.000000
     5  C    1.757608   2.421552   2.343440   1.377752   0.000000
     6  H    1.188890   2.433083   2.973148   2.433083   1.188890
     7  H    1.084522   2.210291   3.381841   3.484687   2.613371
     8  H    2.124466   1.083909   2.208361   3.302561   3.477695
     9  H    3.368959   2.207389   1.079899   2.207389   3.368959
    10  H    3.477695   3.302561   2.208361   1.083909   2.124466
    11  H    2.613371   3.484687   3.381841   2.210291   1.084522
                    6          7          8          9         10
     6  H    0.000000
     7  H    1.608301   0.000000
     8  H    3.300111   2.559155   0.000000
     9  H    4.053047   4.362142   2.658834   0.000000
    10  H    3.300111   4.519213   4.313252   2.658834   0.000000
    11  H    1.608301   3.216600   4.519213   4.362142   2.559155
                   11
    11  H    0.000000
 Stoichiometry    C5H6(1+,2)
 Framework group  C2V[C2(HCH),SGV(C4H4)]
 Deg. of freedom    10
 Full point group                 C2V     NOp   4
 Largest Abelian subgroup         C2V     NOp   4
 Largest concise Abelian subgroup C2      NOp   2
                         Standard orientation:                         
 ---------------------------------------------------------------------
 Center     Atomic      Atomic             Coordinates (Angstroms)
 Number     Number       Type             X           Y           Z
 ---------------------------------------------------------------------
      1          6           0        0.000000    0.878804   -0.931542
      2          6           0        0.000000    1.128157    0.423457
      3          6           0        0.000000   -0.000000    1.240879
      4          6           0       -0.000000   -1.128157    0.423457
      5          6           0       -0.000000   -0.878804   -0.931542
      6          1           0       -0.000000    0.000000   -1.732269
      7          1           0        0.000000    1.608300   -1.734053
      8          1           0        0.000000    2.156626    0.765670
      9          1           0        0.000000   -0.000000    2.320778
     10          1           0       -0.000000   -2.156626    0.765670
     11          1           0       -0.000000   -1.608300   -1.734053
 ---------------------------------------------------------------------
 Rotational constants (GHZ):           8.5259551           7.9375455           4.1106177
 Leave Link  202 at Thu Mar  5 12:51:58 2020, MaxMem=  6710886400 cpu:               0.2 elap:               0.0
 (Enter /opt/ohpc/pub/libs/gaussian/g16-A.03/sandybridge/g16/l301.exe)
 Standard basis: 6-31G (6D, 7F)
 Ernie: Thresh=  0.10000D-02 Tol=  0.10000D-05 Strict=F.
 There are    27 symmetry adapted cartesian basis functions of A1  symmetry.
 There are     4 symmetry adapted cartesian basis functions of A2  symmetry.
 There are     6 symmetry adapted cartesian basis functions of B1  symmetry.
 There are    20 symmetry adapted cartesian basis functions of B2  symmetry.
 There are    27 symmetry adapted basis functions of A1  symmetry.
 There are     4 symmetry adapted basis functions of A2  symmetry.
 There are     6 symmetry adapted basis functions of B1  symmetry.
 There are    20 symmetry adapted basis functions of B2  symmetry.
    57 basis functions,   134 primitive gaussians,    57 cartesian basis functions
    18 alpha electrons       17 beta electrons
       nuclear repulsion energy       156.0127424860 Hartrees.
 IExCor=33909 DFT=T Ex+Corr=LC-wHPBE ExCW=0 ScaHFX=  1.000000
 ScaDFX=  1.000000  1.000000  1.000000  1.000000 ScalE2=  1.000000  1.000000
 IRadAn=      5 IRanWt=     -1 IRanGd=            0 ICorTp=0 IEmpDi=  4
 HFx  wShort=  0.000000 wLong=  0.400000 cFull=  0.000000 cShort=  0.000000 cLong=  0.621000
 DFx  wShort=  0.000000 wLong=  0.400000 cFull=  0.000000 cShort=  1.000000 cLong=  0.621000
 NAtoms=   11 NActive=   11 NUniq=    7 SFac= 2.47D+00 NAtFMM=   60 NAOKFM=F Big=F
 Integral buffers will be    131072 words long.
 Raffenetti 2 integral format.
 Two-electron integral symmetry is turned on.
 Leave Link  301 at Thu Mar  5 12:51:58 2020, MaxMem=  6710886400 cpu:               0.9 elap:               0.1
 (Enter /opt/ohpc/pub/libs/gaussian/g16-A.03/sandybridge/g16/l302.exe)
 NPDir=0 NMtPBC=     1 NCelOv=     1 NCel=       1 NClECP=     1 NCelD=      1
         NCelK=      1 NCelE2=     1 NClLst=     1 CellRange=     0.0.
 One-electron integrals computed using PRISM.
 One-electron integral symmetry used in STVInt
 NBasis=    57 RedAO= T EigKep=  1.84D-03  NBF=    27     4     6    20
 NBsUse=    57 1.00D-06 EigRej= -1.00D+00 NBFU=    27     4     6    20
 Precomputing XC quadrature grid using
 IXCGrd= 4 IRadAn=           5 IRanWt=          -1 IRanGd=           0 AccXCQ= 0.00D+00.
 Generated NRdTot=       0 NPtTot=           0 NUsed=           0 NTot=          32
 NSgBfM=    57    57    57    57    57 MxSgAt=    11 MxSgA2=    11.
 Leave Link  302 at Thu Mar  5 12:51:58 2020, MaxMem=  6710886400 cpu:               2.0 elap:               0.1
 (Enter /opt/ohpc/pub/libs/gaussian/g16-A.03/sandybridge/g16/l303.exe)
 DipDrv:  MaxL=1.
 Leave Link  303 at Thu Mar  5 12:51:58 2020, MaxMem=  6710886400 cpu:               0.5 elap:               0.0
 (Enter /opt/ohpc/pub/libs/gaussian/g16-A.03/sandybridge/g16/l401.exe)
 ExpMin= 1.61D-01 ExpMax= 3.05D+03 ExpMxC= 4.57D+02 IAcc=3 IRadAn=         5 AccDes= 0.00D+00
 Harris functional with IExCor=33909 and IRadAn=       5 diagonalized for initial guess.
 HarFok:  IExCor=33909 AccDes= 0.00D+00 IRadAn=         5 IDoV= 1 UseB2=F ITyADJ=14
 ICtDFT=  3500011 ScaDFX=  1.000000  1.000000  1.000000  1.000000
 FoFCou: FMM=F IPFlag=           0 FMFlag=      100000 FMFlg1=           0
         NFxFlg=           0 DoJE=T BraDBF=F KetDBF=T FulRan=T
         wScrn=  0.000000 ICntrl=       500 IOpCl=  0 I1Cent=   200000004 NGrid=           0
         NMat0=    1 NMatS0=      1 NMatT0=    0 NMatD0=    1 NMtDS0=    0 NMtDT0=    0
 Petite list used in FoFCou.
 Harris En= -190.897720884454    
 JPrj=0 DoOrth=F DoCkMO=F.
 Initial guess orbital symmetries:
 Alpha Orbitals:
       Occupied  (A1) (B2) (A1) (B2) (A1) (A1) (A1) (B2) (A1) (B2)
                 (A1) (B2) (A1) (B2) (A1) (B1) (A2) (B1)
       Virtual   (A2) (B2) (B1) (A1) (A1) (B2) (A1) (B2) (A1) (B2)
                 (A1) (B2) (A1) (B2) (B1) (A1) (A2) (B1) (B2) (A1)
                 (A1) (A2) (B1) (B2) (B2) (A1) (B2) (A1) (A1) (B2)
                 (A1) (A1) (A1) (B2) (A1) (B2) (A1) (A1) (B2)
 Beta  Orbitals:
       Occupied  (A1) (B2) (A1) (B2) (A1) (A1) (A1) (B2) (A1) (B2)
                 (A1) (B2) (A1) (B2) (A1) (B1) (A2)
       Virtual   (B1) (A2) (B2) (B1) (A1) (A1) (B2) (A1) (B2) (A1)
                 (B2) (A1) (B2) (A1) (B2) (B1) (A1) (A2) (B1) (B2)
                 (A1) (A1) (A2) (B1) (B2) (B2) (A1) (B2) (A1) (A1)
                 (B2) (A1) (A1) (A1) (B2) (A1) (B2) (A1) (A1) (B2)
 The electronic state of the initial guess is 2-B1.
 Initial guess <Sx>= 0.0000 <Sy>= 0.0000 <Sz>= 0.5000 <S**2>= 0.7500 S= 0.5000
 Leave Link  401 at Thu Mar  5 12:51:58 2020, MaxMem=  6710886400 cpu:               3.0 elap:               0.2
 (Enter /opt/ohpc/pub/libs/gaussian/g16-A.03/sandybridge/g16/l502.exe)
 Keep R1 and R2 ints in memory in symmetry-blocked form, NReq=16815681.
 FoFCou: FMM=F IPFlag=           0 FMFlag=           0 FMFlg1=           0
         NFxFlg=           0 DoJE=F BraDBF=F KetDBF=F FulRan=T
         wScrn=  0.000000 ICntrl=       600 IOpCl=  0 I1Cent=           0 NGrid=           0
         NMat0=    1 NMatS0=   1653 NMatT0=    0 NMatD0=    1 NMtDS0=    0 NMtDT0=    0
 Petite list used in FoFCou.
 UHF open shell SCF:
 Using DIIS extrapolation, IDIIS=    10.
 NGot=  6710886400 LenX=  6710059561 LenY=  6710055871
 Requested convergence on RMS density matrix=1.00D-06 within  32 cycles.
 Requested convergence on MAX density matrix=1.00D-04.
 Requested convergence on             energy=1.00D-04.
 Virtual orbitals will be shifted by   0.500 hartree.
 No special actions if energy rises.
 Dynamic level shift is on during FON iterations.

 Cycle   1  Pass 1  IDiag  1:
 E= -195.039087022566    
 DIIS: error= 4.77D-02 at cycle   1 NSaved=   1.
 NSaved= 1 IEnMin= 1 EnMin= -195.039087022566     IErMin= 1 ErrMin= 4.77D-02
 ErrMax= 4.77D-02  0.00D+00 EMaxC= 1.00D+00 BMatC= 1.94D-01 BMatP= 1.94D-01
 IDIUse=1 WtCom= 1.00D+00 WtEn= 0.00D+00
 Coeff-Com:  0.100D+01
 Coeff:      0.100D+01
 Gap=     0.288 Goal=   None    Shift=    0.500
 T= 1775. Gap= 0.762 NK=0 IS=   19 IE=   57 IFin=   18
          NO(<0.9)=   0  NV(>0.1)=   0     18.00e < EF      0.00e >EF  Err=0.0D+00
 Gap=     0.166 Goal=   None    Shift=    0.500
 T= 1775. Gap= 0.670 NK=0 IS=   18 IE=   57 IFin=   17
          NO(<0.9)=   0  NV(>0.1)=   0     17.00e < EF      0.00e >EF  Err=0.0D+00
 GapD=    0.166 DampG=1.000 DampE=0.500 DampFc=0.5000 IDamp=-1.
 Damping current iteration by 5.00D-01
 RMSDP=7.00D-03 MaxDP=5.18D-02              OVMax= 1.09D-01

 Cycle   2  Pass 1  IDiag  1:
 E= -195.077491795021     Delta-E=       -0.038404772455 Rises=F Damp=T
 DIIS: error= 2.09D-02 at cycle   2 NSaved=   2.
 NSaved= 2 IEnMin= 2 EnMin= -195.077491795021     IErMin= 2 ErrMin= 2.09D-02
 ErrMax= 2.09D-02  0.00D+00 EMaxC= 1.00D+00 BMatC= 2.93D-02 BMatP= 1.94D-01
 IDIUse=1 WtCom= 1.00D+00 WtEn= 0.00D+00
 Coeff-Com: -0.469D+00 0.147D+01
 Coeff:     -0.469D+00 0.147D+01
 Gap=     0.363 Goal=   None    Shift=    0.500
 T= 1650. Gap= 0.848 NK=4 IS=   19 IE=   23 IFin=   18
          NO(<0.9)=   0  NV(>0.1)=   0     18.00e < EF      0.00e >EF  Err=0.0D+00
 Gap=     0.195 Goal=   None    Shift=    0.500
 T= 1650. Gap= 0.693 NK=4 IS=   18 IE=   23 IFin=   17
          NO(<0.9)=   0  NV(>0.1)=   0     17.00e < EF      0.00e >EF  Err=0.0D+00
 GapD=    0.195 DampG=1.000 DampE=0.500 DampFc=0.5000 IDamp=-1.
 Damping current iteration by 5.00D-01
 RMSDP=3.97D-03 MaxDP=3.05D-02 DE=-3.84D-02 OVMax= 1.58D-02

 Cycle   3  Pass 1  IDiag  1:
 E= -195.089998709430     Delta-E=       -0.012506914409 Rises=F Damp=T
 DIIS: error= 1.09D-02 at cycle   3 NSaved=   3.
 NSaved= 3 IEnMin= 3 EnMin= -195.089998709430     IErMin= 3 ErrMin= 1.09D-02
 ErrMax= 1.09D-02  0.00D+00 EMaxC= 1.00D+00 BMatC= 5.99D-03 BMatP= 2.93D-02
 IDIUse=1 WtCom= 1.00D+00 WtEn= 0.00D+00
 Coeff-Com:  0.311D+00-0.167D+01 0.236D+01
 Coeff:      0.311D+00-0.167D+01 0.236D+01
 Gap=     0.351 Goal=   None    Shift=    0.500
 T= 1422. Gap= 0.851 NK=0 IS=   19 IE=   57 IFin=   18
          NO(<0.9)=   0  NV(>0.1)=   0     18.00e < EF      0.00e >EF  Err=0.0D+00
 Gap=     0.198 Goal=   None    Shift=    0.500
 T= 1422. Gap= 0.698 NK=0 IS=   18 IE=   57 IFin=   17
          NO(<0.9)=   0  NV(>0.1)=   0     17.00e < EF      0.00e >EF  Err=0.0D+00
 GapD=    0.198 DampG=1.000 DampE=0.500 DampFc=0.5000 IDamp=-1.
 Damping current iteration by 5.00D-01
 RMSDP=2.03D-03 MaxDP=1.69D-02 DE=-1.25D-02 OVMax= 1.35D-02

 Cycle   4  Pass 1  IDiag  1:
 E= -195.095691129761     Delta-E=       -0.005692420332 Rises=F Damp=T
 DIIS: error= 6.43D-03 at cycle   4 NSaved=   4.
 NSaved= 4 IEnMin= 4 EnMin= -195.095691129761     IErMin= 4 ErrMin= 6.43D-03
 ErrMax= 6.43D-03  0.00D+00 EMaxC= 1.00D+00 BMatC= 2.05D-03 BMatP= 5.99D-03
 IDIUse=1 WtCom= 1.00D+00 WtEn= 0.00D+00
 Coeff-Com:  0.495D-01 0.487D+00-0.297D+01 0.343D+01
 Coeff:      0.495D-01 0.487D+00-0.297D+01 0.343D+01
 Gap=     0.354 Goal=   None    Shift=    0.500
 T=  982. Gap= 0.854 NK=0 IS=   19 IE=   57 IFin=   18
          NO(<0.9)=   0  NV(>0.1)=   0     18.00e < EF      0.00e >EF  Err=0.0D+00
 Gap=     0.202 Goal=   None    Shift=    0.500
 T=  982. Gap= 0.702 NK=0 IS=   18 IE=   57 IFin=   17
          NO(<0.9)=   0  NV(>0.1)=   0     17.00e < EF      0.00e >EF  Err=0.0D+00
 GapD=    0.202 DampG=1.000 DampE=1.000 DampFc=1.0000 IDamp=-1.
 RMSDP=1.23D-03 MaxDP=1.34D-02 DE=-5.69D-03 OVMax= 1.19D-02

 Cycle   5  Pass 1  IDiag  1:
 E= -195.102060540825     Delta-E=       -0.006369411064 Rises=F Damp=F
 DIIS: error= 2.87D-03 at cycle   5 NSaved=   5.
 NSaved= 5 IEnMin= 5 EnMin= -195.102060540825     IErMin= 5 ErrMin= 2.87D-03
 ErrMax= 2.87D-03  0.00D+00 EMaxC= 1.00D+00 BMatC= 3.35D-04 BMatP= 2.05D-03
 IDIUse=1 WtCom= 1.00D+00 WtEn= 0.00D+00
 Coeff-Com: -0.151D+00 0.801D+00-0.782D+00-0.676D+00 0.181D+01
 Coeff:     -0.151D+00 0.801D+00-0.782D+00-0.676D+00 0.181D+01
 Gap=     0.356 Goal=   None    Shift=    0.500
 T=  598. Gap= 0.856 NK=0 IS=   19 IE=   57 IFin=   18
          NO(<0.9)=   0  NV(>0.1)=   0     18.00e < EF      0.00e >EF  Err=0.0D+00
 Gap=     0.205 Goal=   None    Shift=    0.500
 T=  598. Gap= 0.705 NK=0 IS=   18 IE=   57 IFin=   17
          NO(<0.9)=   0  NV(>0.1)=   0     17.00e < EF      0.00e >EF  Err=0.0D+00
 GapD=    0.205 DampG=1.000 DampE=1.000 DampFc=1.0000 IDamp=-1.
 RMSDP=3.59D-04 MaxDP=5.70D-03 DE=-6.37D-03 OVMax= 1.10D-02

 Cycle   6  Pass 1  IDiag  1:
 E= -195.102497542456     Delta-E=       -0.000437001631 Rises=F Damp=F
 DIIS: error= 2.41D-03 at cycle   6 NSaved=   6.
 NSaved= 6 IEnMin= 6 EnMin= -195.102497542456     IErMin= 6 ErrMin= 2.41D-03
 ErrMax= 2.41D-03  0.00D+00 EMaxC= 1.00D+00 BMatC= 1.47D-04 BMatP= 3.35D-04
 IDIUse=1 WtCom= 1.00D+00 WtEn= 0.00D+00
 Coeff-Com: -0.193D-01-0.140D+00 0.635D+00-0.573D+00-0.148D+01 0.257D+01
 Coeff:     -0.193D-01-0.140D+00 0.635D+00-0.573D+00-0.148D+01 0.257D+01
 Gap=     0.358 Goal=   None    Shift=    0.500
 T=  273. Gap= 0.858 NK=0 IS=   19 IE=   57 IFin=   18
          NO(<0.9)=   0  NV(>0.1)=   0     18.00e < EF      0.00e >EF  Err=0.0D+00
 Gap=     0.207 Goal=   None    Shift=    0.500
 T=  273. Gap= 0.707 NK=0 IS=   18 IE=   57 IFin=   17
          NO(<0.9)=   0  NV(>0.1)=   0     17.00e < EF      0.00e >EF  Err=0.0D+00
 GapD=    0.207 DampG=1.000 DampE=1.000 DampFc=1.0000 IDamp=-1.
 RMSDP=2.79D-04 MaxDP=4.65D-03 DE=-4.37D-04 OVMax= 1.01D-02

 Cycle   7  Pass 1  IDiag  1:
 E= -195.102745695328     Delta-E=       -0.000248152872 Rises=F Damp=F
 DIIS: error= 1.80D-03 at cycle   7 NSaved=   7.
 NSaved= 7 IEnMin= 7 EnMin= -195.102745695328     IErMin= 7 ErrMin= 1.80D-03
 ErrMax= 1.80D-03  0.00D+00 EMaxC= 1.00D+00 BMatC= 6.67D-05 BMatP= 1.47D-04
 IDIUse=1 WtCom= 1.00D+00 WtEn= 0.00D+00
 Coeff-Com:  0.165D-01-0.124D+00 0.115D+00 0.159D+00-0.661D+00-0.414D+00
 Coeff-Com:  0.191D+01
 Coeff:      0.165D-01-0.124D+00 0.115D+00 0.159D+00-0.661D+00-0.414D+00
 Coeff:      0.191D+01
 Gap=     0.358 Goal=   None    Shift=    0.500
 Gap=     0.208 Goal=   None    Shift=    0.500
 GapD=    0.208 DampG=1.000 DampE=1.000 DampFc=1.0000 IDamp=-1.
 RMSDP=1.87D-04 MaxDP=2.65D-03 DE=-2.48D-04 OVMax= 7.51D-03

 Cycle   8  Pass 1  IDiag  1:
 E= -195.102858609825     Delta-E=       -0.000112914497 Rises=F Damp=F
 DIIS: error= 1.33D-03 at cycle   8 NSaved=   8.
 NSaved= 8 IEnMin= 8 EnMin= -195.102858609825     IErMin= 8 ErrMin= 1.33D-03
 ErrMax= 1.33D-03  0.00D+00 EMaxC= 1.00D+00 BMatC= 3.28D-05 BMatP= 6.67D-05
 IDIUse=1 WtCom= 1.00D+00 WtEn= 0.00D+00
 Coeff-Com:  0.755D-02 0.142D+00-0.568D+00 0.504D+00 0.105D+01-0.239D+01
 Coeff-Com: -0.256D+00 0.250D+01
 Coeff:      0.755D-02 0.142D+00-0.568D+00 0.504D+00 0.105D+01-0.239D+01
 Coeff:     -0.256D+00 0.250D+01
 Gap=     0.359 Goal=   None    Shift=    0.500
 Gap=     0.208 Goal=   None    Shift=    0.500
 GapD=    0.208 DampG=1.000 DampE=1.000 DampFc=1.0000 IDamp=-1.
 RMSDP=1.53D-04 MaxDP=2.18D-03 DE=-1.13D-04 OVMax= 6.58D-03

 Cycle   9  Pass 1  IDiag  1:
 E= -195.102919397992     Delta-E=       -0.000060788168 Rises=F Damp=F
 DIIS: error= 9.22D-04 at cycle   9 NSaved=   9.
 NSaved= 9 IEnMin= 9 EnMin= -195.102919397992     IErMin= 9 ErrMin= 9.22D-04
 ErrMax= 9.22D-04  0.00D+00 EMaxC= 1.00D+00 BMatC= 1.46D-05 BMatP= 3.28D-05
 IDIUse=1 WtCom= 1.00D+00 WtEn= 0.00D+00
 Coeff-Com: -0.158D-01-0.173D-01 0.293D+00-0.407D+00-0.169D+00 0.141D+01
 Coeff-Com: -0.748D+00-0.347D+01 0.413D+01
 Coeff:     -0.158D-01-0.173D-01 0.293D+00-0.407D+00-0.169D+00 0.141D+01
 Coeff:     -0.748D+00-0.347D+01 0.413D+01
 Gap=     0.359 Goal=   None    Shift=    0.500
 Gap=     0.208 Goal=   None    Shift=    0.500
 RMSDP=1.15D-04 MaxDP=1.62D-03 DE=-6.08D-05 OVMax= 5.38D-03

 Cycle  10  Pass 1  IDiag  1:
 E= -195.102948351592     Delta-E=       -0.000028953600 Rises=F Damp=F
 DIIS: error= 5.75D-04 at cycle  10 NSaved=  10.
 NSaved=10 IEnMin=10 EnMin= -195.102948351592     IErMin=10 ErrMin= 5.75D-04
 ErrMax= 5.75D-04  0.00D+00 EMaxC= 1.00D+00 BMatC= 5.75D-06 BMatP= 1.46D-05
 IDIUse=1 WtCom= 1.00D+00 WtEn= 0.00D+00
 Coeff-Com:  0.188D-02-0.423D-02-0.357D-02 0.103D-01-0.831D-02-0.139D-01
 Coeff-Com:  0.127D+00 0.446D-01-0.176D+01 0.261D+01
 Coeff:      0.188D-02-0.423D-02-0.357D-02 0.103D-01-0.831D-02-0.139D-01
 Coeff:      0.127D+00 0.446D-01-0.176D+01 0.261D+01
 Gap=     0.359 Goal=   None    Shift=    0.500
 Gap=     0.208 Goal=   None    Shift=    0.500
 RMSDP=6.82D-05 MaxDP=9.76D-04 DE=-2.90D-05 OVMax= 3.35D-03

 Cycle  11  Pass 1  IDiag  1:
 E= -195.102959030954     Delta-E=       -0.000010679361 Rises=F Damp=F
 DIIS: error= 3.61D-04 at cycle  11 NSaved=  11.
 NSaved=11 IEnMin=11 EnMin= -195.102959030954     IErMin=11 ErrMin= 3.61D-04
 ErrMax= 3.61D-04  0.00D+00 EMaxC= 1.00D+00 BMatC= 2.36D-06 BMatP= 5.75D-06
 IDIUse=1 WtCom= 1.00D+00 WtEn= 0.00D+00
 Coeff-Com: -0.549D-03 0.129D-01-0.345D-01 0.226D-01 0.936D-01-0.138D+00
 Coeff-Com: -0.996D-01 0.183D-01 0.163D+01-0.496D+01 0.446D+01
 Coeff:     -0.549D-03 0.129D-01-0.345D-01 0.226D-01 0.936D-01-0.138D+00
 Coeff:     -0.996D-01 0.183D-01 0.163D+01-0.496D+01 0.446D+01
 Gap=     0.359 Goal=   None    Shift=    0.500
 Gap=     0.208 Goal=   None    Shift=    0.500
 RMSDP=4.42D-05 MaxDP=6.06D-04 DE=-1.07D-05 OVMax= 2.22D-03

 Cycle  12  Pass 1  IDiag  1:
 E= -195.102963323548     Delta-E=       -0.000004292594 Rises=F Damp=F
 DIIS: error= 2.19D-04 at cycle  12 NSaved=  12.
 NSaved=12 IEnMin=12 EnMin= -195.102963323548     IErMin=12 ErrMin= 2.19D-04
 ErrMax= 2.19D-04  0.00D+00 EMaxC= 1.00D+00 BMatC= 8.77D-07 BMatP= 2.36D-06
 IDIUse=1 WtCom= 1.00D+00 WtEn= 0.00D+00
 Coeff-Com: -0.239D-02-0.304D-02 0.467D-01-0.646D-01-0.198D-01 0.201D+00
 Coeff-Com: -0.531D-01-0.618D+00 0.731D+00 0.234D+00-0.229D+01 0.284D+01
 Coeff:     -0.239D-02-0.304D-02 0.467D-01-0.646D-01-0.198D-01 0.201D+00
 Coeff:     -0.531D-01-0.618D+00 0.731D+00 0.234D+00-0.229D+01 0.284D+01
 Gap=     0.359 Goal=   None    Shift=    0.500
 Gap=     0.208 Goal=   None    Shift=    0.500
 RMSDP=2.67D-05 MaxDP=3.58D-04 DE=-4.29D-06 OVMax= 1.36D-03

 Cycle  13  Pass 1  IDiag  1:
 E= -195.102964888886     Delta-E=       -0.000001565339 Rises=F Damp=F
 DIIS: error= 1.32D-04 at cycle  13 NSaved=  13.
 NSaved=13 IEnMin=13 EnMin= -195.102964888886     IErMin=13 ErrMin= 1.32D-04
 ErrMax= 1.32D-04  0.00D+00 EMaxC= 1.00D+00 BMatC= 3.15D-07 BMatP= 8.77D-07
 IDIUse=1 WtCom= 1.00D+00 WtEn= 0.00D+00
 Coeff-Com:  0.136D-02 0.485D-03-0.188D-01 0.265D-01 0.156D-01-0.784D-01
 Coeff-Com:  0.400D-02 0.250D+00-0.255D+00-0.368D+00 0.176D+01-0.421D+01
 Coeff-Com:  0.388D+01
 Coeff:      0.136D-02 0.485D-03-0.188D-01 0.265D-01 0.156D-01-0.784D-01
 Coeff:      0.400D-02 0.250D+00-0.255D+00-0.368D+00 0.176D+01-0.421D+01
 Coeff:      0.388D+01
 Gap=     0.359 Goal=   None    Shift=    0.500
 Gap=     0.208 Goal=   None    Shift=    0.500
 RMSDP=1.63D-05 MaxDP=2.22D-04 DE=-1.57D-06 OVMax= 8.41D-04

 Cycle  14  Pass 1  IDiag  1:
 E= -195.102965456537     Delta-E=       -0.000000567650 Rises=F Damp=F
 DIIS: error= 7.83D-05 at cycle  14 NSaved=  14.
 NSaved=14 IEnMin=14 EnMin= -195.102965456537     IErMin=14 ErrMin= 7.83D-05
 ErrMax= 7.83D-05  0.00D+00 EMaxC= 1.00D+00 BMatC= 1.13D-07 BMatP= 3.15D-07
 IDIUse=1 WtCom= 1.00D+00 WtEn= 0.00D+00
 Coeff-Com: -0.265D-03 0.137D-02-0.335D-03-0.268D-02 0.775D-02-0.492D-02
 Coeff-Com:  0.832D-02-0.459D-01 0.198D+00-0.467D+00 0.189D+00 0.104D+01
 Coeff-Com: -0.317D+01 0.324D+01
 Coeff:     -0.265D-03 0.137D-02-0.335D-03-0.268D-02 0.775D-02-0.492D-02
 Coeff:      0.832D-02-0.459D-01 0.198D+00-0.467D+00 0.189D+00 0.104D+01
 Coeff:     -0.317D+01 0.324D+01
 Gap=     0.359 Goal=   None    Shift=    0.500
 Gap=     0.208 Goal=   None    Shift=    0.500
 RMSDP=9.76D-06 MaxDP=1.34D-04 DE=-5.68D-07 OVMax= 5.10D-04

 Cycle  15  Pass 1  IDiag  1:
 E= -195.102965658187     Delta-E=       -0.000000201651 Rises=F Damp=F
 DIIS: error= 4.62D-05 at cycle  15 NSaved=  15.
 NSaved=15 IEnMin=15 EnMin= -195.102965658187     IErMin=15 ErrMin= 4.62D-05
 ErrMax= 4.62D-05  0.00D+00 EMaxC= 1.00D+00 BMatC= 3.96D-08 BMatP= 1.13D-07
 IDIUse=1 WtCom= 1.00D+00 WtEn= 0.00D+00
 Coeff-Com:  0.655D-04-0.612D-03 0.727D-03 0.431D-03-0.437D-02 0.748D-02
 Coeff-Com:  0.362D-02-0.623D-02-0.688D-01 0.256D+00-0.358D+00-0.263D-01
 Coeff-Com:  0.128D+01-0.365D+01 0.357D+01
 Coeff:      0.655D-04-0.612D-03 0.727D-03 0.431D-03-0.437D-02 0.748D-02
 Coeff:      0.362D-02-0.623D-02-0.688D-01 0.256D+00-0.358D+00-0.263D-01
 Coeff:      0.128D+01-0.365D+01 0.357D+01
 Gap=     0.359 Goal=   None    Shift=    0.500
 Gap=     0.208 Goal=   None    Shift=    0.500
 RMSDP=5.79D-06 MaxDP=7.95D-05 DE=-2.02D-07 OVMax= 3.06D-04

 Cycle  16  Pass 1  IDiag  1:
 E= -195.102965728253     Delta-E=       -0.000000070066 Rises=F Damp=F
 DIIS: error= 2.68D-05 at cycle  16 NSaved=  16.
 NSaved=16 IEnMin=16 EnMin= -195.102965728253     IErMin=16 ErrMin= 2.68D-05
 ErrMax= 2.68D-05  0.00D+00 EMaxC= 1.00D+00 BMatC= 1.39D-08 BMatP= 3.96D-08
 IDIUse=1 WtCom= 1.00D+00 WtEn= 0.00D+00
 Coeff-Com:  0.111D-03 0.101D-03-0.145D-02 0.175D-02 0.256D-02-0.103D-01
 Coeff-Com:  0.523D-02 0.238D-01-0.185D-01-0.560D-01 0.167D+00-0.305D+00
 Coeff-Com:  0.143D+00 0.744D+00-0.287D+01 0.317D+01
 Coeff:      0.111D-03 0.101D-03-0.145D-02 0.175D-02 0.256D-02-0.103D-01
 Coeff:      0.523D-02 0.238D-01-0.185D-01-0.560D-01 0.167D+00-0.305D+00
 Coeff:      0.143D+00 0.744D+00-0.287D+01 0.317D+01
 Gap=     0.359 Goal=   None    Shift=    0.500
 Gap=     0.208 Goal=   None    Shift=    0.500
 RMSDP=3.39D-06 MaxDP=4.61D-05 DE=-7.01D-08 OVMax= 1.80D-04

 Cycle  17  Pass 1  IDiag  1:
 E= -195.102965752208     Delta-E=       -0.000000023955 Rises=F Damp=F
 DIIS: error= 1.55D-05 at cycle  17 NSaved=  17.
 NSaved=17 IEnMin=17 EnMin= -195.102965752208     IErMin=17 ErrMin= 1.55D-05
 ErrMax= 1.55D-05  0.00D+00 EMaxC= 1.00D+00 BMatC= 4.87D-09 BMatP= 1.39D-08
 IDIUse=1 WtCom= 1.00D+00 WtEn= 0.00D+00
 Coeff-Com: -0.400D-04 0.656D-04 0.267D-03-0.478D-03-0.225D-03 0.158D-02
 Coeff-Com:  0.150D-02-0.893D-02 0.149D-01-0.108D-01-0.386D-01 0.147D+00
 Coeff-Com: -0.214D+00-0.113D+00 0.143D+01-0.392D+01 0.372D+01
 Coeff:     -0.400D-04 0.656D-04 0.267D-03-0.478D-03-0.225D-03 0.158D-02
 Coeff:      0.150D-02-0.893D-02 0.149D-01-0.108D-01-0.386D-01 0.147D+00
 Coeff:     -0.214D+00-0.113D+00 0.143D+01-0.392D+01 0.372D+01
 Gap=     0.359 Goal=   None    Shift=    0.500
 Gap=     0.208 Goal=   None    Shift=    0.500
 RMSDP=1.96D-06 MaxDP=2.65D-05 DE=-2.40D-08 OVMax= 1.05D-04

 Cycle  18  Pass 1  IDiag  1:
 E= -195.102965760297     Delta-E=       -0.000000008089 Rises=F Damp=F
 DIIS: error= 8.93D-06 at cycle  18 NSaved=  18.
 NSaved=18 IEnMin=18 EnMin= -195.102965760297     IErMin=18 ErrMin= 8.93D-06
 ErrMax= 8.93D-06  0.00D+00 EMaxC= 1.00D+00 BMatC= 1.69D-09 BMatP= 4.87D-09
 IDIUse=1 WtCom= 1.00D+00 WtEn= 0.00D+00
 Coeff-Com:  0.458D-04-0.120D-03-0.243D-03 0.634D-03-0.485D-03-0.140D-02
 Coeff-Com:  0.223D-02 0.509D-02-0.193D-01 0.375D-01-0.273D-01-0.515D-01
 Coeff-Com:  0.219D+00-0.396D+00 0.137D+00 0.131D+01-0.411D+01 0.390D+01
 Coeff:      0.458D-04-0.120D-03-0.243D-03 0.634D-03-0.485D-03-0.140D-02
 Coeff:      0.223D-02 0.509D-02-0.193D-01 0.375D-01-0.273D-01-0.515D-01
 Coeff:      0.219D+00-0.396D+00 0.137D+00 0.131D+01-0.411D+01 0.390D+01
 Gap=     0.359 Goal=   None    Shift=    0.500
 Gap=     0.208 Goal=   None    Shift=    0.500
 RMSDP=1.13D-06 MaxDP=1.51D-05 DE=-8.09D-09 OVMax= 6.05D-05

 Cycle  19  Pass 1  IDiag  1:
 E= -195.102965763019     Delta-E=       -0.000000002722 Rises=F Damp=F
 DIIS: error= 5.13D-06 at cycle  19 NSaved=  19.
 NSaved=19 IEnMin=19 EnMin= -195.102965763019     IErMin=19 ErrMin= 5.13D-06
 ErrMax= 5.13D-06  0.00D+00 EMaxC= 1.00D+00 BMatC= 5.86D-10 BMatP= 1.69D-09
 IDIUse=1 WtCom= 1.00D+00 WtEn= 0.00D+00
 Coeff-Com: -0.395D-05 0.637D-04-0.804D-04-0.502D-04 0.673D-03-0.160D-02
 Coeff-Com:  0.103D-02 0.110D-02 0.335D-02-0.173D-01 0.269D-01-0.160D-01
 Coeff-Com: -0.466D-01 0.185D+00-0.266D+00-0.201D+00 0.176D+01-0.428D+01
 Coeff-Com:  0.385D+01
 Coeff:     -0.395D-05 0.637D-04-0.804D-04-0.502D-04 0.673D-03-0.160D-02
 Coeff:      0.103D-02 0.110D-02 0.335D-02-0.173D-01 0.269D-01-0.160D-01
 Coeff:     -0.466D-01 0.185D+00-0.266D+00-0.201D+00 0.176D+01-0.428D+01
 Coeff:      0.385D+01
 Gap=     0.359 Goal=   None    Shift=    0.500
 Gap=     0.208 Goal=   None    Shift=    0.500
 RMSDP=6.41D-07 MaxDP=8.70D-06 DE=-2.72D-09 OVMax= 3.46D-05

 SCF Done:  E(ULC-wHPBE) =  -195.102965763     A.U. after   19 cycles
            NFock= 19  Conv=0.64D-06     -V/T= 2.0121
 <Sx>= 0.0000 <Sy>= 0.0000 <Sz>= 0.5000 <S**2>= 0.7962 S= 0.5229
 <L.S>= 0.000000000000E+00
 KE= 1.927619655242D+02 PE=-7.522250309135D+02 EE= 2.083473571404D+02
 Annihilation of the first spin contaminant:
 S**2 before annihilation     0.7962,   after     0.7512
 Leave Link  502 at Thu Mar  5 12:52:00 2020, MaxMem=  6710886400 cpu:              32.3 elap:               2.1
 (Enter /opt/ohpc/pub/libs/gaussian/g16-A.03/sandybridge/g16/l508.exe)
 QCSCF skips out because SCF is already converged.
 Leave Link  508 at Thu Mar  5 12:52:00 2020, MaxMem=  6710886400 cpu:               0.1 elap:               0.0
 (Enter /opt/ohpc/pub/libs/gaussian/g16-A.03/sandybridge/g16/l601.exe)
 Copying SCF densities to generalized density rwf, IOpCl= 1 IROHF=0.

 **********************************************************************

            Population analysis using the SCF density.

 **********************************************************************

 Orbital symmetries:
 Alpha Orbitals:
       Occupied  (B2) (A1) (A1) (B2) (A1) (A1) (A1) (B2) (A1) (B2)
                 (A1) (B2) (A1) (A1) (B1) (B2) (A2) (B1)
       Virtual   (A2) (B2) (B1) (A1) (A1) (B2) (A1) (B2) (A1) (A1)
                 (B2) (A1) (B2) (B1) (B2) (B1) (A2) (A1) (A1) (B2)
                 (A1) (A2) (B1) (B2) (B2) (A1) (A1) (A1) (B2) (A1)
                 (B2) (A1) (A1) (B2) (A1) (B2) (A1) (A1) (B2)
 Beta  Orbitals:
       Occupied  (B2) (A1) (A1) (B2) (A1) (A1) (A1) (B2) (A1) (B2)
                 (A1) (B2) (A1) (A1) (B2) (B1) (A2)
       Virtual   (B1) (B2) (A2) (A1) (B1) (A1) (B2) (A1) (B2) (A1)
                 (A1) (B2) (A1) (B2) (B2) (B1) (A2) (A1) (B1) (A1)
                 (B2) (A1) (A2) (B1) (B2) (B2) (A1) (A1) (B2) (A1)
                 (B2) (A1) (A1) (A1) (B2) (A1) (B2) (A1) (A1) (B2)
 The electronic state is 2-B1.
 Alpha  occ. eigenvalues --  -10.37539 -10.37536 -10.32640 -10.31697 -10.31696
 Alpha  occ. eigenvalues --   -1.24433  -1.11650  -1.06733  -0.93232  -0.90919
 Alpha  occ. eigenvalues --   -0.86381  -0.76664  -0.74532  -0.73317  -0.72243
 Alpha  occ. eigenvalues --   -0.70998  -0.57765  -0.56698
 Alpha virt. eigenvalues --   -0.20802  -0.20433  -0.14161  -0.13605  -0.07445
 Alpha virt. eigenvalues --   -0.02649  -0.00756   0.01642   0.01689   0.12455
 Alpha virt. eigenvalues --    0.12830   0.23018   0.23518   0.31540   0.32451
 Alpha virt. eigenvalues --    0.39152   0.39742   0.40605   0.42603   0.43387
 Alpha virt. eigenvalues --    0.43754   0.46942   0.48430   0.56486   0.62996
 Alpha virt. eigenvalues --    0.65293   0.66486   0.68975   0.69006   0.75228
 Alpha virt. eigenvalues --    0.75268   0.79600   0.83889   0.90439   0.98521
 Alpha virt. eigenvalues --    0.99555   1.05418   1.26810   1.28346
  Beta  occ. eigenvalues --  -10.36975 -10.36970 -10.31964 -10.31963 -10.31719
  Beta  occ. eigenvalues --   -1.23211  -1.09866  -1.06451  -0.92189  -0.90204
  Beta  occ. eigenvalues --   -0.86113  -0.76371  -0.74261  -0.72760  -0.70832
  Beta  occ. eigenvalues --   -0.68135  -0.56434
  Beta virt. eigenvalues --   -0.35587  -0.19047  -0.18003  -0.13373  -0.10844
  Beta virt. eigenvalues --   -0.07061  -0.02397  -0.00539   0.01618   0.02306
  Beta virt. eigenvalues --    0.12935   0.13178   0.23443   0.23886   0.32840
  Beta virt. eigenvalues --    0.33788   0.40797   0.41136   0.41941   0.43009
  Beta virt. eigenvalues --    0.43818   0.44847   0.47565   0.50062   0.57010
  Beta virt. eigenvalues --    0.63422   0.66155   0.66956   0.68918   0.69428
  Beta virt. eigenvalues --    0.75588   0.75854   0.80408   0.84623   0.90499
  Beta virt. eigenvalues --    0.99032   1.00049   1.06548   1.27734   1.29205
          Condensed to atoms (all electrons):
               1          2          3          4          5          6
     1  C    5.363163   0.500355  -0.044573  -0.126139   0.181420   0.161976
     2  C    0.500355   4.947531   0.468920  -0.029716  -0.126139  -0.020416
     3  C   -0.044573   0.468920   4.858896   0.468920  -0.044573   0.006705
     4  C   -0.126139  -0.029716   0.468920   4.947531   0.500355  -0.020416
     5  C    0.181420  -0.126139  -0.044573   0.500355   5.363163   0.161976
     6  H    0.161976  -0.020416   0.006705  -0.020416   0.161976   0.351313
     7  H    0.335126   0.003861  -0.000102   0.003328  -0.017073  -0.008998
     8  H   -0.024610   0.360605  -0.012571   0.004039   0.001091   0.000461
     9  H    0.005370  -0.028028   0.364138  -0.028028   0.005370  -0.000057
    10  H    0.001091   0.004039  -0.012571   0.360605  -0.024610   0.000461
    11  H   -0.017073   0.003328  -0.000102   0.003861   0.335126  -0.008998
               7          8          9         10         11
     1  C    0.335126  -0.024610   0.005370   0.001091  -0.017073
     2  C    0.003861   0.360605  -0.028028   0.004039   0.003328
     3  C   -0.000102  -0.012571   0.364138  -0.012571  -0.000102
     4  C    0.003328   0.004039  -0.028028   0.360605   0.003861
     5  C   -0.017073   0.001091   0.005370  -0.024610   0.335126
     6  H   -0.008998   0.000461  -0.000057   0.000461  -0.008998
     7  H    0.347768  -0.000087  -0.000056  -0.000020   0.000425
     8  H   -0.000087   0.387544  -0.001416  -0.000095  -0.000020
     9  H   -0.000056  -0.001416   0.407967  -0.001416  -0.000056
    10  H   -0.000020  -0.000095  -0.001416   0.387544  -0.000087
    11  H    0.000425  -0.000020  -0.000056  -0.000087   0.347768
          Atomic-Atomic Spin Densities.
               1          2          3          4          5          6
     1  C    0.482636  -0.040766  -0.023350  -0.009493   0.028144  -0.003684
     2  C   -0.040766  -0.222072   0.028282  -0.000599  -0.009493   0.000279
     3  C   -0.023350   0.028282   0.694681   0.028282  -0.023350   0.000231
     4  C   -0.009493  -0.000599   0.028282  -0.222072  -0.040766   0.000279
     5  C    0.028144  -0.009493  -0.023350  -0.040766   0.482636  -0.003684
     6  H   -0.003684   0.000279   0.000231   0.000279  -0.003684  -0.014611
     7  H   -0.002455  -0.000486   0.000103  -0.000095   0.000229  -0.000185
     8  H   -0.000385   0.001942  -0.001146  -0.000116   0.000056   0.000019
     9  H   -0.000022  -0.000068  -0.000762  -0.000068  -0.000022  -0.000001
    10  H    0.000056  -0.000116  -0.001146   0.001942  -0.000385   0.000019
    11  H    0.000229  -0.000095   0.000103  -0.000486  -0.002455  -0.000185
               7          8          9         10         11
     1  C   -0.002455  -0.000385  -0.000022   0.000056   0.000229
     2  C   -0.000486   0.001942  -0.000068  -0.000116  -0.000095
     3  C    0.000103  -0.001146  -0.000762  -0.001146   0.000103
     4  C   -0.000095  -0.000116  -0.000068   0.001942  -0.000486
     5  C    0.000229   0.000056  -0.000022  -0.000385  -0.002455
     6  H   -0.000185   0.000019  -0.000001   0.000019  -0.000185
     7  H   -0.017404   0.000064   0.000004  -0.000000  -0.000071
     8  H    0.000064   0.006039   0.000014   0.000000  -0.000000
     9  H    0.000004   0.000014  -0.027326   0.000014   0.000004
    10  H   -0.000000   0.000000   0.000014   0.006039   0.000064
    11  H   -0.000071  -0.000000   0.000004   0.000064  -0.017404
 Mulliken charges and spin densities:
               1          2
     1  C   -0.336107   0.430911
     2  C   -0.084341  -0.243190
     3  C   -0.053085   0.701929
     4  C   -0.084341  -0.243190
     5  C   -0.336107   0.430911
     6  H    0.375993  -0.021523
     7  H    0.335828  -0.020296
     8  H    0.285060   0.006487
     9  H    0.276211  -0.028232
    10  H    0.285060   0.006487
    11  H    0.335828  -0.020296
 Sum of Mulliken charges =   1.00000   1.00000
 Mulliken charges and spin densities with hydrogens summed into heavy atoms:
               1          2
     1  C    0.375714   0.389092
     2  C    0.200719  -0.236702
     3  C    0.223126   0.673697
     4  C    0.200719  -0.236702
     5  C   -0.000279   0.410615
 Electronic spatial extent (au):  <R**2>=            318.4937
 Charge=              1.0000 electrons
 Dipole moment (field-independent basis, Debye):
    X=             -0.0000    Y=             -0.0000    Z=             -2.0244  Tot=              2.0244
 Quadrupole moment (field-independent basis, Debye-Ang):
   XX=            -31.1464   YY=            -17.3208   ZZ=            -12.9885
   XY=              0.0000   XZ=              0.0000   YZ=             -0.0000
 Traceless Quadrupole moment (field-independent basis, Debye-Ang):
   XX=            -10.6612   YY=              3.1644   ZZ=              7.4967
   XY=              0.0000   XZ=              0.0000   YZ=             -0.0000
 Octapole moment (field-independent basis, Debye-Ang**2):
  XXX=              0.0000  YYY=              0.0000  ZZZ=             -7.5173  XYY=             -0.0000
  XXY=              0.0000  XXZ=              0.6794  XZZ=              0.0000  YZZ=             -0.0000
  YYZ=             -2.7580  XYZ=             -0.0000
 Hexadecapole moment (field-independent basis, Debye-Ang**3):
 XXXX=            -30.9426 YYYY=           -143.2005 ZZZZ=           -123.9705 XXXY=             -0.0000
 XXXZ=             -0.0000 YYYX=             -0.0000 YYYZ=             -0.0000 ZZZX=              0.0000
 ZZZY=              0.0000 XXYY=            -41.9702 XXZZ=            -38.5260 YYZZ=            -42.2260
 XXYZ=             -0.0000 YYXZ=             -0.0000 ZZXY=             -0.0000
 N-N= 1.560127424860D+02 E-N=-7.522250331106D+02  KE= 1.927619655242D+02
 Symmetry A1   KE= 1.114143810993D+02
 Symmetry A2   KE= 2.529399656675D+00
 Symmetry B1   KE= 3.253155383325D+00
 Symmetry B2   KE= 7.556502938484D+01
 Symmetry A1   SP= 3.685243841860D-15
 Symmetry A2   SP= 3.912343539414D-15
 Symmetry B1   SP= 1.000000000000D+00
 Symmetry B2   SP= 1.722931083285D-14
                          Isotropic Fermi Contact Couplings
        Atom                 a.u.       MegaHertz       Gauss      10(-4) cm-1
     1  C(13)              0.06605      74.24882      26.49382      24.76674
     2  C(13)             -0.04387     -49.31273     -17.59601     -16.44896
     3  C(13)              0.10113     113.68601      40.56600      37.92157
     4  C(13)             -0.04387     -49.31273     -17.59601     -16.44896
     5  C(13)              0.06605      74.24882      26.49382      24.76674
     6  H(1)              -0.00801     -35.80760     -12.77704     -11.94413
     7  H(1)              -0.00857     -38.31967     -13.67341     -12.78207
     8  H(1)               0.00250      11.17666       3.98811       3.72813
     9  H(1)              -0.01250     -55.87461     -19.93745     -18.63776
    10  H(1)               0.00250      11.17666       3.98811       3.72813
    11  H(1)              -0.00857     -38.31967     -13.67341     -12.78207
 --------------------------------------------------------
       Center         ----  Spin Dipole Couplings  ----
                      3XX-RR        3YY-RR        3ZZ-RR
 --------------------------------------------------------
     1   Atom        0.446809     -0.217630     -0.229179
     2   Atom       -0.154972      0.075947      0.079025
     3   Atom        0.675261     -0.344805     -0.330456
     4   Atom       -0.154972      0.075947      0.079025
     5   Atom        0.446809     -0.217630     -0.229179
     6   Atom       -0.006736      0.006245      0.000491
     7   Atom       -0.006180      0.006202     -0.000022
     8   Atom       -0.006419      0.001292      0.005126
     9   Atom       -0.008288     -0.044180      0.052468
    10   Atom       -0.006419      0.001292      0.005126
    11   Atom       -0.006180      0.006202     -0.000022
 --------------------------------------------------------
                        XY            XZ            YZ
 --------------------------------------------------------
     1   Atom       -0.000000     -0.000000     -0.007685
     2   Atom       -0.000000      0.000000     -0.005942
     3   Atom       -0.000000     -0.000000      0.000000
     4   Atom       -0.000000     -0.000000      0.005942
     5   Atom        0.000000      0.000000      0.007685
     6   Atom       -0.000000      0.000000      0.000000
     7   Atom        0.000000      0.000000     -0.032984
     8   Atom       -0.000000      0.000000     -0.004888
     9   Atom       -0.000000     -0.000000     -0.000000
    10   Atom        0.000000     -0.000000      0.004888
    11   Atom       -0.000000     -0.000000      0.032984
 --------------------------------------------------------


 ---------------------------------------------------------------------------------
              Anisotropic Spin Dipole Couplings in Principal Axis System
 ---------------------------------------------------------------------------------

       Atom             a.u.   MegaHertz   Gauss  10(-4) cm-1        Axes

              Baa    -0.2330   -31.269   -11.157   -10.430  0.0000  0.4468  0.8946
     1 C(13)  Bbb    -0.2138   -28.689   -10.237    -9.570  0.0000  0.8946 -0.4468
              Bcc     0.4468    59.957    21.394    20.000  1.0000 -0.0000  0.0000
 
              Baa    -0.1550   -20.796    -7.420    -6.937  1.0000  0.0000  0.0000
     2 C(13)  Bbb     0.0713     9.574     3.416     3.194 -0.0000  0.7908  0.6121
              Bcc     0.0836    11.222     4.004     3.743  0.0000 -0.6121  0.7908
 
              Baa    -0.3448   -46.270   -16.510   -15.434  0.0000  1.0000  0.0000
     3 C(13)  Bbb    -0.3305   -44.344   -15.823   -14.792  0.0000  0.0000  1.0000
              Bcc     0.6753    90.614    32.333    30.225  1.0000 -0.0000  0.0000
 
              Baa    -0.1550   -20.796    -7.420    -6.937  1.0000  0.0000  0.0000
     4 C(13)  Bbb     0.0713     9.574     3.416     3.194 -0.0000  0.7908 -0.6121
              Bcc     0.0836    11.222     4.004     3.743 -0.0000  0.6121  0.7908
 
              Baa    -0.2330   -31.269   -11.157   -10.430 -0.0000 -0.4468  0.8946
     5 C(13)  Bbb    -0.2138   -28.689   -10.237    -9.570  0.0000  0.8946  0.4468
              Bcc     0.4468    59.957    21.394    20.000  1.0000 -0.0000  0.0000
 
              Baa    -0.0067    -3.594    -1.282    -1.199  1.0000  0.0000 -0.0000
     6 H(1)   Bbb     0.0005     0.262     0.093     0.087  0.0000 -0.0000  1.0000
              Bcc     0.0062     3.332     1.189     1.111 -0.0000  1.0000  0.0000
 
              Baa    -0.0300   -16.028    -5.719    -5.346 -0.0000  0.6731  0.7396
     7 H(1)   Bbb    -0.0062    -3.298    -1.177    -1.100  1.0000  0.0000  0.0000
              Bcc     0.0362    19.326     6.896     6.446 -0.0000  0.7396 -0.6731
 
              Baa    -0.0064    -3.425    -1.222    -1.142  1.0000  0.0000  0.0000
     8 H(1)   Bbb    -0.0020    -1.089    -0.389    -0.363 -0.0000  0.8262  0.5634
              Bcc     0.0085     4.514     1.611     1.506  0.0000 -0.5634  0.8262
 
              Baa    -0.0442   -23.572    -8.411    -7.863  0.0000  1.0000 -0.0000
     9 H(1)   Bbb    -0.0083    -4.422    -1.578    -1.475  1.0000 -0.0000  0.0000
              Bcc     0.0525    27.994     9.989     9.338  0.0000  0.0000  1.0000
 
              Baa    -0.0064    -3.425    -1.222    -1.142  1.0000 -0.0000  0.0000
    10 H(1)   Bbb    -0.0020    -1.089    -0.389    -0.363  0.0000  0.8262 -0.5634
              Bcc     0.0085     4.514     1.611     1.506  0.0000  0.5634  0.8262
 
              Baa    -0.0300   -16.028    -5.719    -5.346  0.0000 -0.6731  0.7396
    11 H(1)   Bbb    -0.0062    -3.298    -1.177    -1.100  1.0000  0.0000  0.0000
              Bcc     0.0362    19.326     6.896     6.446 -0.0000  0.7396  0.6731
 

 ---------------------------------------------------------------------------------

 No NMR shielding tensors so no spin-rotation constants.
 Leave Link  601 at Thu Mar  5 12:52:01 2020, MaxMem=  6710886400 cpu:               2.9 elap:               0.2
 (Enter /opt/ohpc/pub/libs/gaussian/g16-A.03/sandybridge/g16/l9999.exe)

 Test job not archived.
 1\1\GINC-CNODE212\SP\ULC-wHPBE\6-31G\C5H6(1+,2)\SMGO234\05-Mar-2020\0\
 \#P uLC-wHPBE/6-31G iop(3/130=0379000000, 3/131=0379000000, 3/119=0621
 000000, 3/120=0621000000) scf=(conver=6,fermi,ndamp=35,noincfock,novar
 acc,vshift=500,xqc)\\H6 C5\\1,2\C,0,0.,0.878804,-0.931542\C,0,0.,1.128
 157,0.423457\C,0,0.,0.,1.240879\C,0,0.,-1.128157,0.423457\C,0,0.,-0.87
 8804,-0.931542\H,0,0.,0.,-1.732269\H,0,0.,1.6083,-1.734053\H,0,0.,2.15
 6626,0.76567\H,0,0.,0.,2.320778\H,0,0.,-2.156626,0.76567\H,0,0.,-1.608
 3,-1.734053\\Version=EM64L-G16RevA.03\State=2-B1\HF=-195.1029658\S2=0.
 796229\S2-1=0.\S2A=0.751234\RMSD=6.407e-07\Dipole=0.,0.,-0.7964636\Qua
 drupole=-7.926306,2.3526828,5.5736232,0.,0.,0.\PG=C02V [C2(H1C1H1),SGV
 (C4H4)]\\@


 COLLEGE PROFESSOR: SOMEONE WHO TALKS IN OTHER PEOPLE'S SLEEP.
 Job cpu time:       0 days  0 hours  1 minutes  2.7 seconds.
 Elapsed time:       0 days  0 hours  0 minutes  4.6 seconds.
 File lengths (MBytes):  RWF=    272 Int=      0 D2E=      0 Chk=     32 Scr=     32
 Normal termination of Gaussian 16 at Thu Mar  5 12:52:01 2020.
