 Entering Gaussian System, Link 0=g16
 Input=a1b_tune_c9.gjf
 Output=a1b_tune_c9.log
 Initial command:
 /opt/ohpc/pub/libs/gaussian/g16-A.03/sandybridge/g16/l1.exe "/scratch/smgo234/Ocelot/test/a1b/tuning_a1b_acycle1/Gau-81553.inp" -scrdir="/scratch/smgo234/Ocelot/test/a1b/tuning_a1b_acycle1/"
 Entering Link 1 = /opt/ohpc/pub/libs/gaussian/g16-A.03/sandybridge/g16/l1.exe PID=     81554.
  
 Copyright (c) 1988,1990,1992,1993,1995,1998,2003,2009,2016,
            Gaussian, Inc.  All Rights Reserved.
  
 This is part of the Gaussian(R) 16 program.  It is based on
 the Gaussian(R) 09 system (copyright 2009, Gaussian, Inc.),
 the Gaussian(R) 03 system (copyright 2003, Gaussian, Inc.),
 the Gaussian(R) 98 system (copyright 1998, Gaussian, Inc.),
 the Gaussian(R) 94 system (copyright 1995, Gaussian, Inc.),
 the Gaussian 92(TM) system (copyright 1992, Gaussian, Inc.),
 the Gaussian 90(TM) system (copyright 1990, Gaussian, Inc.),
 the Gaussian 88(TM) system (copyright 1988, Gaussian, Inc.),
 the Gaussian 86(TM) system (copyright 1986, Carnegie Mellon
 University), and the Gaussian 82(TM) system (copyright 1983,
 Carnegie Mellon University). Gaussian is a federally registered
 trademark of Gaussian, Inc.
  
 This software contains proprietary and confidential information,
 including trade secrets, belonging to Gaussian, Inc.
  
 This software is provided under written license and may be
 used, copied, transmitted, or stored only in accord with that
 written license.
  
 The following legend is applicable only to US Government
 contracts under FAR:
  
                    RESTRICTED RIGHTS LEGEND
  
 Use, reproduction and disclosure by the US Government is
 subject to restrictions as set forth in subparagraphs (a)
 and (c) of the Commercial Computer Software - Restricted
 Rights clause in FAR 52.227-19.
  
 Gaussian, Inc.
 340 Quinnipiac St., Bldg. 40, Wallingford CT 06492
  
  
 ---------------------------------------------------------------
 Warning -- This program may not be used in any manner that
 competes with the business of Gaussian, Inc. or will provide
 assistance to any competitor of Gaussian, Inc.  The licensee
 of this program is prohibited from giving any competitor of
 Gaussian, Inc. access to this program.  By using this program,
 the user acknowledges that Gaussian, Inc. is engaged in the
 business of creating and licensing software in the field of
 computational chemistry and represents and warrants to the
 licensee that it is not a competitor of Gaussian, Inc. and that
 it will not use this program in any manner prohibited above.
 ---------------------------------------------------------------
  

 Cite this work as:
 Gaussian 16, Revision A.03,
 M. J. Frisch, G. W. Trucks, H. B. Schlegel, G. E. Scuseria, 
 M. A. Robb, J. R. Cheeseman, G. Scalmani, V. Barone, 
 G. A. Petersson, H. Nakatsuji, X. Li, M. Caricato, A. V. Marenich, 
 J. Bloino, B. G. Janesko, R. Gomperts, B. Mennucci, H. P. Hratchian, 
 J. V. Ortiz, A. F. Izmaylov, J. L. Sonnenberg, D. Williams-Young, 
 F. Ding, F. Lipparini, F. Egidi, J. Goings, B. Peng, A. Petrone, 
 T. Henderson, D. Ranasinghe, V. G. Zakrzewski, J. Gao, N. Rega, 
 G. Zheng, W. Liang, M. Hada, M. Ehara, K. Toyota, R. Fukuda, 
 J. Hasegawa, M. Ishida, T. Nakajima, Y. Honda, O. Kitao, H. Nakai, 
 T. Vreven, K. Throssell, J. A. Montgomery, Jr., J. E. Peralta, 
 F. Ogliaro, M. J. Bearpark, J. J. Heyd, E. N. Brothers, K. N. Kudin, 
 V. N. Staroverov, T. A. Keith, R. Kobayashi, J. Normand, 
 K. Raghavachari, A. P. Rendell, J. C. Burant, S. S. Iyengar, 
 J. Tomasi, M. Cossi, J. M. Millam, M. Klene, C. Adamo, R. Cammi, 
 J. W. Ochterski, R. L. Martin, K. Morokuma, O. Farkas, 
 J. B. Foresman, and D. J. Fox, Gaussian, Inc., Wallingford CT, 2016.
 
 ******************************************
 Gaussian 16:  EM64L-G16RevA.03 25-Dec-2016
                 5-Mar-2020 
 ******************************************
 %mem=50GB
 %nproc=16
 Will use up to   16 processors via shared memory.
 ----------------------------------------------------------------------
 #P uLC-wHPBE/6-31G iop(3/130=0242800000, 3/131=0242800000, 3/119=07572
 00000, 3/120=0757200000) scf=(conver=6,fermi,ndamp=35,noincfock,novara
 cc,vshift=500,xqc)
 ----------------------------------------------------------------------
 1/38=1,172=1/1;
 2/12=2,17=6,18=5,40=1/2;
 3/5=1,6=6,11=2,25=1,30=1,74=-71,116=2,119=757200000,120=757200000,130=242800000,131=242800000/1,2,3;
 4//1;
 5/5=100002,6=6,8=3,10=500,13=1,18=-1,22=13,38=1,93=35/2,8;
 6/7=2,8=2,9=2,10=2,28=1/1;
 99/5=1,9=1/99;
 Leave Link    1 at Thu Mar  5 12:52:57 2020, MaxMem=  6710886400 cpu:              14.6 elap:               1.0
 (Enter /opt/ohpc/pub/libs/gaussian/g16-A.03/sandybridge/g16/l101.exe)
 -----
 H6 C5
 -----
 Symbolic Z-matrix:
 Charge =  1 Multiplicity = 2
 C                     0.        0.8788   -0.93154 
 C                     0.        1.12816   0.42346 
 C                     0.        0.        1.24088 
 C                     0.       -1.12816   0.42346 
 C                     0.       -0.8788   -0.93154 
 H                     0.        0.       -1.73227 
 H                     0.        1.6083   -1.73405 
 H                     0.        2.15663   0.76567 
 H                     0.        0.        2.32078 
 H                     0.       -2.15663   0.76567 
 H                     0.       -1.6083   -1.73405 
 
 ITRead=  0  0  0  0  0  0  0  0  0  0  0
 MicOpt= -1 -1 -1 -1 -1 -1 -1 -1 -1 -1 -1
 NAtoms=     11 NQM=       11 NQMF=       0 NMMI=      0 NMMIF=      0
                NMic=       0 NMicF=      0.
                    Isotopes and Nuclear Properties:
 (Nuclear quadrupole moments (NQMom) in fm**2, nuclear magnetic moments (NMagM)
  in nuclear magnetons)

  Atom         1           2           3           4           5           6           7           8           9          10
 IAtWgt=          12          12          12          12          12           1           1           1           1           1
 AtmWgt=  12.0000000  12.0000000  12.0000000  12.0000000  12.0000000   1.0078250   1.0078250   1.0078250   1.0078250   1.0078250
 NucSpn=           0           0           0           0           0           1           1           1           1           1
 AtZEff=  -0.0000000  -0.0000000  -0.0000000  -0.0000000  -0.0000000  -0.0000000  -0.0000000  -0.0000000  -0.0000000  -0.0000000
 NQMom=    0.0000000   0.0000000   0.0000000   0.0000000   0.0000000   0.0000000   0.0000000   0.0000000   0.0000000   0.0000000
 NMagM=    0.0000000   0.0000000   0.0000000   0.0000000   0.0000000   2.7928460   2.7928460   2.7928460   2.7928460   2.7928460
 AtZNuc=   6.0000000   6.0000000   6.0000000   6.0000000   6.0000000   1.0000000   1.0000000   1.0000000   1.0000000   1.0000000

  Atom        11
 IAtWgt=           1
 AtmWgt=   1.0078250
 NucSpn=           1
 AtZEff=  -0.0000000
 NQMom=    0.0000000
 NMagM=    2.7928460
 AtZNuc=   1.0000000
 Leave Link  101 at Thu Mar  5 12:52:57 2020, MaxMem=  6710886400 cpu:               2.8 elap:               0.2
 (Enter /opt/ohpc/pub/libs/gaussian/g16-A.03/sandybridge/g16/l202.exe)
                          Input orientation:                          
 ---------------------------------------------------------------------
 Center     Atomic      Atomic             Coordinates (Angstroms)
 Number     Number       Type             X           Y           Z
 ---------------------------------------------------------------------
      1          6           0        0.000000    0.878804   -0.931542
      2          6           0        0.000000    1.128157    0.423457
      3          6           0        0.000000    0.000000    1.240879
      4          6           0        0.000000   -1.128157    0.423457
      5          6           0        0.000000   -0.878804   -0.931542
      6          1           0        0.000000    0.000000   -1.732269
      7          1           0        0.000000    1.608300   -1.734053
      8          1           0        0.000000    2.156626    0.765670
      9          1           0        0.000000    0.000000    2.320778
     10          1           0        0.000000   -2.156626    0.765670
     11          1           0        0.000000   -1.608300   -1.734053
 ---------------------------------------------------------------------
                    Distance matrix (angstroms):
                    1          2          3          4          5
     1  C    0.000000
     2  C    1.377752   0.000000
     3  C    2.343440   1.393168   0.000000
     4  C    2.421552   2.256314   1.393168   0.000000
     5  C    1.757608   2.421552   2.343440   1.377752   0.000000
     6  H    1.188890   2.433083   2.973148   2.433083   1.188890
     7  H    1.084522   2.210291   3.381841   3.484687   2.613371
     8  H    2.124466   1.083909   2.208361   3.302561   3.477695
     9  H    3.368959   2.207389   1.079899   2.207389   3.368959
    10  H    3.477695   3.302561   2.208361   1.083909   2.124466
    11  H    2.613371   3.484687   3.381841   2.210291   1.084522
                    6          7          8          9         10
     6  H    0.000000
     7  H    1.608301   0.000000
     8  H    3.300111   2.559155   0.000000
     9  H    4.053047   4.362142   2.658834   0.000000
    10  H    3.300111   4.519213   4.313252   2.658834   0.000000
    11  H    1.608301   3.216600   4.519213   4.362142   2.559155
                   11
    11  H    0.000000
 Stoichiometry    C5H6(1+,2)
 Framework group  C2V[C2(HCH),SGV(C4H4)]
 Deg. of freedom    10
 Full point group                 C2V     NOp   4
 Largest Abelian subgroup         C2V     NOp   4
 Largest concise Abelian subgroup C2      NOp   2
                         Standard orientation:                         
 ---------------------------------------------------------------------
 Center     Atomic      Atomic             Coordinates (Angstroms)
 Number     Number       Type             X           Y           Z
 ---------------------------------------------------------------------
      1          6           0        0.000000    0.878804   -0.931542
      2          6           0        0.000000    1.128157    0.423457
      3          6           0        0.000000   -0.000000    1.240879
      4          6           0       -0.000000   -1.128157    0.423457
      5          6           0       -0.000000   -0.878804   -0.931542
      6          1           0       -0.000000    0.000000   -1.732269
      7          1           0        0.000000    1.608300   -1.734053
      8          1           0        0.000000    2.156626    0.765670
      9          1           0        0.000000   -0.000000    2.320778
     10          1           0       -0.000000   -2.156626    0.765670
     11          1           0       -0.000000   -1.608300   -1.734053
 ---------------------------------------------------------------------
 Rotational constants (GHZ):           8.5259551           7.9375455           4.1106177
 Leave Link  202 at Thu Mar  5 12:52:57 2020, MaxMem=  6710886400 cpu:               0.2 elap:               0.0
 (Enter /opt/ohpc/pub/libs/gaussian/g16-A.03/sandybridge/g16/l301.exe)
 Standard basis: 6-31G (6D, 7F)
 Ernie: Thresh=  0.10000D-02 Tol=  0.10000D-05 Strict=F.
 There are    27 symmetry adapted cartesian basis functions of A1  symmetry.
 There are     4 symmetry adapted cartesian basis functions of A2  symmetry.
 There are     6 symmetry adapted cartesian basis functions of B1  symmetry.
 There are    20 symmetry adapted cartesian basis functions of B2  symmetry.
 There are    27 symmetry adapted basis functions of A1  symmetry.
 There are     4 symmetry adapted basis functions of A2  symmetry.
 There are     6 symmetry adapted basis functions of B1  symmetry.
 There are    20 symmetry adapted basis functions of B2  symmetry.
    57 basis functions,   134 primitive gaussians,    57 cartesian basis functions
    18 alpha electrons       17 beta electrons
       nuclear repulsion energy       156.0127424860 Hartrees.
 IExCor=33909 DFT=T Ex+Corr=LC-wHPBE ExCW=0 ScaHFX=  1.000000
 ScaDFX=  1.000000  1.000000  1.000000  1.000000 ScalE2=  1.000000  1.000000
 IRadAn=      5 IRanWt=     -1 IRanGd=            0 ICorTp=0 IEmpDi=  4
 HFx  wShort=  0.000000 wLong=  0.400000 cFull=  0.000000 cShort=  0.000000 cLong=  0.000000
 DFx  wShort=  0.000000 wLong=  0.400000 cFull=  0.000000 cShort=  1.000000 cLong=  0.000000
 NAtoms=   11 NActive=   11 NUniq=    7 SFac= 2.47D+00 NAtFMM=   60 NAOKFM=F Big=F
 Integral buffers will be    131072 words long.
 Raffenetti 2 integral format.
 Two-electron integral symmetry is turned on.
 Leave Link  301 at Thu Mar  5 12:52:57 2020, MaxMem=  6710886400 cpu:               0.9 elap:               0.1
 (Enter /opt/ohpc/pub/libs/gaussian/g16-A.03/sandybridge/g16/l302.exe)
 NPDir=0 NMtPBC=     1 NCelOv=     1 NCel=       1 NClECP=     1 NCelD=      1
         NCelK=      1 NCelE2=     1 NClLst=     1 CellRange=     0.0.
 One-electron integrals computed using PRISM.
 One-electron integral symmetry used in STVInt
 NBasis=    57 RedAO= T EigKep=  1.84D-03  NBF=    27     4     6    20
 NBsUse=    57 1.00D-06 EigRej= -1.00D+00 NBFU=    27     4     6    20
 Precomputing XC quadrature grid using
 IXCGrd= 4 IRadAn=           5 IRanWt=          -1 IRanGd=           0 AccXCQ= 0.00D+00.
 Generated NRdTot=       0 NPtTot=           0 NUsed=           0 NTot=          32
 NSgBfM=    57    57    57    57    57 MxSgAt=    11 MxSgA2=    11.
 Leave Link  302 at Thu Mar  5 12:52:57 2020, MaxMem=  6710886400 cpu:               2.4 elap:               0.2
 (Enter /opt/ohpc/pub/libs/gaussian/g16-A.03/sandybridge/g16/l303.exe)
 DipDrv:  MaxL=1.
 Leave Link  303 at Thu Mar  5 12:52:57 2020, MaxMem=  6710886400 cpu:               0.4 elap:               0.0
 (Enter /opt/ohpc/pub/libs/gaussian/g16-A.03/sandybridge/g16/l401.exe)
 ExpMin= 1.61D-01 ExpMax= 3.05D+03 ExpMxC= 4.57D+02 IAcc=3 IRadAn=         5 AccDes= 0.00D+00
 Harris functional with IExCor=33909 and IRadAn=       5 diagonalized for initial guess.
 HarFok:  IExCor=33909 AccDes= 0.00D+00 IRadAn=         5 IDoV= 1 UseB2=F ITyADJ=14
 ICtDFT=  3500011 ScaDFX=  1.000000  1.000000  1.000000  1.000000
 FoFCou: FMM=F IPFlag=           0 FMFlag=      100000 FMFlg1=           0
         NFxFlg=           0 DoJE=T BraDBF=F KetDBF=T FulRan=T
         wScrn=  0.000000 ICntrl=       500 IOpCl=  0 I1Cent=   200000004 NGrid=           0
         NMat0=    1 NMatS0=      1 NMatT0=    0 NMatD0=    1 NMtDS0=    0 NMtDT0=    0
 Petite list used in FoFCou.
 Harris En= -186.653266715863    
 JPrj=0 DoOrth=F DoCkMO=F.
 Initial guess orbital symmetries:
 Alpha Orbitals:
       Occupied  (A1) (B2) (A1) (B2) (A1) (A1) (A1) (B2) (A1) (B2)
                 (A1) (B2) (A1) (B2) (A1) (B1) (A2) (B1)
       Virtual   (A2) (B2) (B1) (A1) (A1) (B2) (A1) (B2) (A1) (B2)
                 (A1) (B2) (A1) (B2) (B1) (A2) (B1) (A1) (B2) (A1)
                 (A1) (A2) (B1) (B2) (B2) (A1) (B2) (A1) (A1) (B2)
                 (A1) (A1) (A1) (B2) (A1) (B2) (A1) (A1) (B2)
 Beta  Orbitals:
       Occupied  (A1) (B2) (A1) (B2) (A1) (A1) (A1) (B2) (A1) (B2)
                 (A1) (B2) (A1) (B2) (A1) (B1) (A2)
       Virtual   (B1) (A2) (B2) (B1) (A1) (A1) (B2) (A1) (B2) (A1)
                 (B2) (A1) (B2) (A1) (B2) (B1) (A2) (B1) (A1) (B2)
                 (A1) (A1) (A2) (B1) (B2) (B2) (A1) (B2) (A1) (A1)
                 (B2) (A1) (A1) (A1) (B2) (A1) (B2) (A1) (A1) (B2)
 The electronic state of the initial guess is 2-B1.
 Initial guess <Sx>= 0.0000 <Sy>= 0.0000 <Sz>= 0.5000 <S**2>= 0.7500 S= 0.5000
 Leave Link  401 at Thu Mar  5 12:52:57 2020, MaxMem=  6710886400 cpu:               3.1 elap:               0.2
 (Enter /opt/ohpc/pub/libs/gaussian/g16-A.03/sandybridge/g16/l502.exe)
 Keep R1 and R2 ints in memory in symmetry-blocked form, NReq=16815681.
 FoFCou: FMM=F IPFlag=           0 FMFlag=           0 FMFlg1=           0
         NFxFlg=           0 DoJE=F BraDBF=F KetDBF=F FulRan=T
         wScrn=  0.000000 ICntrl=       600 IOpCl=  0 I1Cent=           0 NGrid=           0
         NMat0=    1 NMatS0=   1653 NMatT0=    0 NMatD0=    1 NMtDS0=    0 NMtDT0=    0
 Petite list used in FoFCou.
 UHF open shell SCF:
 Using DIIS extrapolation, IDIIS=    10.
 NGot=  6710886400 LenX=  6710059561 LenY=  6710055871
 Requested convergence on RMS density matrix=1.00D-06 within  32 cycles.
 Requested convergence on MAX density matrix=1.00D-04.
 Requested convergence on             energy=1.00D-04.
 Virtual orbitals will be shifted by   0.500 hartree.
 No special actions if energy rises.
 Dynamic level shift is on during FON iterations.

 Cycle   1  Pass 1  IDiag  1:
 E= -186.493326776256    
 DIIS: error= 4.47D-02 at cycle   1 NSaved=   1.
 NSaved= 1 IEnMin= 1 EnMin= -186.493326776256     IErMin= 1 ErrMin= 4.47D-02
 ErrMax= 4.47D-02  0.00D+00 EMaxC= 1.00D+00 BMatC= 1.93D-01 BMatP= 1.93D-01
 IDIUse=1 WtCom= 1.00D+00 WtEn= 0.00D+00
 Coeff-Com:  0.100D+01
 Coeff:      0.100D+01
 Gap=     0.113 Goal=   None    Shift=    0.500
 T= 1735. Gap= 0.593 NK=0 IS=   19 IE=   57 IFin=   18
          NO(<0.9)=   0  NV(>0.1)=   0     18.00e < EF      0.00e >EF  Err=0.0D+00
 Gap=     0.000 Goal=   None    Shift=    0.500
 T= 1735. Gap= 0.441 NK=0 IS=   18 IE=   57 IFin=   17
          NO(<0.9)=   0  NV(>0.1)=   0     17.00e < EF      0.00e >EF  Err=0.0D+00
 GapD=    0.000 DampG=0.250 DampE=0.500 DampFc=0.1250 IDamp=-1.
 Damping current iteration by 1.25D-01
 RMSDP=1.31D-02 MaxDP=1.89D-01              OVMax= 1.24D-01

 Cycle   2  Pass 1  IDiag  1:
 E= -186.505016695602     Delta-E=       -0.011689919345 Rises=F Damp=T
 DIIS: error= 3.58D-02 at cycle   2 NSaved=   2.
 NSaved= 2 IEnMin= 2 EnMin= -186.505016695602     IErMin= 2 ErrMin= 3.58D-02
 ErrMax= 3.58D-02  0.00D+00 EMaxC= 1.00D+00 BMatC= 1.21D-01 BMatP= 1.93D-01
 IDIUse=1 WtCom= 1.00D+00 WtEn= 0.00D+00
 Coeff-Com: -0.320D+01 0.420D+01
 Coeff:     -0.320D+01 0.420D+01
 Gap=     0.153 Goal=   None    Shift=    0.500
 T= 1693. Gap= 0.647 NK=4 IS=   19 IE=   25 IFin=   18
          NO(<0.9)=   0  NV(>0.1)=   0     18.00e < EF      0.00e >EF  Err=0.0D+00
 Gap=     0.033 Goal=   None    Shift=    0.500
 T= 1693. Gap= 0.535 NK=4 IS=   18 IE=   24 IFin=   17
          NO(<0.9)=   0  NV(>0.1)=   0     17.00e < EF      0.00e >EF  Err=0.0D+00
 GapD=    0.033 DampG=0.250 DampE=0.500 DampFc=0.1250 IDamp=-1.
 Damping current iteration by 1.25D-01
 RMSDP=8.89D-03 MaxDP=1.13D-01 DE=-1.17D-02 OVMax= 6.72D-02

 Cycle   3  Pass 1  IDiag  1:
 E= -186.517303603743     Delta-E=       -0.012286908141 Rises=F Damp=T
 DIIS: error= 2.52D-02 at cycle   3 NSaved=   3.
 NSaved= 3 IEnMin= 3 EnMin= -186.517303603743     IErMin= 3 ErrMin= 2.52D-02
 ErrMax= 2.52D-02  0.00D+00 EMaxC= 1.00D+00 BMatC= 6.86D-02 BMatP= 1.21D-01
 IDIUse=1 WtCom= 1.00D+00 WtEn= 0.00D+00
 Coeff-Com: -0.168D+01 0.769D+00 0.191D+01
 Coeff:     -0.168D+01 0.769D+00 0.191D+01
 Gap=     0.183 Goal=   None    Shift=    0.500
 T= 1592. Gap= 0.680 NK=4 IS=   19 IE=   24 IFin=   18
          NO(<0.9)=   0  NV(>0.1)=   0     18.00e < EF      0.00e >EF  Err=0.0D+00
 Gap=     0.012 Goal=   None    Shift=    0.500
 T= 1592. Gap= 0.516 NK=4 IS=   18 IE=   24 IFin=   17
          NO(<0.9)=   0  NV(>0.1)=   0     17.00e < EF      0.00e >EF  Err=0.0D+00
 GapD=    0.012 DampG=0.250 DampE=0.500 DampFc=0.1250 IDamp=-1.
 Damping current iteration by 1.25D-01
 RMSDP=6.49D-03 MaxDP=7.21D-02 DE=-1.23D-02 OVMax= 6.46D-02

 Cycle   4  Pass 1  IDiag  1:
 E= -186.524547660920     Delta-E=       -0.007244057177 Rises=F Damp=T
 DIIS: error= 1.82D-02 at cycle   4 NSaved=   4.
 NSaved= 4 IEnMin= 4 EnMin= -186.524547660920     IErMin= 4 ErrMin= 1.82D-02
 ErrMax= 1.82D-02  0.00D+00 EMaxC= 1.00D+00 BMatC= 4.22D-02 BMatP= 6.86D-02
 IDIUse=1 WtCom= 1.00D+00 WtEn= 0.00D+00
 Large coefficients: NSaved=  4 BigCof=   14.23 CofMax=   10.00 Det=-2.98D-05
 Inversion failed.  Reducing to  3 matrices.
 Large coefficients: NSaved=  3 BigCof=   16.82 CofMax=   10.00 Det=-3.09D-05
 Inversion failed.  Reducing to  2 matrices.
 Coeff-Com: -0.259D+01 0.359D+01
 Coeff:     -0.259D+01 0.359D+01
 Gap=     0.198 Goal=   None    Shift=    0.500
 T= 1420. Gap= 0.697 NK=0 IS=   19 IE=   57 IFin=   18
          NO(<0.9)=   0  NV(>0.1)=   0     18.00e < EF      0.00e >EF  Err=0.0D+00
 Gap=     0.000 Goal=   None    Shift=    0.500
 T= 1420. Gap= 0.503 NK=0 IS=   18 IE=   57 IFin=   17
          NO(<0.9)=   0  NV(>0.1)=   0     17.00e < EF      0.00e >EF  Err=0.0D+00
 GapD=    0.000 DampG=0.250 DampE=0.500 DampFc=0.1250 IDamp=-1.
 Damping current iteration by 1.25D-01
 RMSDP=4.53D-03 MaxDP=4.89D-02 DE=-7.24D-03 OVMax= 6.56D-02

 Cycle   5  Pass 1  IDiag  1:
 E= -186.529586584891     Delta-E=       -0.005038923971 Rises=F Damp=T
 DIIS: error= 1.37D-02 at cycle   5 NSaved=   3.
 NSaved= 3 IEnMin= 3 EnMin= -186.529586584891     IErMin= 3 ErrMin= 1.37D-02
 ErrMax= 1.37D-02  0.00D+00 EMaxC= 1.00D+00 BMatC= 2.68D-02 BMatP= 4.22D-02
 IDIUse=1 WtCom= 1.00D+00 WtEn= 0.00D+00
 Coeff-Com:  0.155D+01-0.716D+01 0.661D+01
 Coeff:      0.155D+01-0.716D+01 0.661D+01
 Gap=     0.193 Goal=   None    Shift=    0.500
 T= 1223. Gap= 0.693 NK=0 IS=   19 IE=   57 IFin=   18
          NO(<0.9)=   0  NV(>0.1)=   0     18.00e < EF      0.00e >EF  Err=0.0D+00
 Gap=     0.021 Goal=   None    Shift=    0.500
 T= 1223. Gap= 0.523 NK=0 IS=   18 IE=   57 IFin=   17
          NO(<0.9)=   0  NV(>0.1)=   0     17.00e < EF      0.00e >EF  Err=0.0D+00
 GapD=    0.021 DampG=0.250 DampE=0.500 DampFc=0.1250 IDamp=-1.
 Damping current iteration by 1.25D-01
 RMSDP=3.29D-03 MaxDP=3.71D-02 DE=-5.04D-03 OVMax= 4.51D-02

 Cycle   6  Pass 1  IDiag  1:
 E= -186.533274232647     Delta-E=       -0.003687647756 Rises=F Damp=T
 DIIS: error= 1.09D-02 at cycle   6 NSaved=   4.
 NSaved= 4 IEnMin= 4 EnMin= -186.533274232647     IErMin= 4 ErrMin= 1.09D-02
 ErrMax= 1.09D-02  0.00D+00 EMaxC= 1.00D+00 BMatC= 1.86D-02 BMatP= 2.68D-02
 IDIUse=1 WtCom= 1.00D+00 WtEn= 0.00D+00
 Large coefficients: NSaved=  4 BigCof=   11.97 CofMax=   10.00 Det=-4.04D-06
 Inversion failed.  Reducing to  3 matrices.
 Large coefficients: NSaved=  3 BigCof=   15.42 CofMax=   10.00 Det=-4.22D-06
 Inversion failed.  Reducing to  2 matrices.
 Coeff-Com: -0.440D+01 0.540D+01
 Coeff:     -0.440D+01 0.540D+01
 Gap=     0.197 Goal=   None    Shift=    0.500
 T= 1050. Gap= 0.697 NK=0 IS=   19 IE=   57 IFin=   18
          NO(<0.9)=   0  NV(>0.1)=   0     18.00e < EF      0.00e >EF  Err=0.0D+00
 Gap=     0.020 Goal=   None    Shift=    0.500
 T= 1050. Gap= 0.521 NK=0 IS=   18 IE=   57 IFin=   17
          NO(<0.9)=   0  NV(>0.1)=   0     17.00e < EF      0.00e >EF  Err=0.0D+00
 GapD=    0.020 DampG=0.250 DampE=0.500 DampFc=0.1250 IDamp=-1.
 Damping current iteration by 1.25D-01
 RMSDP=2.58D-03 MaxDP=2.78D-02 DE=-3.69D-03 OVMax= 3.94D-02

 Cycle   7  Pass 1  IDiag  1:
 E= -186.536199131785     Delta-E=       -0.002924899138 Rises=F Damp=T
 DIIS: error= 9.33D-03 at cycle   7 NSaved=   3.
 NSaved= 3 IEnMin= 3 EnMin= -186.536199131785     IErMin= 3 ErrMin= 9.33D-03
 ErrMax= 9.33D-03  0.00D+00 EMaxC= 1.00D+00 BMatC= 1.36D-02 BMatP= 1.86D-02
 IDIUse=1 WtCom= 1.00D+00 WtEn= 0.00D+00
 Coeff-Com:  0.582D-02-0.560D+01 0.660D+01
 Coeff:      0.582D-02-0.560D+01 0.660D+01
 Gap=     0.192 Goal=   None    Shift=    0.500
 T=  910. Gap= 0.691 NK=0 IS=   19 IE=   57 IFin=   18
          NO(<0.9)=   0  NV(>0.1)=   0     18.00e < EF      0.00e >EF  Err=0.0D+00
 Gap=     0.028 Goal=   None    Shift=    0.500
 T=  910. Gap= 0.529 NK=0 IS=   18 IE=   57 IFin=   17
          NO(<0.9)=   0  NV(>0.1)=   0     17.00e < EF      0.00e >EF  Err=0.0D+00
 GapD=    0.028 DampG=0.250 DampE=1.000 DampFc=0.2500 IDamp=-1.
 Damping current iteration by 2.50D-01
 RMSDP=2.14D-03 MaxDP=2.50D-02 DE=-2.92D-03 OVMax= 2.23D-02

 Cycle   8  Pass 1  IDiag  1:
 E= -186.541047610851     Delta-E=       -0.004848479066 Rises=F Damp=T
 DIIS: error= 7.17D-03 at cycle   8 NSaved=   4.
 NSaved= 4 IEnMin= 4 EnMin= -186.541047610851     IErMin= 4 ErrMin= 7.17D-03
 ErrMax= 7.17D-03  0.00D+00 EMaxC= 1.00D+00 BMatC= 7.46D-03 BMatP= 1.36D-02
 IDIUse=1 WtCom= 1.00D+00 WtEn= 0.00D+00
 Large coefficients: NSaved=  4 BigCof=   10.89 CofMax=   10.00 Det=-1.57D-06
 Inversion failed.  Reducing to  3 matrices.
 Large coefficients: NSaved=  3 BigCof=   10.97 CofMax=   10.00 Det=-1.57D-06
 Inversion failed.  Reducing to  2 matrices.
 Coeff-Com: -0.274D+01 0.374D+01
 Coeff:     -0.274D+01 0.374D+01
 Gap=     0.191 Goal=   None    Shift=    0.500
 T=  782. Gap= 0.691 NK=0 IS=   19 IE=   57 IFin=   18
          NO(<0.9)=   0  NV(>0.1)=   0     18.00e < EF      0.00e >EF  Err=0.0D+00
 Gap=     0.030 Goal=   None    Shift=    0.500
 T=  782. Gap= 0.530 NK=0 IS=   18 IE=   57 IFin=   17
          NO(<0.9)=   0  NV(>0.1)=   0     17.00e < EF      0.00e >EF  Err=0.0D+00
 GapD=    0.030 DampG=0.250 DampE=1.000 DampFc=0.2500 IDamp=-1.
 Damping current iteration by 2.50D-01
 RMSDP=1.61D-03 MaxDP=1.78D-02 DE=-4.85D-03 OVMax= 1.60D-02

 Cycle   9  Pass 1  IDiag  1:
 E= -186.544549050357     Delta-E=       -0.003501439506 Rises=F Damp=T
 DIIS: error= 5.81D-03 at cycle   9 NSaved=   3.
 NSaved= 3 IEnMin= 3 EnMin= -186.544549050357     IErMin= 3 ErrMin= 5.81D-03
 ErrMax= 5.81D-03  0.00D+00 EMaxC= 1.00D+00 BMatC= 4.28D-03 BMatP= 7.46D-03
 IDIUse=1 WtCom= 1.00D+00 WtEn= 0.00D+00
 Coeff-Com:  0.268D+01-0.954D+01 0.786D+01
 Coeff:      0.268D+01-0.954D+01 0.786D+01
 Gap=     0.187 Goal=   None    Shift=    0.500
 T=  600. Gap= 0.687 NK=0 IS=   19 IE=   57 IFin=   18
          NO(<0.9)=   0  NV(>0.1)=   0     18.00e < EF      0.00e >EF  Err=0.0D+00
 Gap=     0.032 Goal=   None    Shift=    0.500
 T=  600. Gap= 0.532 NK=0 IS=   18 IE=   57 IFin=   17
          NO(<0.9)=   0  NV(>0.1)=   0     17.00e < EF      0.00e >EF  Err=0.0D+00
 GapD=    0.032 DampG=0.250 DampE=1.000 DampFc=0.2500 IDamp=-1.
 Damping current iteration by 2.50D-01
 RMSDP=1.35D-03 MaxDP=1.22D-02 DE=-3.50D-03 OVMax= 8.52D-03

 Cycle  10  Pass 1  IDiag  1:
 E= -186.547162749962     Delta-E=       -0.002613699605 Rises=F Damp=T
 DIIS: error= 4.51D-03 at cycle  10 NSaved=   4.
 NSaved= 4 IEnMin= 4 EnMin= -186.547162749962     IErMin= 4 ErrMin= 4.51D-03
 ErrMax= 4.51D-03  0.00D+00 EMaxC= 1.00D+00 BMatC= 2.40D-03 BMatP= 4.28D-03
 IDIUse=1 WtCom= 1.00D+00 WtEn= 0.00D+00
 Coeff-Com:  0.355D+01-0.931D+01 0.373D+01 0.303D+01
 Coeff:      0.355D+01-0.931D+01 0.373D+01 0.303D+01
 Gap=     0.187 Goal=   None    Shift=    0.500
 T=  300. Gap= 0.687 NK=0 IS=   19 IE=   57 IFin=   18
          NO(<0.9)=   0  NV(>0.1)=   0     18.00e < EF      0.00e >EF  Err=0.0D+00
 Gap=     0.032 Goal=   None    Shift=    0.500
 T=  300. Gap= 0.532 NK=0 IS=   18 IE=   57 IFin=   17
          NO(<0.9)=   0  NV(>0.1)=   0     17.00e < EF      0.00e >EF  Err=0.0D+00
 GapD=    0.032 DampG=0.250 DampE=1.000 DampFc=0.2500 IDamp=-1.
 Damping current iteration by 2.50D-01
 RMSDP=1.13D-03 MaxDP=1.09D-02 DE=-2.61D-03 OVMax= 7.48D-03

 Cycle  11  Pass 1  IDiag  1:
 E= -186.549109870293     Delta-E=       -0.001947120331 Rises=F Damp=T
 DIIS: error= 3.46D-03 at cycle  11 NSaved=   5.
 NSaved= 5 IEnMin= 5 EnMin= -186.549109870293     IErMin= 5 ErrMin= 3.46D-03
 ErrMax= 3.46D-03  0.00D+00 EMaxC= 1.00D+00 BMatC= 1.33D-03 BMatP= 2.40D-03
 IDIUse=1 WtCom= 1.00D+00 WtEn= 0.00D+00
 Large coefficients: NSaved=  5 BigCof=   15.56 CofMax=   10.00 Det=-1.15D-07
 Inversion failed.  Reducing to  4 matrices.
 Large coefficients: NSaved=  4 BigCof=   22.28 CofMax=   10.00 Det=-1.56D-07
 Inversion failed.  Reducing to  3 matrices.
 Large coefficients: NSaved=  3 BigCof=   22.43 CofMax=   10.00 Det=-1.56D-07
 Inversion failed.  Reducing to  2 matrices.
 Coeff-Com: -0.268D+01 0.368D+01
 Coeff:     -0.268D+01 0.368D+01
 Gap=     0.190 Goal=   None    Shift=    0.500
 Gap=     0.031 Goal=   None    Shift=    0.500
 GapD=    0.031 DampG=0.250 DampE=1.000 DampFc=0.2500 IDamp=-1.
 Damping current iteration by 2.50D-01
 RMSDP=8.47D-04 MaxDP=8.50D-03 DE=-1.95D-03 OVMax= 8.56D-03

 Cycle  12  Pass 1  IDiag  1:
 E= -186.550560075206     Delta-E=       -0.001450204913 Rises=F Damp=T
 DIIS: error= 2.95D-03 at cycle  12 NSaved=   3.
 NSaved= 3 IEnMin= 3 EnMin= -186.550560075206     IErMin= 3 ErrMin= 2.95D-03
 ErrMax= 2.95D-03  0.00D+00 EMaxC= 1.00D+00 BMatC= 7.85D-04 BMatP= 1.33D-03
 IDIUse=1 WtCom= 1.00D+00 WtEn= 0.00D+00
 Coeff-Com: -0.983D+00-0.712D+00 0.269D+01
 Coeff:     -0.983D+00-0.712D+00 0.269D+01
 Gap=     0.188 Goal=   None    Shift=    0.500
 Gap=     0.032 Goal=   None    Shift=    0.500
 GapD=    0.032 DampG=0.250 DampE=1.000 DampFc=0.2500 IDamp=-1.
 Damping current iteration by 2.50D-01
 RMSDP=6.81D-04 MaxDP=7.00D-03 DE=-1.45D-03 OVMax= 4.81D-03

 Cycle  13  Pass 1  IDiag  1:
 E= -186.551651526325     Delta-E=       -0.001091451119 Rises=F Damp=T
 DIIS: error= 2.54D-03 at cycle  13 NSaved=   4.
 NSaved= 4 IEnMin= 4 EnMin= -186.551651526325     IErMin= 4 ErrMin= 2.54D-03
 ErrMax= 2.54D-03  0.00D+00 EMaxC= 1.00D+00 BMatC= 4.80D-04 BMatP= 7.85D-04
 IDIUse=1 WtCom= 1.00D+00 WtEn= 0.00D+00
 Large coefficients: NSaved=  4 BigCof=   11.62 CofMax=   10.00 Det=-1.62D-07
 Inversion failed.  Reducing to  3 matrices.
 Large coefficients: NSaved=  3 BigCof=   11.89 CofMax=   10.00 Det=-2.08D-07
 Inversion failed.  Reducing to  2 matrices.
 Coeff-Com: -0.338D+01 0.438D+01
 Coeff:     -0.338D+01 0.438D+01
 Gap=     0.187 Goal=   None    Shift=    0.500
 Gap=     0.032 Goal=   None    Shift=    0.500
 GapD=    0.032 DampG=0.250 DampE=1.000 DampFc=0.2500 IDamp=-1.
 Damping current iteration by 2.50D-01
 RMSDP=5.87D-04 MaxDP=6.12D-03 DE=-1.09D-03 OVMax= 3.69D-03

 Cycle  14  Pass 1  IDiag  1:
 E= -186.552477141713     Delta-E=       -0.000825615388 Rises=F Damp=T
 DIIS: error= 2.08D-03 at cycle  14 NSaved=   3.
 NSaved= 3 IEnMin= 3 EnMin= -186.552477141713     IErMin= 3 ErrMin= 2.08D-03
 ErrMax= 2.08D-03  0.00D+00 EMaxC= 1.00D+00 BMatC= 2.86D-04 BMatP= 4.80D-04
 IDIUse=1 WtCom= 1.00D+00 WtEn= 0.00D+00
 Coeff-Com: -0.848D+00-0.135D+01 0.320D+01
 Coeff:     -0.848D+00-0.135D+01 0.320D+01
 Gap=     0.188 Goal=   None    Shift=    0.500
 Gap=     0.032 Goal=   None    Shift=    0.500
 GapD=    0.032 DampG=0.250 DampE=1.000 DampFc=0.2500 IDamp=-1.
 Damping current iteration by 2.50D-01
 RMSDP=4.79D-04 MaxDP=5.09D-03 DE=-8.26D-04 OVMax= 3.07D-03

 Cycle  15  Pass 1  IDiag  1:
 E= -186.553100457652     Delta-E=       -0.000623315939 Rises=F Damp=T
 DIIS: error= 1.74D-03 at cycle  15 NSaved=   4.
 NSaved= 4 IEnMin= 4 EnMin= -186.553100457652     IErMin= 4 ErrMin= 1.74D-03
 ErrMax= 1.74D-03  0.00D+00 EMaxC= 1.00D+00 BMatC= 1.75D-04 BMatP= 2.86D-04
 IDIUse=1 WtCom= 1.00D+00 WtEn= 0.00D+00
 Large coefficients: NSaved=  4 BigCof=   13.69 CofMax=   10.00 Det=-5.00D-08
 Inversion failed.  Reducing to  3 matrices.
 Coeff-Com:  0.900D+00-0.553D+01 0.563D+01
 Coeff:      0.900D+00-0.553D+01 0.563D+01
 Gap=     0.187 Goal=   None    Shift=    0.500
 Gap=     0.032 Goal=   None    Shift=    0.500
 GapD=    0.032 DampG=0.250 DampE=1.000 DampFc=0.2500 IDamp=-1.
 Damping current iteration by 2.50D-01
 RMSDP=4.03D-04 MaxDP=4.39D-03 DE=-6.23D-04 OVMax= 2.33D-03

 Cycle  16  Pass 1  IDiag  1:
 E= -186.553571578141     Delta-E=       -0.000471120489 Rises=F Damp=T
 DIIS: error= 1.43D-03 at cycle  16 NSaved=   4.
 NSaved= 4 IEnMin= 4 EnMin= -186.553571578141     IErMin= 4 ErrMin= 1.43D-03
 ErrMax= 1.43D-03  0.00D+00 EMaxC= 1.00D+00 BMatC= 1.07D-04 BMatP= 1.75D-04
 IDIUse=1 WtCom= 1.00D+00 WtEn= 0.00D+00
 Large coefficients: NSaved=  4 BigCof=   11.00 CofMax=   10.00 Det=-2.89D-08
 Inversion failed.  Reducing to  3 matrices.
 Coeff-Com:  0.176D+00-0.378D+01 0.461D+01
 Coeff:      0.176D+00-0.378D+01 0.461D+01
 Gap=     0.187 Goal=   None    Shift=    0.500
 Gap=     0.032 Goal=   None    Shift=    0.500
 GapD=    0.032 DampG=0.250 DampE=1.000 DampFc=0.2500 IDamp=-1.
 Damping current iteration by 2.50D-01
 RMSDP=3.28D-04 MaxDP=3.95D-03 DE=-4.71D-04 OVMax= 2.09D-03

 Cycle  17  Pass 1  IDiag  1:
 E= -186.553927686569     Delta-E=       -0.000356108427 Rises=F Damp=T
 DIIS: error= 1.20D-03 at cycle  17 NSaved=   4.
 NSaved= 4 IEnMin= 4 EnMin= -186.553927686569     IErMin= 4 ErrMin= 1.20D-03
 ErrMax= 1.20D-03  0.00D+00 EMaxC= 1.00D+00 BMatC= 6.64D-05 BMatP= 1.07D-04
 IDIUse=1 WtCom= 1.00D+00 WtEn= 0.00D+00
 Large coefficients: NSaved=  4 BigCof=   11.06 CofMax=   10.00 Det=-2.64D-08
 Inversion failed.  Reducing to  3 matrices.
 Coeff-Com: -0.730D+00-0.188D+01 0.361D+01
 Coeff:     -0.730D+00-0.188D+01 0.361D+01
 Gap=     0.187 Goal=   None    Shift=    0.500
 Gap=     0.032 Goal=   None    Shift=    0.500
 GapD=    0.032 DampG=0.250 DampE=1.000 DampFc=0.2500 IDamp=-1.
 Damping current iteration by 2.50D-01
 RMSDP=2.74D-04 MaxDP=3.31D-03 DE=-3.56D-04 OVMax= 1.49D-03

 Cycle  18  Pass 1  IDiag  1:
 E= -186.554196857224     Delta-E=       -0.000269170655 Rises=F Damp=T
 DIIS: error= 9.89D-04 at cycle  18 NSaved=   4.
 NSaved= 4 IEnMin= 4 EnMin= -186.554196857224     IErMin= 4 ErrMin= 9.89D-04
 ErrMax= 9.89D-04  0.00D+00 EMaxC= 1.00D+00 BMatC= 4.13D-05 BMatP= 6.64D-05
 IDIUse=1 WtCom= 1.00D+00 WtEn= 0.00D+00
 Large coefficients: NSaved=  4 BigCof=   11.52 CofMax=   10.00 Det=-1.34D-08
 Inversion failed.  Reducing to  3 matrices.
 Coeff-Com:  0.422D+00-0.455D+01 0.513D+01
 Coeff:      0.422D+00-0.455D+01 0.513D+01
 Gap=     0.187 Goal=   None    Shift=    0.500
 Gap=     0.032 Goal=   None    Shift=    0.500
 RMSDP=2.27D-04 MaxDP=2.86D-03 DE=-2.69D-04 OVMax= 1.22D-03

 Cycle  19  Pass 1  IDiag  1:
 E= -186.555018790158     Delta-E=       -0.000821932934 Rises=F Damp=F
 DIIS: error= 3.08D-04 at cycle  19 NSaved=   4.
 NSaved= 4 IEnMin= 4 EnMin= -186.555018790158     IErMin= 4 ErrMin= 3.08D-04
 ErrMax= 3.08D-04  0.00D+00 EMaxC= 1.00D+00 BMatC= 1.74D-06 BMatP= 4.13D-05
 IDIUse=1 WtCom= 1.00D+00 WtEn= 0.00D+00
 Coeff-Com:  0.328D+01-0.178D+01-0.347D+01 0.297D+01
 Coeff:      0.328D+01-0.178D+01-0.347D+01 0.297D+01
 Gap=     0.187 Goal=   None    Shift=    0.500
 Gap=     0.032 Goal=   None    Shift=    0.500
 RMSDP=2.86D-05 MaxDP=4.36D-04 DE=-8.22D-04 OVMax= 1.23D-03

 Cycle  20  Pass 1  IDiag  1:
 E= -186.555021402302     Delta-E=       -0.000002612145 Rises=F Damp=F
 DIIS: error= 2.30D-04 at cycle  20 NSaved=   5.
 NSaved= 5 IEnMin= 5 EnMin= -186.555021402302     IErMin= 5 ErrMin= 2.30D-04
 ErrMax= 2.30D-04  0.00D+00 EMaxC= 1.00D+00 BMatC= 9.01D-07 BMatP= 1.74D-06
 IDIUse=1 WtCom= 1.00D+00 WtEn= 0.00D+00
 Coeff-Com:  0.391D+01-0.321D+01-0.272D+01 0.342D+01-0.406D+00
 Coeff:      0.391D+01-0.321D+01-0.272D+01 0.342D+01-0.406D+00
 Gap=     0.187 Goal=   None    Shift=    0.500
 Gap=     0.032 Goal=   None    Shift=    0.500
 RMSDP=1.87D-05 MaxDP=2.78D-04 DE=-2.61D-06 OVMax= 8.86D-04

 Cycle  21  Pass 1  IDiag  1:
 E= -186.555022699575     Delta-E=       -0.000001297272 Rises=F Damp=F
 DIIS: error= 2.07D-04 at cycle  21 NSaved=   6.
 NSaved= 6 IEnMin= 6 EnMin= -186.555022699575     IErMin= 6 ErrMin= 2.07D-04
 ErrMax= 2.07D-04  0.00D+00 EMaxC= 1.00D+00 BMatC= 7.18D-07 BMatP= 9.01D-07
 IDIUse=1 WtCom= 1.00D+00 WtEn= 0.00D+00
 Coeff-Com:  0.285D+01-0.174D+01-0.276D+01 0.339D+01-0.261D+01 0.187D+01
 Coeff:      0.285D+01-0.174D+01-0.276D+01 0.339D+01-0.261D+01 0.187D+01
 Gap=     0.187 Goal=   None    Shift=    0.500
 Gap=     0.032 Goal=   None    Shift=    0.500
 RMSDP=1.22D-05 MaxDP=1.67D-04 DE=-1.30D-06 OVMax= 5.91D-04

 Cycle  22  Pass 1  IDiag  1:
 E= -186.555023434879     Delta-E=       -0.000000735304 Rises=F Damp=F
 DIIS: error= 1.67D-04 at cycle  22 NSaved=   7.
 NSaved= 7 IEnMin= 7 EnMin= -186.555023434879     IErMin= 7 ErrMin= 1.67D-04
 ErrMax= 1.67D-04  0.00D+00 EMaxC= 1.00D+00 BMatC= 4.69D-07 BMatP= 7.18D-07
 IDIUse=1 WtCom= 1.00D+00 WtEn= 0.00D+00
 Coeff-Com:  0.186D+01-0.102D+01-0.196D+01 0.235D+01-0.166D+01-0.968D-01
 Coeff-Com:  0.152D+01
 Coeff:      0.186D+01-0.102D+01-0.196D+01 0.235D+01-0.166D+01-0.968D-01
 Coeff:      0.152D+01
 Gap=     0.187 Goal=   None    Shift=    0.500
 Gap=     0.032 Goal=   None    Shift=    0.500
 RMSDP=8.63D-06 MaxDP=1.17D-04 DE=-7.35D-07 OVMax= 4.58D-04

 Cycle  23  Pass 1  IDiag  1:
 E= -186.555023849785     Delta-E=       -0.000000414906 Rises=F Damp=F
 DIIS: error= 1.30D-04 at cycle  23 NSaved=   8.
 NSaved= 8 IEnMin= 8 EnMin= -186.555023849785     IErMin= 8 ErrMin= 1.30D-04
 ErrMax= 1.30D-04  0.00D+00 EMaxC= 1.00D+00 BMatC= 2.77D-07 BMatP= 4.69D-07
 IDIUse=1 WtCom= 1.00D+00 WtEn= 0.00D+00
 Coeff-Com:  0.599D+00-0.637D+00-0.229D+00 0.426D+00 0.601D+00-0.169D+01
 Coeff-Com: -0.742D+00 0.268D+01
 Coeff:      0.599D+00-0.637D+00-0.229D+00 0.426D+00 0.601D+00-0.169D+01
 Coeff:     -0.742D+00 0.268D+01
 Gap=     0.187 Goal=   None    Shift=    0.500
 Gap=     0.032 Goal=   None    Shift=    0.500
 RMSDP=6.27D-06 MaxDP=8.56D-05 DE=-4.15D-07 OVMax= 3.45D-04

 Cycle  24  Pass 1  IDiag  1:
 E= -186.555024074925     Delta-E=       -0.000000225140 Rises=F Damp=F
 DIIS: error= 1.03D-04 at cycle  24 NSaved=   9.
 NSaved= 9 IEnMin= 9 EnMin= -186.555024074925     IErMin= 9 ErrMin= 1.03D-04
 ErrMax= 1.03D-04  0.00D+00 EMaxC= 1.00D+00 BMatC= 1.71D-07 BMatP= 2.77D-07
 IDIUse=1 WtCom= 1.00D+00 WtEn= 0.00D+00
 Coeff-Com:  0.320D+00-0.741D+00 0.408D+00-0.629D-01 0.861D+00-0.520D+00
 Coeff-Com: -0.248D+01 0.110D+01 0.212D+01
 Coeff:      0.320D+00-0.741D+00 0.408D+00-0.629D-01 0.861D+00-0.520D+00
 Coeff:     -0.248D+01 0.110D+01 0.212D+01
 Gap=     0.187 Goal=   None    Shift=    0.500
 Gap=     0.032 Goal=   None    Shift=    0.500
 RMSDP=4.48D-06 MaxDP=5.86D-05 DE=-2.25D-07 OVMax= 2.61D-04

 Cycle  25  Pass 1  IDiag  1:
 E= -186.555024198583     Delta-E=       -0.000000123658 Rises=F Damp=F
 DIIS: error= 8.13D-05 at cycle  25 NSaved=  10.
 NSaved=10 IEnMin=10 EnMin= -186.555024198583     IErMin=10 ErrMin= 8.13D-05
 ErrMax= 8.13D-05  0.00D+00 EMaxC= 1.00D+00 BMatC= 1.08D-07 BMatP= 1.71D-07
 IDIUse=1 WtCom= 1.00D+00 WtEn= 0.00D+00
 Coeff-Com:  0.325D+00-0.331D+00-0.145D+00 0.178D+00 0.404D+00 0.284D+00
 Coeff-Com: -0.175D+01 0.156D+00-0.516D+00 0.239D+01
 Coeff:      0.325D+00-0.331D+00-0.145D+00 0.178D+00 0.404D+00 0.284D+00
 Coeff:     -0.175D+01 0.156D+00-0.516D+00 0.239D+01
 Gap=     0.187 Goal=   None    Shift=    0.500
 Gap=     0.032 Goal=   None    Shift=    0.500
 RMSDP=3.18D-06 MaxDP=4.33D-05 DE=-1.24D-07 OVMax= 2.00D-04

 Cycle  26  Pass 1  IDiag  1:
 E= -186.555024268366     Delta-E=       -0.000000069783 Rises=F Damp=F
 DIIS: error= 6.37D-05 at cycle  26 NSaved=  11.
 NSaved=11 IEnMin=11 EnMin= -186.555024268366     IErMin=11 ErrMin= 6.37D-05
 ErrMax= 6.37D-05  0.00D+00 EMaxC= 1.00D+00 BMatC= 6.76D-08 BMatP= 1.08D-07
 IDIUse=1 WtCom= 1.00D+00 WtEn= 0.00D+00
 Coeff-Com:  0.418D+00-0.108D+00-0.603D+00 0.485D+00-0.100D+00 0.239D+00
 Coeff-Com:  0.132D+00-0.731D-01-0.110D+01-0.254D+01 0.426D+01
 Coeff:      0.418D+00-0.108D+00-0.603D+00 0.485D+00-0.100D+00 0.239D+00
 Coeff:      0.132D+00-0.731D-01-0.110D+01-0.254D+01 0.426D+01
 Gap=     0.187 Goal=   None    Shift=    0.500
 Gap=     0.032 Goal=   None    Shift=    0.500
 RMSDP=2.31D-06 MaxDP=3.06D-05 DE=-6.98D-08 OVMax= 1.50D-04

 Cycle  27  Pass 1  IDiag  1:
 E= -186.555024306955     Delta-E=       -0.000000038590 Rises=F Damp=F
 DIIS: error= 5.05D-05 at cycle  27 NSaved=  12.
 NSaved=12 IEnMin=12 EnMin= -186.555024306955     IErMin=12 ErrMin= 5.05D-05
 ErrMax= 5.05D-05  0.00D+00 EMaxC= 1.00D+00 BMatC= 4.38D-08 BMatP= 6.76D-08
 IDIUse=1 WtCom= 1.00D+00 WtEn= 0.00D+00
 Coeff-Com:  0.241D+00-0.446D-01-0.372D+00 0.261D+00 0.104D+00-0.401D+00
 Coeff-Com:  0.662D+00 0.341D+00 0.277D+00-0.419D+01 0.685D+00 0.344D+01
 Coeff:      0.241D+00-0.446D-01-0.372D+00 0.261D+00 0.104D+00-0.401D+00
 Coeff:      0.662D+00 0.341D+00 0.277D+00-0.419D+01 0.685D+00 0.344D+01
 Gap=     0.187 Goal=   None    Shift=    0.500
 Gap=     0.032 Goal=   None    Shift=    0.500
 RMSDP=1.66D-06 MaxDP=2.30D-05 DE=-3.86D-08 OVMax= 1.16D-04

 Cycle  28  Pass 1  IDiag  1:
 E= -186.555024329347     Delta-E=       -0.000000022392 Rises=F Damp=F
 DIIS: error= 3.97D-05 at cycle  28 NSaved=  13.
 NSaved=13 IEnMin=13 EnMin= -186.555024329347     IErMin=13 ErrMin= 3.97D-05
 ErrMax= 3.97D-05  0.00D+00 EMaxC= 1.00D+00 BMatC= 2.78D-08 BMatP= 4.38D-08
 IDIUse=1 WtCom= 1.00D+00 WtEn= 0.00D+00
 Coeff-Com:  0.143D+00-0.814D-01-0.149D+00 0.120D+00 0.129D+00-0.217D+00
 Coeff-Com:  0.116D+00 0.312D+00 0.171D+00-0.138D+01 0.471D+00-0.281D+01
 Coeff-Com:  0.417D+01
 Coeff:      0.143D+00-0.814D-01-0.149D+00 0.120D+00 0.129D+00-0.217D+00
 Coeff:      0.116D+00 0.312D+00 0.171D+00-0.138D+01 0.471D+00-0.281D+01
 Coeff:      0.417D+01
 Gap=     0.187 Goal=   None    Shift=    0.500
 Gap=     0.032 Goal=   None    Shift=    0.500
 RMSDP=1.20D-06 MaxDP=1.73D-05 DE=-2.24D-08 OVMax= 8.87D-05

 Cycle  29  Pass 1  IDiag  1:
 E= -186.555024342409     Delta-E=       -0.000000013062 Rises=F Damp=F
 DIIS: error= 3.10D-05 at cycle  29 NSaved=  14.
 NSaved=14 IEnMin=14 EnMin= -186.555024342409     IErMin=14 ErrMin= 3.10D-05
 ErrMax= 3.10D-05  0.00D+00 EMaxC= 1.00D+00 BMatC= 1.73D-08 BMatP= 2.78D-08
 IDIUse=1 WtCom= 1.00D+00 WtEn= 0.00D+00
 Coeff-Com:  0.599D-01-0.234D-01-0.761D-01 0.584D-01 0.702D-02 0.129D+00
 Coeff-Com: -0.131D+00-0.111D+00-0.207D+00 0.532D+00 0.746D+00-0.110D+01
 Coeff-Com: -0.456D+01 0.568D+01
 Coeff:      0.599D-01-0.234D-01-0.761D-01 0.584D-01 0.702D-02 0.129D+00
 Coeff:     -0.131D+00-0.111D+00-0.207D+00 0.532D+00 0.746D+00-0.110D+01
 Coeff:     -0.456D+01 0.568D+01
 Gap=     0.187 Goal=   None    Shift=    0.500
 Gap=     0.032 Goal=   None    Shift=    0.500
 RMSDP=8.75D-07 MaxDP=1.30D-05 DE=-1.31D-08 OVMax= 6.78D-05

 SCF Done:  E(ULC-wHPBE) =  -186.555024342     A.U. after   29 cycles
            NFock= 29  Conv=0.88D-06     -V/T= 1.9716
 <Sx>= 0.0000 <Sy>= 0.0000 <Sz>= 0.5000 <S**2>= 0.7573 S= 0.5036
 <L.S>= 0.000000000000E+00
 KE= 1.920110110848D+02 PE=-7.503201971157D+02 EE= 2.157414192025D+02
 Annihilation of the first spin contaminant:
 S**2 before annihilation     0.7573,   after     0.7500
 Leave Link  502 at Thu Mar  5 12:53:01 2020, MaxMem=  6710886400 cpu:              48.5 elap:               3.4
 (Enter /opt/ohpc/pub/libs/gaussian/g16-A.03/sandybridge/g16/l508.exe)
 QCSCF skips out because SCF is already converged.
 Leave Link  508 at Thu Mar  5 12:53:01 2020, MaxMem=  6710886400 cpu:               0.1 elap:               0.0
 (Enter /opt/ohpc/pub/libs/gaussian/g16-A.03/sandybridge/g16/l601.exe)
 Copying SCF densities to generalized density rwf, IOpCl= 1 IROHF=0.

 **********************************************************************

            Population analysis using the SCF density.

 **********************************************************************

 Orbital symmetries:
 Alpha Orbitals:
       Occupied  (B2) (A1) (A1) (A1) (B2) (A1) (A1) (B2) (A1) (B2)
                 (A1) (B2) (A1) (A1) (B1) (B2) (A2) (B1)
       Virtual   (B2) (A2) (A1) (B1) (A1) (B2) (A1) (B2) (A1) (A1)
                 (B2) (A1) (B2) (B1) (B2) (B1) (A2) (A1) (A1) (B2)
                 (A1) (A2) (B1) (B2) (B2) (A1) (A1) (B2) (A1) (B2)
                 (A1) (A1) (A1) (B2) (A1) (B2) (A1) (A1) (B2)
 Beta  Orbitals:
       Occupied  (B2) (A1) (A1) (B2) (A1) (A1) (A1) (B2) (A1) (B2)
                 (A1) (B2) (A1) (A1) (B2) (B1) (A2)
       Virtual   (B1) (B2) (A2) (A1) (B1) (A1) (B2) (A1) (B2) (A1)
                 (A1) (B2) (A1) (B2) (B2) (B1) (A2) (B1) (A1) (A1)
                 (B2) (A1) (A2) (B1) (B2) (B2) (A1) (A1) (B2) (A1)
                 (B2) (A1) (A1) (A1) (B2) (A1) (B2) (A1) (A1) (B2)
 The electronic state is 2-B1.
 Alpha  occ. eigenvalues --  -10.01087 -10.01080  -9.96346  -9.95269  -9.95268
 Alpha  occ. eigenvalues --   -0.88978  -0.76795  -0.72011  -0.59824  -0.57477
 Alpha  occ. eigenvalues --   -0.53676  -0.44709  -0.42904  -0.41220  -0.40472
 Alpha  occ. eigenvalues --   -0.39142  -0.27877  -0.26753
 Alpha virt. eigenvalues --   -0.08070  -0.07408  -0.02253  -0.01889   0.02012
 Alpha virt. eigenvalues --    0.06949   0.08606   0.10813   0.11171   0.21997
 Alpha virt. eigenvalues --    0.22562   0.32577   0.33517   0.40725   0.41720
 Alpha virt. eigenvalues --    0.48248   0.48816   0.50079   0.52364   0.53008
 Alpha virt. eigenvalues --    0.53466   0.55526   0.57083   0.66224   0.71768
 Alpha virt. eigenvalues --    0.74015   0.75693   0.77823   0.78023   0.84310
 Alpha virt. eigenvalues --    0.84675   0.88811   0.93307   0.99497   1.07680
 Alpha virt. eigenvalues --    1.08956   1.14758   1.35969   1.37505
  Beta  occ. eigenvalues --  -10.00683 -10.00676  -9.95648  -9.95347  -9.95347
  Beta  occ. eigenvalues --   -0.88097  -0.75721  -0.71604  -0.59060  -0.56890
  Beta  occ. eigenvalues --   -0.53364  -0.44365  -0.42619  -0.40703  -0.38907
  Beta  occ. eigenvalues --   -0.38757  -0.26848
  Beta virt. eigenvalues --   -0.23611  -0.07121  -0.05980  -0.02016   0.00036
  Beta virt. eigenvalues --    0.02293   0.07162   0.08863   0.10905   0.11615
  Beta virt. eigenvalues --    0.22413   0.22937   0.32978   0.33885   0.42042
  Beta virt. eigenvalues --    0.42350   0.49729   0.50230   0.50472   0.52827
  Beta virt. eigenvalues --    0.53549   0.54209   0.56248   0.58451   0.66624
  Beta virt. eigenvalues --    0.72172   0.74708   0.76159   0.77828   0.78436
  Beta virt. eigenvalues --    0.84709   0.85064   0.89489   0.93780   0.99747
  Beta virt. eigenvalues --    1.08198   1.09369   1.15593   1.36729   1.38247
          Condensed to atoms (all electrons):
               1          2          3          4          5          6
     1  C    5.341834   0.503717  -0.042889  -0.136196   0.182084   0.155437
     2  C    0.503717   4.892618   0.501170  -0.031339  -0.136196  -0.016988
     3  C   -0.042889   0.501170   4.757179   0.501170  -0.042889   0.004008
     4  C   -0.136196  -0.031339   0.501170   4.892618   0.503717  -0.016988
     5  C    0.182084  -0.136196  -0.042889   0.503717   5.341834   0.155437
     6  H    0.155437  -0.016988   0.004008  -0.016988   0.155437   0.385726
     7  H    0.329117  -0.001608   0.001819   0.004319  -0.026300  -0.003938
     8  H   -0.032706   0.356640  -0.018149   0.005902   0.002729   0.001054
     9  H    0.008372  -0.039637   0.366380  -0.039637   0.008372  -0.000223
    10  H    0.002729   0.005902  -0.018149   0.356640  -0.032706   0.001054
    11  H   -0.026300   0.004319   0.001819  -0.001608   0.329117  -0.003938
               7          8          9         10         11
     1  C    0.329117  -0.032706   0.008372   0.002729  -0.026300
     2  C   -0.001608   0.356640  -0.039637   0.005902   0.004319
     3  C    0.001819  -0.018149   0.366380  -0.018149   0.001819
     4  C    0.004319   0.005902  -0.039637   0.356640  -0.001608
     5  C   -0.026300   0.002729   0.008372  -0.032706   0.329117
     6  H   -0.003938   0.001054  -0.000223   0.001054  -0.003938
     7  H    0.398349  -0.001332  -0.000092  -0.000051   0.000634
     8  H   -0.001332   0.443737  -0.003217  -0.000188  -0.000051
     9  H   -0.000092  -0.003217   0.472609  -0.003217  -0.000092
    10  H   -0.000051  -0.000188  -0.003217   0.443737  -0.001332
    11  H    0.000634  -0.000051  -0.000092  -0.001332   0.398349
          Atomic-Atomic Spin Densities.
               1          2          3          4          5          6
     1  C    0.368094  -0.041188  -0.025147  -0.009547   0.045858  -0.001929
     2  C   -0.041188  -0.062376   0.030618   0.000051  -0.009547   0.000091
     3  C   -0.025147   0.030618   0.540870   0.030618  -0.025147   0.000293
     4  C   -0.009547   0.000051   0.030618  -0.062376  -0.041188   0.000091
     5  C    0.045858  -0.009547  -0.025147  -0.041188   0.368094  -0.001929
     6  H   -0.001929   0.000091   0.000293   0.000091  -0.001929  -0.009847
     7  H   -0.000646  -0.000187   0.000043  -0.000053   0.000428  -0.000361
     8  H   -0.000266   0.001713  -0.001090  -0.000048   0.000008  -0.000002
     9  H   -0.000058  -0.000077   0.000974  -0.000077  -0.000058   0.000002
    10  H    0.000008  -0.000048  -0.001090   0.001713  -0.000266  -0.000002
    11  H    0.000428  -0.000053   0.000043  -0.000187  -0.000646  -0.000361
               7          8          9         10         11
     1  C   -0.000646  -0.000266  -0.000058   0.000008   0.000428
     2  C   -0.000187   0.001713  -0.000077  -0.000048  -0.000053
     3  C    0.000043  -0.001090   0.000974  -0.001090   0.000043
     4  C   -0.000053  -0.000048  -0.000077   0.001713  -0.000187
     5  C    0.000428   0.000008  -0.000058  -0.000266  -0.000646
     6  H   -0.000361  -0.000002   0.000002  -0.000002  -0.000361
     7  H   -0.012804   0.000118   0.000005   0.000000  -0.000056
     8  H    0.000118   0.000076   0.000055   0.000002   0.000000
     9  H    0.000005   0.000055  -0.021173   0.000055   0.000005
    10  H    0.000000   0.000002   0.000055   0.000076   0.000118
    11  H   -0.000056   0.000000   0.000005   0.000118  -0.012804
 Mulliken charges and spin densities:
               1          2
     1  C   -0.285201   0.335608
     2  C   -0.038598  -0.081003
     3  C   -0.011469   0.550985
     4  C   -0.038598  -0.081003
     5  C   -0.285201   0.335608
     6  H    0.339358  -0.013954
     7  H    0.299083  -0.013514
     8  H    0.245581   0.000566
     9  H    0.230380  -0.020348
    10  H    0.245581   0.000566
    11  H    0.299083  -0.013514
 Sum of Mulliken charges =   1.00000   1.00000
 Mulliken charges and spin densities with hydrogens summed into heavy atoms:
               1          2
     1  C    0.353240   0.308141
     2  C    0.206983  -0.080436
     3  C    0.218911   0.530637
     4  C    0.206983  -0.080436
     5  C    0.013882   0.322095
 Electronic spatial extent (au):  <R**2>=            321.9292
 Charge=              1.0000 electrons
 Dipole moment (field-independent basis, Debye):
    X=             -0.0000    Y=             -0.0000    Z=             -1.9886  Tot=              1.9886
 Quadrupole moment (field-independent basis, Debye-Ang):
   XX=            -32.4560   YY=            -18.9144   ZZ=            -14.7060
   XY=              0.0000   XZ=              0.0000   YZ=             -0.0000
 Traceless Quadrupole moment (field-independent basis, Debye-Ang):
   XX=            -10.4305   YY=              3.1111   ZZ=              7.3195
   XY=              0.0000   XZ=              0.0000   YZ=             -0.0000
 Octapole moment (field-independent basis, Debye-Ang**2):
  XXX=              0.0000  YYY=              0.0000  ZZZ=             -7.2934  XYY=             -0.0000
  XXY=             -0.0000  XXZ=              0.7096  XZZ=              0.0000  YZZ=             -0.0000
  YYZ=             -2.9334  XYZ=             -0.0000
 Hexadecapole moment (field-independent basis, Debye-Ang**3):
 XXXX=            -33.5870 YYYY=           -159.1049 ZZZZ=           -139.9124 XXXY=             -0.0000
 XXXZ=             -0.0000 YYYX=             -0.0000 YYYZ=             -0.0000 ZZZX=              0.0000
 ZZZY=             -0.0000 XXYY=            -44.5084 XXZZ=            -40.9642 YYZZ=            -47.2636
 XXYZ=             -0.0000 YYXZ=             -0.0000 ZZXY=             -0.0000
 N-N= 1.560127424860D+02 E-N=-7.503202218629D+02  KE= 1.920110110848D+02
 Symmetry A1   KE= 1.111328503083D+02
 Symmetry A2   KE= 2.418387567989D+00
 Symmetry B1   KE= 3.069967689973D+00
 Symmetry B2   KE= 7.538980551857D+01
 Symmetry A1   SP= 5.542902291669D-15
 Symmetry A2   SP= 6.551210312081D-15
 Symmetry B1   SP= 1.000000000000D+00
 Symmetry B2   SP=-2.137740735841D-14
                          Isotropic Fermi Contact Couplings
        Atom                 a.u.       MegaHertz       Gauss      10(-4) cm-1
     1  C(13)              0.04021      45.20561      16.13049      15.07897
     2  C(13)             -0.01924     -21.63225      -7.71892      -7.21574
     3  C(13)              0.06547      73.60568      26.26434      24.55221
     4  C(13)             -0.01924     -21.63225      -7.71892      -7.21574
     5  C(13)              0.04021      45.20561      16.13049      15.07897
     6  H(1)              -0.00467     -20.88073      -7.45076      -6.96506
     7  H(1)              -0.00496     -22.16088      -7.90755      -7.39207
     8  H(1)              -0.00001      -0.06167      -0.02201      -0.02057
     9  H(1)              -0.00749     -33.49005     -11.95008     -11.17108
    10  H(1)              -0.00001      -0.06167      -0.02201      -0.02057
    11  H(1)              -0.00496     -22.16088      -7.90755      -7.39207
 --------------------------------------------------------
       Center         ----  Spin Dipole Couplings  ----
                      3XX-RR        3YY-RR        3ZZ-RR
 --------------------------------------------------------
     1   Atom        0.333732     -0.162538     -0.171194
     2   Atom       -0.033712      0.015677      0.018034
     3   Atom        0.548936     -0.279389     -0.269548
     4   Atom       -0.033712      0.015677      0.018034
     5   Atom        0.333732     -0.162538     -0.171194
     6   Atom       -0.002603      0.001673      0.000930
     7   Atom       -0.004957      0.004490      0.000467
     8   Atom       -0.006658      0.008035     -0.001377
     9   Atom       -0.007163     -0.037156      0.044319
    10   Atom       -0.006658      0.008035     -0.001377
    11   Atom       -0.004957      0.004490      0.000467
 --------------------------------------------------------
                        XY            XZ            YZ
 --------------------------------------------------------
     1   Atom       -0.000000     -0.000000     -0.005721
     2   Atom       -0.000000      0.000000     -0.007762
     3   Atom       -0.000000     -0.000000      0.000000
     4   Atom       -0.000000     -0.000000      0.007762
     5   Atom       -0.000000      0.000000      0.005721
     6   Atom       -0.000000      0.000000      0.000000
     7   Atom       -0.000000      0.000000     -0.026481
     8   Atom       -0.000000      0.000000     -0.000441
     9   Atom       -0.000000     -0.000000     -0.000000
    10   Atom        0.000000     -0.000000      0.000441
    11   Atom       -0.000000     -0.000000      0.026481
 --------------------------------------------------------


 ---------------------------------------------------------------------------------
              Anisotropic Spin Dipole Couplings in Principal Axis System
 ---------------------------------------------------------------------------------

       Atom             a.u.   MegaHertz   Gauss  10(-4) cm-1        Axes

              Baa    -0.1740   -23.355    -8.333    -7.790  0.0000  0.4454  0.8954
     1 C(13)  Bbb    -0.1597   -21.429    -7.646    -7.148  0.0000  0.8954 -0.4454
              Bcc     0.3337    44.784    15.980    14.938  1.0000 -0.0000  0.0000
 
              Baa    -0.0337    -4.524    -1.614    -1.509  1.0000  0.0000  0.0000
     2 C(13)  Bbb     0.0090     1.208     0.431     0.403 -0.0000  0.7583  0.6519
              Bcc     0.0247     3.315     1.183     1.106  0.0000 -0.6519  0.7583
 
              Baa    -0.2794   -37.491   -13.378   -12.506  0.0000  1.0000  0.0000
     3 C(13)  Bbb    -0.2695   -36.171   -12.907   -12.065  0.0000  0.0000  1.0000
              Bcc     0.5489    73.662    26.284    24.571  1.0000 -0.0000  0.0000
 
              Baa    -0.0337    -4.524    -1.614    -1.509  1.0000  0.0000  0.0000
     4 C(13)  Bbb     0.0090     1.208     0.431     0.403  0.0000  0.7583 -0.6519
              Bcc     0.0247     3.315     1.183     1.106 -0.0000  0.6519  0.7583
 
              Baa    -0.1740   -23.355    -8.333    -7.790 -0.0000 -0.4454  0.8954
     5 C(13)  Bbb    -0.1597   -21.429    -7.646    -7.148  0.0000  0.8954  0.4454
              Bcc     0.3337    44.784    15.980    14.938  1.0000 -0.0000  0.0000
 
              Baa    -0.0026    -1.389    -0.496    -0.463  1.0000  0.0000 -0.0000
     6 H(1)   Bbb     0.0009     0.496     0.177     0.166  0.0000 -0.0000  1.0000
              Bcc     0.0017     0.893     0.319     0.298 -0.0000  1.0000  0.0000
 
              Baa    -0.0241   -12.847    -4.584    -4.285 -0.0000  0.6798  0.7334
     7 H(1)   Bbb    -0.0050    -2.645    -0.944    -0.882  1.0000  0.0000  0.0000
              Bcc     0.0290    15.492     5.528     5.168 -0.0000  0.7334 -0.6798
 
              Baa    -0.0067    -3.552    -1.268    -1.185  1.0000 -0.0000 -0.0000
     8 H(1)   Bbb    -0.0014    -0.746    -0.266    -0.249  0.0000  0.0467  0.9989
              Bcc     0.0081     4.298     1.534     1.434 -0.0000  0.9989 -0.0467
 
              Baa    -0.0372   -19.825    -7.074    -6.613  0.0000  1.0000 -0.0000
     9 H(1)   Bbb    -0.0072    -3.822    -1.364    -1.275  1.0000 -0.0000 -0.0000
              Bcc     0.0443    23.647     8.438     7.888  0.0000  0.0000  1.0000
 
              Baa    -0.0067    -3.552    -1.268    -1.185  1.0000 -0.0000  0.0000
    10 H(1)   Bbb    -0.0014    -0.746    -0.266    -0.249 -0.0000 -0.0467  0.9989
              Bcc     0.0081     4.298     1.534     1.434  0.0000  0.9989  0.0467
 
              Baa    -0.0241   -12.847    -4.584    -4.285 -0.0000 -0.6798  0.7334
    11 H(1)   Bbb    -0.0050    -2.645    -0.944    -0.882  1.0000 -0.0000  0.0000
              Bcc     0.0290    15.492     5.528     5.168  0.0000  0.7334  0.6798
 

 ---------------------------------------------------------------------------------

 No NMR shielding tensors so no spin-rotation constants.
 Leave Link  601 at Thu Mar  5 12:53:01 2020, MaxMem=  6710886400 cpu:               3.8 elap:               0.3
 (Enter /opt/ohpc/pub/libs/gaussian/g16-A.03/sandybridge/g16/l9999.exe)

 Test job not archived.
 1\1\GINC-CNODE212\SP\ULC-wHPBE\6-31G\C5H6(1+,2)\SMGO234\05-Mar-2020\0\
 \#P uLC-wHPBE/6-31G iop(3/130=0242800000, 3/131=0242800000, 3/119=0757
 200000, 3/120=0757200000) scf=(conver=6,fermi,ndamp=35,noincfock,novar
 acc,vshift=500,xqc)\\H6 C5\\1,2\C,0,0.,0.878804,-0.931542\C,0,0.,1.128
 157,0.423457\C,0,0.,0.,1.240879\C,0,0.,-1.128157,0.423457\C,0,0.,-0.87
 8804,-0.931542\H,0,0.,0.,-1.732269\H,0,0.,1.6083,-1.734053\H,0,0.,2.15
 6626,0.76567\H,0,0.,0.,2.320778\H,0,0.,-2.156626,0.76567\H,0,0.,-1.608
 3,-1.734053\\Version=EM64L-G16RevA.03\State=2-B1\HF=-186.5550243\S2=0.
 757254\S2-1=0.\S2A=0.750034\RMSD=8.751e-07\Dipole=0.,0.,-0.7823847\Qua
 drupole=-7.7548506,2.3130169,5.4418336,0.,0.,0.\PG=C02V [C2(H1C1H1),SG
 V(C4H4)]\\@


 I take a simple view of life: keep your eyes open and get on with it.
 -- Laurence Olivier
 Job cpu time:       0 days  0 hours  1 minutes 17.4 seconds.
 Elapsed time:       0 days  0 hours  0 minutes  5.4 seconds.
 File lengths (MBytes):  RWF=    272 Int=      0 D2E=      0 Chk=     32 Scr=     32
 Normal termination of Gaussian 16 at Thu Mar  5 12:53:01 2020.
