 Entering Gaussian System, Link 0=g16
 Input=a1b_tune_n5.gjf
 Output=a1b_tune_n5.log
 Initial command:
 /opt/ohpc/pub/libs/gaussian/g16-A.03/sandybridge/g16/l1.exe "/scratch/smgo234/Ocelot/test/a1b/tuning_a1b_acycle1/Gau-80012.inp" -scrdir="/scratch/smgo234/Ocelot/test/a1b/tuning_a1b_acycle1/"
 Entering Link 1 = /opt/ohpc/pub/libs/gaussian/g16-A.03/sandybridge/g16/l1.exe PID=     80013.
  
 Copyright (c) 1988,1990,1992,1993,1995,1998,2003,2009,2016,
            Gaussian, Inc.  All Rights Reserved.
  
 This is part of the Gaussian(R) 16 program.  It is based on
 the Gaussian(R) 09 system (copyright 2009, Gaussian, Inc.),
 the Gaussian(R) 03 system (copyright 2003, Gaussian, Inc.),
 the Gaussian(R) 98 system (copyright 1998, Gaussian, Inc.),
 the Gaussian(R) 94 system (copyright 1995, Gaussian, Inc.),
 the Gaussian 92(TM) system (copyright 1992, Gaussian, Inc.),
 the Gaussian 90(TM) system (copyright 1990, Gaussian, Inc.),
 the Gaussian 88(TM) system (copyright 1988, Gaussian, Inc.),
 the Gaussian 86(TM) system (copyright 1986, Carnegie Mellon
 University), and the Gaussian 82(TM) system (copyright 1983,
 Carnegie Mellon University). Gaussian is a federally registered
 trademark of Gaussian, Inc.
  
 This software contains proprietary and confidential information,
 including trade secrets, belonging to Gaussian, Inc.
  
 This software is provided under written license and may be
 used, copied, transmitted, or stored only in accord with that
 written license.
  
 The following legend is applicable only to US Government
 contracts under FAR:
  
                    RESTRICTED RIGHTS LEGEND
  
 Use, reproduction and disclosure by the US Government is
 subject to restrictions as set forth in subparagraphs (a)
 and (c) of the Commercial Computer Software - Restricted
 Rights clause in FAR 52.227-19.
  
 Gaussian, Inc.
 340 Quinnipiac St., Bldg. 40, Wallingford CT 06492
  
  
 ---------------------------------------------------------------
 Warning -- This program may not be used in any manner that
 competes with the business of Gaussian, Inc. or will provide
 assistance to any competitor of Gaussian, Inc.  The licensee
 of this program is prohibited from giving any competitor of
 Gaussian, Inc. access to this program.  By using this program,
 the user acknowledges that Gaussian, Inc. is engaged in the
 business of creating and licensing software in the field of
 computational chemistry and represents and warrants to the
 licensee that it is not a competitor of Gaussian, Inc. and that
 it will not use this program in any manner prohibited above.
 ---------------------------------------------------------------
  

 Cite this work as:
 Gaussian 16, Revision A.03,
 M. J. Frisch, G. W. Trucks, H. B. Schlegel, G. E. Scuseria, 
 M. A. Robb, J. R. Cheeseman, G. Scalmani, V. Barone, 
 G. A. Petersson, H. Nakatsuji, X. Li, M. Caricato, A. V. Marenich, 
 J. Bloino, B. G. Janesko, R. Gomperts, B. Mennucci, H. P. Hratchian, 
 J. V. Ortiz, A. F. Izmaylov, J. L. Sonnenberg, D. Williams-Young, 
 F. Ding, F. Lipparini, F. Egidi, J. Goings, B. Peng, A. Petrone, 
 T. Henderson, D. Ranasinghe, V. G. Zakrzewski, J. Gao, N. Rega, 
 G. Zheng, W. Liang, M. Hada, M. Ehara, K. Toyota, R. Fukuda, 
 J. Hasegawa, M. Ishida, T. Nakajima, Y. Honda, O. Kitao, H. Nakai, 
 T. Vreven, K. Throssell, J. A. Montgomery, Jr., J. E. Peralta, 
 F. Ogliaro, M. J. Bearpark, J. J. Heyd, E. N. Brothers, K. N. Kudin, 
 V. N. Staroverov, T. A. Keith, R. Kobayashi, J. Normand, 
 K. Raghavachari, A. P. Rendell, J. C. Burant, S. S. Iyengar, 
 J. Tomasi, M. Cossi, J. M. Millam, M. Klene, C. Adamo, R. Cammi, 
 J. W. Ochterski, R. L. Martin, K. Morokuma, O. Farkas, 
 J. B. Foresman, and D. J. Fox, Gaussian, Inc., Wallingford CT, 2016.
 
 ******************************************
 Gaussian 16:  EM64L-G16RevA.03 25-Dec-2016
                 5-Mar-2020 
 ******************************************
 %mem=50GB
 %nproc=16
 Will use up to   16 processors via shared memory.
 ----------------------------------------------------------------------
 #P uLC-wHPBE/6-31G iop(3/130=0257600000, 3/131=0257600000, 3/119=07424
 00000, 3/120=0742400000) scf=(conver=6,fermi,ndamp=35,noincfock,novara
 cc,vshift=500,xqc)
 ----------------------------------------------------------------------
 1/38=1,172=1/1;
 2/12=2,17=6,18=5,40=1/2;
 3/5=1,6=6,11=2,25=1,30=1,74=-71,116=2,119=742400000,120=742400000,130=257600000,131=257600000/1,2,3;
 4//1;
 5/5=100002,6=6,8=3,10=500,13=1,18=-1,22=13,38=1,93=35/2,8;
 6/7=2,8=2,9=2,10=2,28=1/1;
 99/5=1,9=1/99;
 Leave Link    1 at Thu Mar  5 12:52:18 2020, MaxMem=  6710886400 cpu:              16.3 elap:               1.1
 (Enter /opt/ohpc/pub/libs/gaussian/g16-A.03/sandybridge/g16/l101.exe)
 -----
 H6 C5
 -----
 Symbolic Z-matrix:
 Charge =  0 Multiplicity = 1
 C                     0.        0.8788   -0.93154 
 C                     0.        1.12816   0.42346 
 C                     0.        0.        1.24088 
 C                     0.       -1.12816   0.42346 
 C                     0.       -0.8788   -0.93154 
 H                     0.        0.       -1.73227 
 H                     0.        1.6083   -1.73405 
 H                     0.        2.15663   0.76567 
 H                     0.        0.        2.32078 
 H                     0.       -2.15663   0.76567 
 H                     0.       -1.6083   -1.73405 
 
 ITRead=  0  0  0  0  0  0  0  0  0  0  0
 MicOpt= -1 -1 -1 -1 -1 -1 -1 -1 -1 -1 -1
 NAtoms=     11 NQM=       11 NQMF=       0 NMMI=      0 NMMIF=      0
                NMic=       0 NMicF=      0.
                    Isotopes and Nuclear Properties:
 (Nuclear quadrupole moments (NQMom) in fm**2, nuclear magnetic moments (NMagM)
  in nuclear magnetons)

  Atom         1           2           3           4           5           6           7           8           9          10
 IAtWgt=          12          12          12          12          12           1           1           1           1           1
 AtmWgt=  12.0000000  12.0000000  12.0000000  12.0000000  12.0000000   1.0078250   1.0078250   1.0078250   1.0078250   1.0078250
 NucSpn=           0           0           0           0           0           1           1           1           1           1
 AtZEff=  -0.0000000  -0.0000000  -0.0000000  -0.0000000  -0.0000000  -0.0000000  -0.0000000  -0.0000000  -0.0000000  -0.0000000
 NQMom=    0.0000000   0.0000000   0.0000000   0.0000000   0.0000000   0.0000000   0.0000000   0.0000000   0.0000000   0.0000000
 NMagM=    0.0000000   0.0000000   0.0000000   0.0000000   0.0000000   2.7928460   2.7928460   2.7928460   2.7928460   2.7928460
 AtZNuc=   6.0000000   6.0000000   6.0000000   6.0000000   6.0000000   1.0000000   1.0000000   1.0000000   1.0000000   1.0000000

  Atom        11
 IAtWgt=           1
 AtmWgt=   1.0078250
 NucSpn=           1
 AtZEff=  -0.0000000
 NQMom=    0.0000000
 NMagM=    2.7928460
 AtZNuc=   1.0000000
 Leave Link  101 at Thu Mar  5 12:52:18 2020, MaxMem=  6710886400 cpu:               2.3 elap:               0.2
 (Enter /opt/ohpc/pub/libs/gaussian/g16-A.03/sandybridge/g16/l202.exe)
                          Input orientation:                          
 ---------------------------------------------------------------------
 Center     Atomic      Atomic             Coordinates (Angstroms)
 Number     Number       Type             X           Y           Z
 ---------------------------------------------------------------------
      1          6           0        0.000000    0.878804   -0.931542
      2          6           0        0.000000    1.128157    0.423457
      3          6           0        0.000000    0.000000    1.240879
      4          6           0        0.000000   -1.128157    0.423457
      5          6           0        0.000000   -0.878804   -0.931542
      6          1           0        0.000000    0.000000   -1.732269
      7          1           0        0.000000    1.608300   -1.734053
      8          1           0        0.000000    2.156626    0.765670
      9          1           0        0.000000    0.000000    2.320778
     10          1           0        0.000000   -2.156626    0.765670
     11          1           0        0.000000   -1.608300   -1.734053
 ---------------------------------------------------------------------
                    Distance matrix (angstroms):
                    1          2          3          4          5
     1  C    0.000000
     2  C    1.377752   0.000000
     3  C    2.343440   1.393168   0.000000
     4  C    2.421552   2.256314   1.393168   0.000000
     5  C    1.757608   2.421552   2.343440   1.377752   0.000000
     6  H    1.188890   2.433083   2.973148   2.433083   1.188890
     7  H    1.084522   2.210291   3.381841   3.484687   2.613371
     8  H    2.124466   1.083909   2.208361   3.302561   3.477695
     9  H    3.368959   2.207389   1.079899   2.207389   3.368959
    10  H    3.477695   3.302561   2.208361   1.083909   2.124466
    11  H    2.613371   3.484687   3.381841   2.210291   1.084522
                    6          7          8          9         10
     6  H    0.000000
     7  H    1.608301   0.000000
     8  H    3.300111   2.559155   0.000000
     9  H    4.053047   4.362142   2.658834   0.000000
    10  H    3.300111   4.519213   4.313252   2.658834   0.000000
    11  H    1.608301   3.216600   4.519213   4.362142   2.559155
                   11
    11  H    0.000000
 Stoichiometry    C5H6
 Framework group  C2V[C2(HCH),SGV(C4H4)]
 Deg. of freedom    10
 Full point group                 C2V     NOp   4
 Largest Abelian subgroup         C2V     NOp   4
 Largest concise Abelian subgroup C2      NOp   2
                         Standard orientation:                         
 ---------------------------------------------------------------------
 Center     Atomic      Atomic             Coordinates (Angstroms)
 Number     Number       Type             X           Y           Z
 ---------------------------------------------------------------------
      1          6           0        0.000000    0.878804   -0.931542
      2          6           0        0.000000    1.128157    0.423457
      3          6           0        0.000000   -0.000000    1.240879
      4          6           0       -0.000000   -1.128157    0.423457
      5          6           0       -0.000000   -0.878804   -0.931542
      6          1           0       -0.000000    0.000000   -1.732269
      7          1           0        0.000000    1.608300   -1.734053
      8          1           0        0.000000    2.156626    0.765670
      9          1           0        0.000000   -0.000000    2.320778
     10          1           0       -0.000000   -2.156626    0.765670
     11          1           0       -0.000000   -1.608300   -1.734053
 ---------------------------------------------------------------------
 Rotational constants (GHZ):           8.5259551           7.9375455           4.1106177
 Leave Link  202 at Thu Mar  5 12:52:18 2020, MaxMem=  6710886400 cpu:               0.2 elap:               0.0
 (Enter /opt/ohpc/pub/libs/gaussian/g16-A.03/sandybridge/g16/l301.exe)
 Standard basis: 6-31G (6D, 7F)
 Ernie: Thresh=  0.10000D-02 Tol=  0.10000D-05 Strict=F.
 There are    27 symmetry adapted cartesian basis functions of A1  symmetry.
 There are     4 symmetry adapted cartesian basis functions of A2  symmetry.
 There are     6 symmetry adapted cartesian basis functions of B1  symmetry.
 There are    20 symmetry adapted cartesian basis functions of B2  symmetry.
 There are    27 symmetry adapted basis functions of A1  symmetry.
 There are     4 symmetry adapted basis functions of A2  symmetry.
 There are     6 symmetry adapted basis functions of B1  symmetry.
 There are    20 symmetry adapted basis functions of B2  symmetry.
    57 basis functions,   134 primitive gaussians,    57 cartesian basis functions
    18 alpha electrons       18 beta electrons
       nuclear repulsion energy       156.0127424860 Hartrees.
 IExCor=33909 DFT=T Ex+Corr=LC-wHPBE ExCW=0 ScaHFX=  1.000000
 ScaDFX=  1.000000  1.000000  1.000000  1.000000 ScalE2=  1.000000  1.000000
 IRadAn=      5 IRanWt=     -1 IRanGd=            0 ICorTp=0 IEmpDi=  4
 HFx  wShort=  0.000000 wLong=  0.400000 cFull=  0.000000 cShort=  0.000000 cLong=  0.742400
 DFx  wShort=  0.000000 wLong=  0.400000 cFull=  0.000000 cShort=  1.000000 cLong=  0.742400
 NAtoms=   11 NActive=   11 NUniq=    7 SFac= 2.47D+00 NAtFMM=   60 NAOKFM=F Big=F
 Integral buffers will be    131072 words long.
 Raffenetti 2 integral format.
 Two-electron integral symmetry is turned on.
 Leave Link  301 at Thu Mar  5 12:52:18 2020, MaxMem=  6710886400 cpu:               0.8 elap:               0.1
 (Enter /opt/ohpc/pub/libs/gaussian/g16-A.03/sandybridge/g16/l302.exe)
 NPDir=0 NMtPBC=     1 NCelOv=     1 NCel=       1 NClECP=     1 NCelD=      1
         NCelK=      1 NCelE2=     1 NClLst=     1 CellRange=     0.0.
 One-electron integrals computed using PRISM.
 One-electron integral symmetry used in STVInt
 NBasis=    57 RedAO= T EigKep=  1.84D-03  NBF=    27     4     6    20
 NBsUse=    57 1.00D-06 EigRej= -1.00D+00 NBFU=    27     4     6    20
 Precomputing XC quadrature grid using
 IXCGrd= 4 IRadAn=           5 IRanWt=          -1 IRanGd=           0 AccXCQ= 0.00D+00.
 Generated NRdTot=       0 NPtTot=           0 NUsed=           0 NTot=          32
 NSgBfM=    57    57    57    57    57 MxSgAt=    11 MxSgA2=    11.
 Leave Link  302 at Thu Mar  5 12:52:18 2020, MaxMem=  6710886400 cpu:               1.9 elap:               0.1
 (Enter /opt/ohpc/pub/libs/gaussian/g16-A.03/sandybridge/g16/l303.exe)
 DipDrv:  MaxL=1.
 Leave Link  303 at Thu Mar  5 12:52:18 2020, MaxMem=  6710886400 cpu:               0.3 elap:               0.0
 (Enter /opt/ohpc/pub/libs/gaussian/g16-A.03/sandybridge/g16/l401.exe)
 ExpMin= 1.61D-01 ExpMax= 3.05D+03 ExpMxC= 4.57D+02 IAcc=3 IRadAn=         5 AccDes= 0.00D+00
 Harris functional with IExCor=33909 and IRadAn=       5 diagonalized for initial guess.
 HarFok:  IExCor=33909 AccDes= 0.00D+00 IRadAn=         5 IDoV= 1 UseB2=F ITyADJ=14
 ICtDFT=  3500011 ScaDFX=  1.000000  1.000000  1.000000  1.000000
 FoFCou: FMM=F IPFlag=           0 FMFlag=      100000 FMFlg1=           0
         NFxFlg=           0 DoJE=T BraDBF=F KetDBF=T FulRan=T
         wScrn=  0.000000 ICntrl=       500 IOpCl=  0 I1Cent=   200000004 NGrid=           0
         NMat0=    1 NMatS0=      1 NMatT0=    0 NMatD0=    1 NMtDS0=    0 NMtDT0=    0
 Petite list used in FoFCou.
 Harris En= -191.970214110718    
 JPrj=0 DoOrth=F DoCkMO=F.
 Initial guess orbital symmetries:
 Alpha Orbitals:
       Occupied  (A1) (B2) (A1) (B2) (A1) (A1) (A1) (B2) (A1) (B2)
                 (A1) (B2) (A1) (B2) (A1) (B1) (A2) (B1)
       Virtual   (A2) (B2) (B1) (A1) (A1) (B2) (A1) (B2) (A1) (B2)
                 (A1) (B2) (A1) (B2) (B1) (A1) (A2) (B1) (B2) (A1)
                 (A1) (A2) (B1) (B2) (B2) (A1) (B2) (A1) (A1) (B2)
                 (A1) (A1) (A1) (B2) (A1) (B2) (A1) (A1) (B2)
 Beta  Orbitals:
       Occupied  (A1) (B2) (A1) (B2) (A1) (A1) (A1) (B2) (A1) (B2)
                 (A1) (B2) (A1) (B2) (A1) (B1) (A2) (B1)
       Virtual   (A2) (B2) (B1) (A1) (A1) (B2) (A1) (B2) (A1) (B2)
                 (A1) (B2) (A1) (B2) (B1) (A1) (A2) (B1) (B2) (A1)
                 (A1) (A2) (B1) (B2) (B2) (A1) (B2) (A1) (A1) (B2)
                 (A1) (A1) (A1) (B2) (A1) (B2) (A1) (A1) (B2)
 The electronic state of the initial guess is 1-A1.
 Initial guess <Sx>= 0.0000 <Sy>= 0.0000 <Sz>= 0.0000 <S**2>= 0.0000 S= 0.0000
 Leave Link  401 at Thu Mar  5 12:52:19 2020, MaxMem=  6710886400 cpu:               3.2 elap:               0.2
 (Enter /opt/ohpc/pub/libs/gaussian/g16-A.03/sandybridge/g16/l502.exe)
 Keep R1 and R2 ints in memory in symmetry-blocked form, NReq=16815681.
 FoFCou: FMM=F IPFlag=           0 FMFlag=           0 FMFlg1=           0
         NFxFlg=           0 DoJE=F BraDBF=F KetDBF=F FulRan=T
         wScrn=  0.000000 ICntrl=       600 IOpCl=  0 I1Cent=           0 NGrid=           0
         NMat0=    1 NMatS0=   1653 NMatT0=    0 NMatD0=    1 NMtDS0=    0 NMtDT0=    0
 Petite list used in FoFCou.
 UHF open shell SCF:
 Using DIIS extrapolation, IDIIS=    10.
 NGot=  6710886400 LenX=  6710059561 LenY=  6710055871
 Requested convergence on RMS density matrix=1.00D-06 within  32 cycles.
 Requested convergence on MAX density matrix=1.00D-04.
 Requested convergence on             energy=1.00D-04.
 Virtual orbitals will be shifted by   0.500 hartree.
 No special actions if energy rises.
 Dynamic level shift is on during FON iterations.

 Cycle   1  Pass 1  IDiag  1:
 E= -197.032020791184    
 DIIS: error= 4.35D-02 at cycle   1 NSaved=   1.
 NSaved= 1 IEnMin= 1 EnMin= -197.032020791184     IErMin= 1 ErrMin= 4.35D-02
 ErrMax= 4.35D-02  0.00D+00 EMaxC= 1.00D+00 BMatC= 3.45D-01 BMatP= 3.45D-01
 IDIUse=1 WtCom= 1.00D+00 WtEn= 0.00D+00
 Coeff-Com:  0.100D+01
 Coeff:      0.100D+01
 Gap=     0.309 Goal=   None    Shift=    0.500
 T= 1719. Gap= 0.765 NK=0 IS=   19 IE=   57 IFin=   18
          NO(<0.9)=   0  NV(>0.1)=   0     18.00e < EF      0.00e >EF  Err=0.0D+00
 Gap=     0.309 Goal=   None    Shift=    0.500
 T= 1719. Gap= 0.765 NK=0 IS=   19 IE=   57 IFin=   18
          NO(<0.9)=   0  NV(>0.1)=   0     18.00e < EF      0.00e >EF  Err=0.0D+00
 GapD=    0.309 DampG=1.000 DampE=0.500 DampFc=0.5000 IDamp=-1.
 Damping current iteration by 5.00D-01
 RMSDP=7.20D-03 MaxDP=6.31D-02              OVMax= 8.29D-02

 Cycle   2  Pass 1  IDiag  1:
 E= -197.096340319721     Delta-E=       -0.064319528537 Rises=F Damp=T
 DIIS: error= 1.90D-02 at cycle   2 NSaved=   2.
 NSaved= 2 IEnMin= 2 EnMin= -197.096340319721     IErMin= 2 ErrMin= 1.90D-02
 ErrMax= 1.90D-02  0.00D+00 EMaxC= 1.00D+00 BMatC= 6.44D-02 BMatP= 3.45D-01
 IDIUse=1 WtCom= 1.00D+00 WtEn= 0.00D+00
 Coeff-Com: -0.681D+00 0.168D+01
 Coeff:     -0.681D+00 0.168D+01
 Gap=     0.367 Goal=   None    Shift=    0.500
 T= 1594. Gap= 0.854 NK=0 IS=   19 IE=   57 IFin=   18
          NO(<0.9)=   0  NV(>0.1)=   0     18.00e < EF      0.00e >EF  Err=0.0D+00
 Gap=     0.367 Goal=   None    Shift=    0.500
 T= 1594. Gap= 0.854 NK=0 IS=   19 IE=   57 IFin=   18
          NO(<0.9)=   0  NV(>0.1)=   0     18.00e < EF      0.00e >EF  Err=0.0D+00
 GapD=    0.367 DampG=1.000 DampE=0.500 DampFc=0.5000 IDamp=-1.
 Damping current iteration by 5.00D-01
 RMSDP=3.79D-03 MaxDP=2.52D-02 DE=-6.43D-02 OVMax= 9.22D-03

 Cycle   3  Pass 1  IDiag  1:
 E= -197.118857288084     Delta-E=       -0.022516968363 Rises=F Damp=T
 DIIS: error= 8.55D-03 at cycle   3 NSaved=   3.
 NSaved= 3 IEnMin= 3 EnMin= -197.118857288084     IErMin= 3 ErrMin= 8.55D-03
 ErrMax= 8.55D-03  0.00D+00 EMaxC= 1.00D+00 BMatC= 1.31D-02 BMatP= 6.44D-02
 IDIUse=1 WtCom= 1.00D+00 WtEn= 0.00D+00
 Coeff-Com:  0.141D+00-0.124D+01 0.210D+01
 Coeff:      0.141D+00-0.124D+01 0.210D+01
 Gap=     0.352 Goal=   None    Shift=    0.500
 T= 1354. Gap= 0.852 NK=0 IS=   19 IE=   57 IFin=   18
          NO(<0.9)=   0  NV(>0.1)=   0     18.00e < EF      0.00e >EF  Err=0.0D+00
 Gap=     0.352 Goal=   None    Shift=    0.500
 T= 1354. Gap= 0.852 NK=0 IS=   19 IE=   57 IFin=   18
          NO(<0.9)=   0  NV(>0.1)=   0     18.00e < EF      0.00e >EF  Err=0.0D+00
 GapD=    0.352 DampG=1.000 DampE=1.000 DampFc=1.0000 IDamp=-1.
 RMSDP=1.93D-03 MaxDP=1.26D-02 DE=-2.25D-02 OVMax= 6.93D-03

 Cycle   4  Pass 1  IDiag  1:
 E= -197.137163229490     Delta-E=       -0.018305941406 Rises=F Damp=F
 DIIS: error= 1.71D-03 at cycle   4 NSaved=   4.
 NSaved= 4 IEnMin= 4 EnMin= -197.137163229490     IErMin= 4 ErrMin= 1.71D-03
 ErrMax= 1.71D-03  0.00D+00 EMaxC= 1.00D+00 BMatC= 4.21D-04 BMatP= 1.31D-02
 IDIUse=1 WtCom= 1.00D+00 WtEn= 0.00D+00
 Coeff-Com:  0.112D+00-0.107D+00-0.226D+00 0.122D+01
 Coeff:      0.112D+00-0.107D+00-0.226D+00 0.122D+01
 Gap=     0.353 Goal=   None    Shift=    0.500
 T=  821. Gap= 0.853 NK=0 IS=   19 IE=   57 IFin=   18
          NO(<0.9)=   0  NV(>0.1)=   0     18.00e < EF      0.00e >EF  Err=0.0D+00
 Gap=     0.353 Goal=   None    Shift=    0.500
 T=  821. Gap= 0.853 NK=0 IS=   19 IE=   57 IFin=   18
          NO(<0.9)=   0  NV(>0.1)=   0     18.00e < EF      0.00e >EF  Err=0.0D+00
 GapD=    0.353 DampG=1.000 DampE=1.000 DampFc=1.0000 IDamp=-1.
 RMSDP=3.57D-04 MaxDP=2.86D-03 DE=-1.83D-02 OVMax= 2.93D-03

 Cycle   5  Pass 1  IDiag  1:
 E= -197.137334934170     Delta-E=       -0.000171704681 Rises=F Damp=F
 DIIS: error= 7.94D-04 at cycle   5 NSaved=   5.
 NSaved= 5 IEnMin= 5 EnMin= -197.137334934170     IErMin= 5 ErrMin= 7.94D-04
 ErrMax= 7.94D-04  0.00D+00 EMaxC= 1.00D+00 BMatC= 6.32D-05 BMatP= 4.21D-04
 IDIUse=1 WtCom= 1.00D+00 WtEn= 0.00D+00
 Coeff-Com: -0.433D-01 0.210D+00-0.273D+00-0.684D+00 0.179D+01
 Coeff:     -0.433D-01 0.210D+00-0.273D+00-0.684D+00 0.179D+01
 Gap=     0.353 Goal=   None    Shift=    0.500
 Gap=     0.353 Goal=   None    Shift=    0.500
 RMSDP=2.04D-04 MaxDP=1.66D-03 DE=-1.72D-04 OVMax= 2.64D-03

 Cycle   6  Pass 1  IDiag  1:
 E= -197.137380336732     Delta-E=       -0.000045402562 Rises=F Damp=F
 DIIS: error= 5.62D-04 at cycle   6 NSaved=   6.
 NSaved= 6 IEnMin= 6 EnMin= -197.137380336732     IErMin= 6 ErrMin= 5.62D-04
 ErrMax= 5.62D-04  0.00D+00 EMaxC= 1.00D+00 BMatC= 1.30D-05 BMatP= 6.32D-05
 IDIUse=1 WtCom= 1.00D+00 WtEn= 0.00D+00
 Coeff-Com: -0.649D-03-0.458D-01 0.906D-01 0.211D+00-0.169D+01 0.243D+01
 Coeff:     -0.649D-03-0.458D-01 0.906D-01 0.211D+00-0.169D+01 0.243D+01
 Gap=     0.353 Goal=   None    Shift=    0.500
 Gap=     0.353 Goal=   None    Shift=    0.500
 RMSDP=1.03D-04 MaxDP=8.02D-04 DE=-4.54D-05 OVMax= 1.68D-03

 Cycle   7  Pass 1  IDiag  1:
 E= -197.137393127123     Delta-E=       -0.000012790391 Rises=F Damp=F
 DIIS: error= 3.66D-04 at cycle   7 NSaved=   7.
 NSaved= 7 IEnMin= 7 EnMin= -197.137393127123     IErMin= 7 ErrMin= 3.66D-04
 ErrMax= 3.66D-04  0.00D+00 EMaxC= 1.00D+00 BMatC= 3.59D-06 BMatP= 1.30D-05
 IDIUse=1 WtCom= 1.00D+00 WtEn= 0.00D+00
 Coeff-Com: -0.468D-03 0.477D-01-0.954D-01 0.860D-01 0.524D+00-0.248D+01
 Coeff-Com:  0.292D+01
 Coeff:     -0.468D-03 0.477D-01-0.954D-01 0.860D-01 0.524D+00-0.248D+01
 Coeff:      0.292D+01
 Gap=     0.353 Goal=   None    Shift=    0.500
 Gap=     0.353 Goal=   None    Shift=    0.500
 RMSDP=4.74D-05 MaxDP=3.79D-04 DE=-1.28D-05 OVMax= 1.01D-03

 Cycle   8  Pass 1  IDiag  1:
 E= -197.137396807934     Delta-E=       -0.000003680810 Rises=F Damp=F
 DIIS: error= 2.36D-04 at cycle   8 NSaved=   8.
 NSaved= 8 IEnMin= 8 EnMin= -197.137396807934     IErMin= 8 ErrMin= 2.36D-04
 ErrMax= 2.36D-04  0.00D+00 EMaxC= 1.00D+00 BMatC= 1.29D-06 BMatP= 3.59D-06
 IDIUse=1 WtCom= 1.00D+00 WtEn= 0.00D+00
 Coeff-Com: -0.198D-02 0.458D-01-0.854D-01 0.391D-01 0.508D+00-0.162D+01
 Coeff-Com:  0.867D+00 0.125D+01
 Coeff:     -0.198D-02 0.458D-01-0.854D-01 0.391D-01 0.508D+00-0.162D+01
 Coeff:      0.867D+00 0.125D+01
 Gap=     0.353 Goal=   None    Shift=    0.500
 Gap=     0.353 Goal=   None    Shift=    0.500
 RMSDP=2.18D-05 MaxDP=1.67D-04 DE=-3.68D-06 OVMax= 5.86D-04

 Cycle   9  Pass 1  IDiag  1:
 E= -197.137397895700     Delta-E=       -0.000001087766 Rises=F Damp=F
 DIIS: error= 1.37D-04 at cycle   9 NSaved=   9.
 NSaved= 9 IEnMin= 9 EnMin= -197.137397895700     IErMin= 9 ErrMin= 1.37D-04
 ErrMax= 1.37D-04  0.00D+00 EMaxC= 1.00D+00 BMatC= 4.34D-07 BMatP= 1.29D-06
 IDIUse=1 WtCom= 1.00D+00 WtEn= 0.00D+00
 Coeff-Com: -0.132D-02 0.845D-02-0.123D-01-0.557D-03 0.125D-01 0.277D+00
 Coeff-Com: -0.814D+00-0.457D+00 0.199D+01
 Coeff:     -0.132D-02 0.845D-02-0.123D-01-0.557D-03 0.125D-01 0.277D+00
 Coeff:     -0.814D+00-0.457D+00 0.199D+01
 Gap=     0.353 Goal=   None    Shift=    0.500
 Gap=     0.353 Goal=   None    Shift=    0.500
 RMSDP=1.10D-05 MaxDP=9.24D-05 DE=-1.09D-06 OVMax= 3.29D-04

 Cycle  10  Pass 1  IDiag  1:
 E= -197.137398220059     Delta-E=       -0.000000324359 Rises=F Damp=F
 DIIS: error= 8.28D-05 at cycle  10 NSaved=  10.
 NSaved=10 IEnMin=10 EnMin= -197.137398220059     IErMin=10 ErrMin= 8.28D-05
 ErrMax= 8.28D-05  0.00D+00 EMaxC= 1.00D+00 BMatC= 1.62D-07 BMatP= 4.34D-07
 IDIUse=1 WtCom= 1.00D+00 WtEn= 0.00D+00
 Coeff-Com:  0.730D-03-0.505D-02 0.717D-02 0.154D-01-0.928D-01 0.903D-01
 Coeff-Com:  0.395D+00-0.749D+00-0.125D+01 0.259D+01
 Coeff:      0.730D-03-0.505D-02 0.717D-02 0.154D-01-0.928D-01 0.903D-01
 Coeff:      0.395D+00-0.749D+00-0.125D+01 0.259D+01
 Gap=     0.353 Goal=   None    Shift=    0.500
 Gap=     0.353 Goal=   None    Shift=    0.500
 RMSDP=5.57D-06 MaxDP=4.93D-05 DE=-3.24D-07 OVMax= 1.88D-04

 Cycle  11  Pass 1  IDiag  1:
 E= -197.137398321372     Delta-E=       -0.000000101313 Rises=F Damp=F
 DIIS: error= 4.89D-05 at cycle  11 NSaved=  11.
 NSaved=11 IEnMin=11 EnMin= -197.137398321372     IErMin=11 ErrMin= 4.89D-05
 ErrMax= 4.89D-05  0.00D+00 EMaxC= 1.00D+00 BMatC= 5.95D-08 BMatP= 1.62D-07
 IDIUse=1 WtCom= 1.00D+00 WtEn= 0.00D+00
 Coeff-Com: -0.163D-03 0.174D-02-0.295D-02 0.123D-02 0.116D-01-0.167D-01
 Coeff-Com: -0.122D-03-0.185D-01 0.438D+00-0.233D+01 0.292D+01
 Coeff:     -0.163D-03 0.174D-02-0.295D-02 0.123D-02 0.116D-01-0.167D-01
 Coeff:     -0.122D-03-0.185D-01 0.438D+00-0.233D+01 0.292D+01
 Gap=     0.353 Goal=   None    Shift=    0.500
 Gap=     0.353 Goal=   None    Shift=    0.500
 RMSDP=2.84D-06 MaxDP=2.64D-05 DE=-1.01D-07 OVMax= 1.08D-04

 Cycle  12  Pass 1  IDiag  1:
 E= -197.137398353862     Delta-E=       -0.000000032490 Rises=F Damp=F
 DIIS: error= 2.82D-05 at cycle  12 NSaved=  12.
 NSaved=12 IEnMin=12 EnMin= -197.137398353862     IErMin=12 ErrMin= 2.82D-05
 ErrMax= 2.82D-05  0.00D+00 EMaxC= 1.00D+00 BMatC= 2.08D-08 BMatP= 5.95D-08
 IDIUse=1 WtCom= 1.00D+00 WtEn= 0.00D+00
 Coeff-Com: -0.450D-04 0.280D-03-0.400D-03 0.815D-03-0.495D-02 0.139D-01
 Coeff-Com: -0.137D-01-0.239D-01 0.737D-01 0.621D+00-0.308D+01 0.341D+01
 Coeff:     -0.450D-04 0.280D-03-0.400D-03 0.815D-03-0.495D-02 0.139D-01
 Coeff:     -0.137D-01-0.239D-01 0.737D-01 0.621D+00-0.308D+01 0.341D+01
 Gap=     0.353 Goal=   None    Shift=    0.500
 Gap=     0.353 Goal=   None    Shift=    0.500
 RMSDP=1.50D-06 MaxDP=1.42D-05 DE=-3.25D-08 OVMax= 6.03D-05

 Cycle  13  Pass 1  IDiag  1:
 E= -197.137398364120     Delta-E=       -0.000000010258 Rises=F Damp=F
 DIIS: error= 1.62D-05 at cycle  13 NSaved=  13.
 NSaved=13 IEnMin=13 EnMin= -197.137398364120     IErMin=13 ErrMin= 1.62D-05
 ErrMax= 1.62D-05  0.00D+00 EMaxC= 1.00D+00 BMatC= 7.22D-09 BMatP= 2.08D-08
 IDIUse=1 WtCom= 1.00D+00 WtEn= 0.00D+00
 Coeff-Com:  0.974D-04-0.686D-03 0.989D-03 0.159D-02-0.113D-01 0.158D-01
 Coeff-Com:  0.299D-01-0.629D-01-0.101D+00 0.171D+00 0.811D+00-0.335D+01
 Coeff-Com:  0.350D+01
 Coeff:      0.974D-04-0.686D-03 0.989D-03 0.159D-02-0.113D-01 0.158D-01
 Coeff:      0.299D-01-0.629D-01-0.101D+00 0.171D+00 0.811D+00-0.335D+01
 Coeff:      0.350D+01
 Gap=     0.353 Goal=   None    Shift=    0.500
 Gap=     0.353 Goal=   None    Shift=    0.500
 RMSDP=8.06D-07 MaxDP=7.92D-06 DE=-1.03D-08 OVMax= 3.38D-05

 SCF Done:  E(ULC-wHPBE) =  -197.137398364     A.U. after   13 cycles
            NFock= 13  Conv=0.81D-06     -V/T= 2.0213
 <Sx>= 0.0000 <Sy>= 0.0000 <Sz>= 0.0000 <S**2>=-0.0000 S=-0.0000
 <L.S>= 0.000000000000E+00
 KE= 1.930342438042D+02 PE=-7.617348774718D+02 EE= 2.155504928175D+02
 Annihilation of the first spin contaminant:
 S**2 before annihilation    -0.0000,   after     0.0000
 Leave Link  502 at Thu Mar  5 12:52:20 2020, MaxMem=  6710886400 cpu:              21.5 elap:               1.4
 (Enter /opt/ohpc/pub/libs/gaussian/g16-A.03/sandybridge/g16/l508.exe)
 QCSCF skips out because SCF is already converged.
 Leave Link  508 at Thu Mar  5 12:52:20 2020, MaxMem=  6710886400 cpu:               0.1 elap:               0.0
 (Enter /opt/ohpc/pub/libs/gaussian/g16-A.03/sandybridge/g16/l601.exe)
 Copying SCF densities to generalized density rwf, IOpCl= 1 IROHF=0.

 **********************************************************************

            Population analysis using the SCF density.

 **********************************************************************

 Orbital symmetries:
 Alpha Orbitals:
       Occupied  (B2) (A1) (B2) (A1) (A1) (A1) (A1) (B2) (A1) (B2)
                 (A1) (B2) (A1) (A1) (B2) (B1) (A2) (B1)
       Virtual   (A2) (B2) (A1) (B1) (A1) (B2) (A1) (B2) (A1) (A1)
                 (B2) (A1) (B2) (B2) (B1) (A2) (A1) (B1) (A1) (B2)
                 (A1) (A2) (B1) (B2) (B2) (A1) (B2) (A1) (A1) (B2)
                 (A1) (A1) (A1) (B2) (A1) (B2) (A1) (A1) (B2)
 Beta  Orbitals:
       Occupied  (B2) (A1) (B2) (A1) (A1) (A1) (A1) (B2) (A1) (B2)
                 (A1) (B2) (A1) (A1) (B2) (B1) (A2) (B1)
       Virtual   (A2) (B2) (A1) (B1) (A1) (B2) (A1) (B2) (A1) (A1)
                 (B2) (A1) (B2) (B2) (B1) (A2) (A1) (B1) (A1) (B2)
                 (A1) (A2) (B1) (B2) (B2) (A1) (B2) (A1) (A1) (B2)
                 (A1) (A1) (A1) (B2) (A1) (B2) (A1) (A1) (B2)
 The electronic state is 1-A1.
 Alpha  occ. eigenvalues --  -10.18045 -10.18043 -10.14396 -10.14396 -10.10870
 Alpha  occ. eigenvalues --   -1.04608  -0.91764  -0.88780  -0.74308  -0.72981
 Alpha  occ. eigenvalues --   -0.68796  -0.58127  -0.57353  -0.54279  -0.52944
 Alpha  occ. eigenvalues --   -0.51959  -0.38146  -0.33914
 Alpha virt. eigenvalues --    0.01418   0.02247   0.06690   0.08854   0.10773
 Alpha virt. eigenvalues --    0.15543   0.17247   0.19075   0.19912   0.32288
 Alpha virt. eigenvalues --    0.33595   0.43609   0.44186   0.53117   0.54701
 Alpha virt. eigenvalues --    0.61229   0.62059   0.62133   0.63995   0.65411
 Alpha virt. eigenvalues --    0.66651   0.67736   0.70284   0.77497   0.83366
 Alpha virt. eigenvalues --    0.86196   0.87775   0.87949   0.89784   0.96717
 Alpha virt. eigenvalues --    0.96924   1.00084   1.04570   1.11049   1.19084
 Alpha virt. eigenvalues --    1.20739   1.27648   1.48700   1.49774
  Beta  occ. eigenvalues --  -10.18045 -10.18043 -10.14396 -10.14396 -10.10870
  Beta  occ. eigenvalues --   -1.04608  -0.91764  -0.88780  -0.74308  -0.72981
  Beta  occ. eigenvalues --   -0.68796  -0.58127  -0.57353  -0.54279  -0.52944
  Beta  occ. eigenvalues --   -0.51959  -0.38146  -0.33914
  Beta virt. eigenvalues --    0.01418   0.02247   0.06690   0.08854   0.10773
  Beta virt. eigenvalues --    0.15543   0.17247   0.19075   0.19912   0.32288
  Beta virt. eigenvalues --    0.33595   0.43609   0.44186   0.53117   0.54701
  Beta virt. eigenvalues --    0.61229   0.62059   0.62133   0.63995   0.65411
  Beta virt. eigenvalues --    0.66651   0.67736   0.70284   0.77497   0.83366
  Beta virt. eigenvalues --    0.86196   0.87775   0.87949   0.89784   0.96717
  Beta virt. eigenvalues --    0.96924   1.00084   1.04570   1.11049   1.19084
  Beta virt. eigenvalues --    1.20739   1.27648   1.48700   1.49774
          Condensed to atoms (all electrons):
               1          2          3          4          5          6
     1  C    5.447483   0.473072  -0.055840  -0.128198   0.254968   0.166937
     2  C    0.473072   4.909486   0.554437  -0.016952  -0.128198  -0.018955
     3  C   -0.055840   0.554437   4.845683   0.554437  -0.055840   0.004862
     4  C   -0.128198  -0.016952   0.554437   4.909486   0.473072  -0.018955
     5  C    0.254968  -0.128198  -0.055840   0.473072   5.447483   0.166937
     6  H    0.166937  -0.018955   0.004862  -0.018955   0.166937   0.387109
     7  H    0.345906  -0.000122  -0.000144   0.003998  -0.023662  -0.012509
     8  H   -0.036990   0.364579  -0.016303   0.004390   0.001711   0.000827
     9  H    0.006323  -0.038435   0.374356  -0.038435   0.006323  -0.000095
    10  H    0.001711   0.004390  -0.016303   0.364579  -0.036990   0.000827
    11  H   -0.023662   0.003998  -0.000144  -0.000122   0.345906  -0.012509
               7          8          9         10         11
     1  C    0.345906  -0.036990   0.006323   0.001711  -0.023662
     2  C   -0.000122   0.364579  -0.038435   0.004390   0.003998
     3  C   -0.000144  -0.016303   0.374356  -0.016303  -0.000144
     4  C    0.003998   0.004390  -0.038435   0.364579  -0.000122
     5  C   -0.023662   0.001711   0.006323  -0.036990   0.345906
     6  H   -0.012509   0.000827  -0.000095   0.000827  -0.012509
     7  H    0.456820  -0.000160  -0.000101  -0.000035   0.000798
     8  H   -0.000160   0.504054  -0.001933  -0.000158  -0.000035
     9  H   -0.000101  -0.001933   0.540789  -0.001933  -0.000101
    10  H   -0.000035  -0.000158  -0.001933   0.504054  -0.000160
    11  H    0.000798  -0.000035  -0.000101  -0.000160   0.456820
          Atomic-Atomic Spin Densities.
               1          2          3          4          5          6
     1  C    0.000000   0.000000  -0.000000   0.000000  -0.000000  -0.000000
     2  C    0.000000  -0.000000   0.000000  -0.000000   0.000000   0.000000
     3  C   -0.000000   0.000000   0.000000   0.000000  -0.000000  -0.000000
     4  C    0.000000  -0.000000   0.000000  -0.000000   0.000000   0.000000
     5  C   -0.000000   0.000000  -0.000000   0.000000   0.000000  -0.000000
     6  H   -0.000000   0.000000  -0.000000   0.000000  -0.000000  -0.000000
     7  H    0.000000  -0.000000   0.000000  -0.000000  -0.000000   0.000000
     8  H   -0.000000   0.000000  -0.000000  -0.000000   0.000000  -0.000000
     9  H   -0.000000   0.000000  -0.000000   0.000000  -0.000000  -0.000000
    10  H    0.000000  -0.000000  -0.000000   0.000000  -0.000000  -0.000000
    11  H   -0.000000  -0.000000   0.000000  -0.000000   0.000000   0.000000
               7          8          9         10         11
     1  C    0.000000  -0.000000  -0.000000   0.000000  -0.000000
     2  C   -0.000000   0.000000   0.000000  -0.000000  -0.000000
     3  C    0.000000  -0.000000  -0.000000  -0.000000   0.000000
     4  C   -0.000000  -0.000000   0.000000   0.000000  -0.000000
     5  C   -0.000000   0.000000  -0.000000  -0.000000   0.000000
     6  H    0.000000  -0.000000  -0.000000  -0.000000   0.000000
     7  H    0.000000  -0.000000   0.000000   0.000000   0.000000
     8  H   -0.000000   0.000000   0.000000  -0.000000   0.000000
     9  H    0.000000   0.000000  -0.000000   0.000000   0.000000
    10  H    0.000000  -0.000000   0.000000   0.000000  -0.000000
    11  H    0.000000   0.000000   0.000000  -0.000000   0.000000
 Mulliken charges and spin densities:
               1          2
     1  C   -0.451709  -0.000000
     2  C   -0.107302   0.000000
     3  C   -0.189202   0.000000
     4  C   -0.107302   0.000000
     5  C   -0.451709  -0.000000
     6  H    0.335526  -0.000000
     7  H    0.229210  -0.000000
     8  H    0.180018   0.000000
     9  H    0.153242  -0.000000
    10  H    0.180018   0.000000
    11  H    0.229210  -0.000000
 Sum of Mulliken charges =  -0.00000  -0.00000
 Mulliken charges and spin densities with hydrogens summed into heavy atoms:
               1          2
     1  C    0.113027  -0.000000
     2  C    0.072716   0.000000
     3  C   -0.035960   0.000000
     4  C    0.072716   0.000000
     5  C   -0.222499  -0.000000
 Electronic spatial extent (au):  <R**2>=            335.1346
 Charge=             -0.0000 electrons
 Dipole moment (field-independent basis, Debye):
    X=             -0.0000    Y=             -0.0000    Z=             -1.9802  Tot=              1.9802
 Quadrupole moment (field-independent basis, Debye-Ang):
   XX=            -34.9743   YY=            -25.4586   ZZ=            -23.4052
   XY=              0.0000   XZ=              0.0000   YZ=              0.0000
 Traceless Quadrupole moment (field-independent basis, Debye-Ang):
   XX=             -7.0282   YY=              2.4874   ZZ=              4.5408
   XY=              0.0000   XZ=              0.0000   YZ=              0.0000
 Octapole moment (field-independent basis, Debye-Ang**2):
  XXX=              0.0000  YYY=              0.0000  ZZZ=             -8.8563  XYY=              0.0000
  XXY=             -0.0000  XXZ=              0.8290  XZZ=              0.0000  YZZ=              0.0000
  YYZ=             -0.9980  XYZ=             -0.0000
 Hexadecapole moment (field-independent basis, Debye-Ang**3):
 XXXX=            -37.0898 YYYY=           -181.5765 ZZZZ=           -168.5969 XXXY=             -0.0000
 XXXZ=             -0.0000 YYYX=             -0.0000 YYYZ=             -0.0000 ZZZX=             -0.0000
 ZZZY=              0.0000 XXYY=            -46.4713 XXZZ=            -45.4338 YYZZ=            -57.6009
 XXYZ=              0.0000 YYXZ=             -0.0000 ZZXY=             -0.0000
 N-N= 1.560127424860D+02 E-N=-7.617348564821D+02  KE= 1.930342438042D+02
 Symmetry A1   KE= 1.110162424321D+02
 Symmetry A2   KE= 2.444031432029D+00
 Symmetry B1   KE= 4.292870936706D+00
 Symmetry B2   KE= 7.528109900336D+01
 Symmetry A1   SP=-1.989777757707D-15
 Symmetry A2   SP=-7.137646481626D-17
 Symmetry B1   SP=-1.909072502794D-15
 Symmetry B2   SP= 4.419436673306D-15
                          Isotropic Fermi Contact Couplings
        Atom                 a.u.       MegaHertz       Gauss      10(-4) cm-1
     1  C(13)              0.00000       0.00000       0.00000       0.00000
     2  C(13)              0.00000       0.00000       0.00000       0.00000
     3  C(13)              0.00000       0.00000       0.00000       0.00000
     4  C(13)              0.00000       0.00000       0.00000       0.00000
     5  C(13)              0.00000       0.00000       0.00000       0.00000
     6  H(1)              -0.00000      -0.00000      -0.00000      -0.00000
     7  H(1)               0.00000       0.00000       0.00000       0.00000
     8  H(1)               0.00000       0.00000       0.00000       0.00000
     9  H(1)              -0.00000      -0.00000      -0.00000      -0.00000
    10  H(1)               0.00000       0.00000       0.00000       0.00000
    11  H(1)               0.00000       0.00000       0.00000       0.00000
 --------------------------------------------------------
       Center         ----  Spin Dipole Couplings  ----
                      3XX-RR        3YY-RR        3ZZ-RR
 --------------------------------------------------------
     1   Atom        0.000000      0.000000      0.000000
     2   Atom        0.000000      0.000000      0.000000
     3   Atom        0.000000      0.000000      0.000000
     4   Atom        0.000000      0.000000      0.000000
     5   Atom        0.000000      0.000000      0.000000
     6   Atom        0.000000      0.000000      0.000000
     7   Atom        0.000000      0.000000      0.000000
     8   Atom        0.000000      0.000000      0.000000
     9   Atom        0.000000      0.000000      0.000000
    10   Atom        0.000000      0.000000      0.000000
    11   Atom        0.000000      0.000000      0.000000
 --------------------------------------------------------
                        XY            XZ            YZ
 --------------------------------------------------------
     1   Atom        0.000000      0.000000      0.000000
     2   Atom        0.000000      0.000000      0.000000
     3   Atom        0.000000      0.000000      0.000000
     4   Atom        0.000000      0.000000      0.000000
     5   Atom        0.000000      0.000000      0.000000
     6   Atom        0.000000      0.000000      0.000000
     7   Atom        0.000000      0.000000      0.000000
     8   Atom        0.000000      0.000000      0.000000
     9   Atom        0.000000      0.000000      0.000000
    10   Atom        0.000000      0.000000      0.000000
    11   Atom        0.000000      0.000000      0.000000
 --------------------------------------------------------


 ---------------------------------------------------------------------------------
              Anisotropic Spin Dipole Couplings in Principal Axis System
 ---------------------------------------------------------------------------------

       Atom             a.u.   MegaHertz   Gauss  10(-4) cm-1        Axes

              Baa     0.0000     0.000     0.000     0.000  1.0000  0.0000  0.0000
     1 C(13)  Bbb     0.0000     0.000     0.000     0.000 -0.0000  1.0000  0.0000
              Bcc     0.0000     0.000     0.000     0.000  0.0000  0.0000  1.0000
 
              Baa     0.0000     0.000     0.000     0.000  1.0000  0.0000  0.0000
     2 C(13)  Bbb     0.0000     0.000     0.000     0.000 -0.0000  1.0000  0.0000
              Bcc     0.0000     0.000     0.000     0.000  0.0000  0.0000  1.0000
 
              Baa     0.0000     0.000     0.000     0.000  1.0000  0.0000  0.0000
     3 C(13)  Bbb     0.0000     0.000     0.000     0.000 -0.0000  1.0000  0.0000
              Bcc     0.0000     0.000     0.000     0.000  0.0000  0.0000  1.0000
 
              Baa     0.0000     0.000     0.000     0.000  1.0000  0.0000  0.0000
     4 C(13)  Bbb     0.0000     0.000     0.000     0.000 -0.0000  1.0000  0.0000
              Bcc     0.0000     0.000     0.000     0.000  0.0000  0.0000  1.0000
 
              Baa     0.0000     0.000     0.000     0.000  1.0000  0.0000  0.0000
     5 C(13)  Bbb     0.0000     0.000     0.000     0.000 -0.0000  1.0000  0.0000
              Bcc     0.0000     0.000     0.000     0.000  0.0000  0.0000  1.0000
 
              Baa     0.0000     0.000     0.000     0.000  1.0000  0.0000  0.0000
     6 H(1)   Bbb     0.0000     0.000     0.000     0.000 -0.0000  1.0000  0.0000
              Bcc     0.0000     0.000     0.000     0.000  0.0000  0.0000  1.0000
 
              Baa     0.0000     0.000     0.000     0.000  1.0000  0.0000  0.0000
     7 H(1)   Bbb     0.0000     0.000     0.000     0.000 -0.0000  1.0000  0.0000
              Bcc     0.0000     0.000     0.000     0.000  0.0000  0.0000  1.0000
 
              Baa     0.0000     0.000     0.000     0.000  1.0000  0.0000  0.0000
     8 H(1)   Bbb     0.0000     0.000     0.000     0.000 -0.0000  1.0000  0.0000
              Bcc     0.0000     0.000     0.000     0.000  0.0000  0.0000  1.0000
 
              Baa     0.0000     0.000     0.000     0.000  1.0000  0.0000  0.0000
     9 H(1)   Bbb     0.0000     0.000     0.000     0.000 -0.0000  1.0000  0.0000
              Bcc     0.0000     0.000     0.000     0.000  0.0000  0.0000  1.0000
 
              Baa     0.0000     0.000     0.000     0.000  1.0000  0.0000  0.0000
    10 H(1)   Bbb     0.0000     0.000     0.000     0.000 -0.0000  1.0000  0.0000
              Bcc     0.0000     0.000     0.000     0.000  0.0000  0.0000  1.0000
 
              Baa     0.0000     0.000     0.000     0.000  1.0000  0.0000  0.0000
    11 H(1)   Bbb     0.0000     0.000     0.000     0.000 -0.0000  1.0000  0.0000
              Bcc     0.0000     0.000     0.000     0.000  0.0000  0.0000  1.0000
 

 ---------------------------------------------------------------------------------

 No NMR shielding tensors so no spin-rotation constants.
 Leave Link  601 at Thu Mar  5 12:52:20 2020, MaxMem=  6710886400 cpu:               2.1 elap:               0.2
 (Enter /opt/ohpc/pub/libs/gaussian/g16-A.03/sandybridge/g16/l9999.exe)

 Test job not archived.
 1\1\GINC-CNODE212\SP\ULC-wHPBE\6-31G\C5H6\SMGO234\05-Mar-2020\0\\#P uL
 C-wHPBE/6-31G iop(3/130=0257600000, 3/131=0257600000, 3/119=0742400000
 , 3/120=0742400000) scf=(conver=6,fermi,ndamp=35,noincfock,novaracc,vs
 hift=500,xqc)\\H6 C5\\0,1\C,0,0.,0.878804,-0.931542\C,0,0.,1.128157,0.
 423457\C,0,0.,0.,1.240879\C,0,0.,-1.128157,0.423457\C,0,0.,-0.878804,-
 0.931542\H,0,0.,0.,-1.732269\H,0,0.,1.6083,-1.734053\H,0,0.,2.156626,0
 .76567\H,0,0.,0.,2.320778\H,0,0.,-2.156626,0.76567\H,0,0.,-1.6083,-1.7
 34053\\Version=EM64L-G16RevA.03\State=1-A1\HF=-197.1373984\S2=0.\S2-1=
 0.\S2A=0.\RMSD=8.057e-07\Dipole=0.,0.,-0.7790677\Quadrupole=-5.2253133
 ,1.8493212,3.375992,0.,0.,0.\PG=C02V [C2(H1C1H1),SGV(C4H4)]\\@


 SUCCESS-- IF YOU HAVE TRIED TO DO SOMETHING AND FAILED
           YOU ARE BETTER OFF THAN IF YOU HAD TRIED TO DO
           NOTHING AND SUCCEEDED.

                   -- FROM THE BACK OF A SUGAR PACKET
 Job cpu time:       0 days  0 hours  0 minutes 49.5 seconds.
 Elapsed time:       0 days  0 hours  0 minutes  3.4 seconds.
 File lengths (MBytes):  RWF=    272 Int=      0 D2E=      0 Chk=     32 Scr=     32
 Normal termination of Gaussian 16 at Thu Mar  5 12:52:20 2020.
