 Entering Gaussian System, Link 0=g16
 Input=a1b_tune_c8.gjf
 Output=a1b_tune_c8.log
 Initial command:
 /opt/ohpc/pub/libs/gaussian/g16-A.03/sandybridge/g16/l1.exe "/scratch/smgo234/Ocelot/test/a1b/tuning_a1b_acycle1/Gau-81207.inp" -scrdir="/scratch/smgo234/Ocelot/test/a1b/tuning_a1b_acycle1/"
 Entering Link 1 = /opt/ohpc/pub/libs/gaussian/g16-A.03/sandybridge/g16/l1.exe PID=     81208.
  
 Copyright (c) 1988,1990,1992,1993,1995,1998,2003,2009,2016,
            Gaussian, Inc.  All Rights Reserved.
  
 This is part of the Gaussian(R) 16 program.  It is based on
 the Gaussian(R) 09 system (copyright 2009, Gaussian, Inc.),
 the Gaussian(R) 03 system (copyright 2003, Gaussian, Inc.),
 the Gaussian(R) 98 system (copyright 1998, Gaussian, Inc.),
 the Gaussian(R) 94 system (copyright 1995, Gaussian, Inc.),
 the Gaussian 92(TM) system (copyright 1992, Gaussian, Inc.),
 the Gaussian 90(TM) system (copyright 1990, Gaussian, Inc.),
 the Gaussian 88(TM) system (copyright 1988, Gaussian, Inc.),
 the Gaussian 86(TM) system (copyright 1986, Carnegie Mellon
 University), and the Gaussian 82(TM) system (copyright 1983,
 Carnegie Mellon University). Gaussian is a federally registered
 trademark of Gaussian, Inc.
  
 This software contains proprietary and confidential information,
 including trade secrets, belonging to Gaussian, Inc.
  
 This software is provided under written license and may be
 used, copied, transmitted, or stored only in accord with that
 written license.
  
 The following legend is applicable only to US Government
 contracts under FAR:
  
                    RESTRICTED RIGHTS LEGEND
  
 Use, reproduction and disclosure by the US Government is
 subject to restrictions as set forth in subparagraphs (a)
 and (c) of the Commercial Computer Software - Restricted
 Rights clause in FAR 52.227-19.
  
 Gaussian, Inc.
 340 Quinnipiac St., Bldg. 40, Wallingford CT 06492
  
  
 ---------------------------------------------------------------
 Warning -- This program may not be used in any manner that
 competes with the business of Gaussian, Inc. or will provide
 assistance to any competitor of Gaussian, Inc.  The licensee
 of this program is prohibited from giving any competitor of
 Gaussian, Inc. access to this program.  By using this program,
 the user acknowledges that Gaussian, Inc. is engaged in the
 business of creating and licensing software in the field of
 computational chemistry and represents and warrants to the
 licensee that it is not a competitor of Gaussian, Inc. and that
 it will not use this program in any manner prohibited above.
 ---------------------------------------------------------------
  

 Cite this work as:
 Gaussian 16, Revision A.03,
 M. J. Frisch, G. W. Trucks, H. B. Schlegel, G. E. Scuseria, 
 M. A. Robb, J. R. Cheeseman, G. Scalmani, V. Barone, 
 G. A. Petersson, H. Nakatsuji, X. Li, M. Caricato, A. V. Marenich, 
 J. Bloino, B. G. Janesko, R. Gomperts, B. Mennucci, H. P. Hratchian, 
 J. V. Ortiz, A. F. Izmaylov, J. L. Sonnenberg, D. Williams-Young, 
 F. Ding, F. Lipparini, F. Egidi, J. Goings, B. Peng, A. Petrone, 
 T. Henderson, D. Ranasinghe, V. G. Zakrzewski, J. Gao, N. Rega, 
 G. Zheng, W. Liang, M. Hada, M. Ehara, K. Toyota, R. Fukuda, 
 J. Hasegawa, M. Ishida, T. Nakajima, Y. Honda, O. Kitao, H. Nakai, 
 T. Vreven, K. Throssell, J. A. Montgomery, Jr., J. E. Peralta, 
 F. Ogliaro, M. J. Bearpark, J. J. Heyd, E. N. Brothers, K. N. Kudin, 
 V. N. Staroverov, T. A. Keith, R. Kobayashi, J. Normand, 
 K. Raghavachari, A. P. Rendell, J. C. Burant, S. S. Iyengar, 
 J. Tomasi, M. Cossi, J. M. Millam, M. Klene, C. Adamo, R. Cammi, 
 J. W. Ochterski, R. L. Martin, K. Morokuma, O. Farkas, 
 J. B. Foresman, and D. J. Fox, Gaussian, Inc., Wallingford CT, 2016.
 
 ******************************************
 Gaussian 16:  EM64L-G16RevA.03 25-Dec-2016
                 5-Mar-2020 
 ******************************************
 %mem=50GB
 %nproc=16
 Will use up to   16 processors via shared memory.
 ----------------------------------------------------------------------
 #P uLC-wHPBE/6-31G iop(3/130=0250200000, 3/131=0250200000, 3/119=07498
 00000, 3/120=0749800000) scf=(conver=6,fermi,ndamp=35,noincfock,novara
 cc,vshift=500,xqc)
 ----------------------------------------------------------------------
 1/38=1,172=1/1;
 2/12=2,17=6,18=5,40=1/2;
 3/5=1,6=6,11=2,25=1,30=1,74=-71,116=2,119=749800000,120=749800000,130=250200000,131=250200000/1,2,3;
 4//1;
 5/5=100002,6=6,8=3,10=500,13=1,18=-1,22=13,38=1,93=35/2,8;
 6/7=2,8=2,9=2,10=2,28=1/1;
 99/5=1,9=1/99;
 Leave Link    1 at Thu Mar  5 12:52:47 2020, MaxMem=  6710886400 cpu:              16.9 elap:               1.1
 (Enter /opt/ohpc/pub/libs/gaussian/g16-A.03/sandybridge/g16/l101.exe)
 -----
 H6 C5
 -----
 Symbolic Z-matrix:
 Charge =  1 Multiplicity = 2
 C                     0.        0.8788   -0.93154 
 C                     0.        1.12816   0.42346 
 C                     0.        0.        1.24088 
 C                     0.       -1.12816   0.42346 
 C                     0.       -0.8788   -0.93154 
 H                     0.        0.       -1.73227 
 H                     0.        1.6083   -1.73405 
 H                     0.        2.15663   0.76567 
 H                     0.        0.        2.32078 
 H                     0.       -2.15663   0.76567 
 H                     0.       -1.6083   -1.73405 
 
 ITRead=  0  0  0  0  0  0  0  0  0  0  0
 MicOpt= -1 -1 -1 -1 -1 -1 -1 -1 -1 -1 -1
 NAtoms=     11 NQM=       11 NQMF=       0 NMMI=      0 NMMIF=      0
                NMic=       0 NMicF=      0.
                    Isotopes and Nuclear Properties:
 (Nuclear quadrupole moments (NQMom) in fm**2, nuclear magnetic moments (NMagM)
  in nuclear magnetons)

  Atom         1           2           3           4           5           6           7           8           9          10
 IAtWgt=          12          12          12          12          12           1           1           1           1           1
 AtmWgt=  12.0000000  12.0000000  12.0000000  12.0000000  12.0000000   1.0078250   1.0078250   1.0078250   1.0078250   1.0078250
 NucSpn=           0           0           0           0           0           1           1           1           1           1
 AtZEff=  -0.0000000  -0.0000000  -0.0000000  -0.0000000  -0.0000000  -0.0000000  -0.0000000  -0.0000000  -0.0000000  -0.0000000
 NQMom=    0.0000000   0.0000000   0.0000000   0.0000000   0.0000000   0.0000000   0.0000000   0.0000000   0.0000000   0.0000000
 NMagM=    0.0000000   0.0000000   0.0000000   0.0000000   0.0000000   2.7928460   2.7928460   2.7928460   2.7928460   2.7928460
 AtZNuc=   6.0000000   6.0000000   6.0000000   6.0000000   6.0000000   1.0000000   1.0000000   1.0000000   1.0000000   1.0000000

  Atom        11
 IAtWgt=           1
 AtmWgt=   1.0078250
 NucSpn=           1
 AtZEff=  -0.0000000
 NQMom=    0.0000000
 NMagM=    2.7928460
 AtZNuc=   1.0000000
 Leave Link  101 at Thu Mar  5 12:52:47 2020, MaxMem=  6710886400 cpu:               3.1 elap:               0.2
 (Enter /opt/ohpc/pub/libs/gaussian/g16-A.03/sandybridge/g16/l202.exe)
                          Input orientation:                          
 ---------------------------------------------------------------------
 Center     Atomic      Atomic             Coordinates (Angstroms)
 Number     Number       Type             X           Y           Z
 ---------------------------------------------------------------------
      1          6           0        0.000000    0.878804   -0.931542
      2          6           0        0.000000    1.128157    0.423457
      3          6           0        0.000000    0.000000    1.240879
      4          6           0        0.000000   -1.128157    0.423457
      5          6           0        0.000000   -0.878804   -0.931542
      6          1           0        0.000000    0.000000   -1.732269
      7          1           0        0.000000    1.608300   -1.734053
      8          1           0        0.000000    2.156626    0.765670
      9          1           0        0.000000    0.000000    2.320778
     10          1           0        0.000000   -2.156626    0.765670
     11          1           0        0.000000   -1.608300   -1.734053
 ---------------------------------------------------------------------
                    Distance matrix (angstroms):
                    1          2          3          4          5
     1  C    0.000000
     2  C    1.377752   0.000000
     3  C    2.343440   1.393168   0.000000
     4  C    2.421552   2.256314   1.393168   0.000000
     5  C    1.757608   2.421552   2.343440   1.377752   0.000000
     6  H    1.188890   2.433083   2.973148   2.433083   1.188890
     7  H    1.084522   2.210291   3.381841   3.484687   2.613371
     8  H    2.124466   1.083909   2.208361   3.302561   3.477695
     9  H    3.368959   2.207389   1.079899   2.207389   3.368959
    10  H    3.477695   3.302561   2.208361   1.083909   2.124466
    11  H    2.613371   3.484687   3.381841   2.210291   1.084522
                    6          7          8          9         10
     6  H    0.000000
     7  H    1.608301   0.000000
     8  H    3.300111   2.559155   0.000000
     9  H    4.053047   4.362142   2.658834   0.000000
    10  H    3.300111   4.519213   4.313252   2.658834   0.000000
    11  H    1.608301   3.216600   4.519213   4.362142   2.559155
                   11
    11  H    0.000000
 Stoichiometry    C5H6(1+,2)
 Framework group  C2V[C2(HCH),SGV(C4H4)]
 Deg. of freedom    10
 Full point group                 C2V     NOp   4
 Largest Abelian subgroup         C2V     NOp   4
 Largest concise Abelian subgroup C2      NOp   2
                         Standard orientation:                         
 ---------------------------------------------------------------------
 Center     Atomic      Atomic             Coordinates (Angstroms)
 Number     Number       Type             X           Y           Z
 ---------------------------------------------------------------------
      1          6           0        0.000000    0.878804   -0.931542
      2          6           0        0.000000    1.128157    0.423457
      3          6           0        0.000000   -0.000000    1.240879
      4          6           0       -0.000000   -1.128157    0.423457
      5          6           0       -0.000000   -0.878804   -0.931542
      6          1           0       -0.000000    0.000000   -1.732269
      7          1           0        0.000000    1.608300   -1.734053
      8          1           0        0.000000    2.156626    0.765670
      9          1           0        0.000000   -0.000000    2.320778
     10          1           0       -0.000000   -2.156626    0.765670
     11          1           0       -0.000000   -1.608300   -1.734053
 ---------------------------------------------------------------------
 Rotational constants (GHZ):           8.5259551           7.9375455           4.1106177
 Leave Link  202 at Thu Mar  5 12:52:47 2020, MaxMem=  6710886400 cpu:               0.3 elap:               0.0
 (Enter /opt/ohpc/pub/libs/gaussian/g16-A.03/sandybridge/g16/l301.exe)
 Standard basis: 6-31G (6D, 7F)
 Ernie: Thresh=  0.10000D-02 Tol=  0.10000D-05 Strict=F.
 There are    27 symmetry adapted cartesian basis functions of A1  symmetry.
 There are     4 symmetry adapted cartesian basis functions of A2  symmetry.
 There are     6 symmetry adapted cartesian basis functions of B1  symmetry.
 There are    20 symmetry adapted cartesian basis functions of B2  symmetry.
 There are    27 symmetry adapted basis functions of A1  symmetry.
 There are     4 symmetry adapted basis functions of A2  symmetry.
 There are     6 symmetry adapted basis functions of B1  symmetry.
 There are    20 symmetry adapted basis functions of B2  symmetry.
    57 basis functions,   134 primitive gaussians,    57 cartesian basis functions
    18 alpha electrons       17 beta electrons
       nuclear repulsion energy       156.0127424860 Hartrees.
 IExCor=33909 DFT=T Ex+Corr=LC-wHPBE ExCW=0 ScaHFX=  1.000000
 ScaDFX=  1.000000  1.000000  1.000000  1.000000 ScalE2=  1.000000  1.000000
 IRadAn=      5 IRanWt=     -1 IRanGd=            0 ICorTp=0 IEmpDi=  4
 HFx  wShort=  0.000000 wLong=  0.400000 cFull=  0.000000 cShort=  0.000000 cLong=  0.749800
 DFx  wShort=  0.000000 wLong=  0.400000 cFull=  0.000000 cShort=  0.000000 cLong=  0.749800
 NAtoms=   11 NActive=   11 NUniq=    7 SFac= 2.47D+00 NAtFMM=   60 NAOKFM=F Big=F
 Integral buffers will be    131072 words long.
 Raffenetti 2 integral format.
 Two-electron integral symmetry is turned on.
 Leave Link  301 at Thu Mar  5 12:52:47 2020, MaxMem=  6710886400 cpu:               0.9 elap:               0.1
 (Enter /opt/ohpc/pub/libs/gaussian/g16-A.03/sandybridge/g16/l302.exe)
 NPDir=0 NMtPBC=     1 NCelOv=     1 NCel=       1 NClECP=     1 NCelD=      1
         NCelK=      1 NCelE2=     1 NClLst=     1 CellRange=     0.0.
 One-electron integrals computed using PRISM.
 One-electron integral symmetry used in STVInt
 NBasis=    57 RedAO= T EigKep=  1.84D-03  NBF=    27     4     6    20
 NBsUse=    57 1.00D-06 EigRej= -1.00D+00 NBFU=    27     4     6    20
 Precomputing XC quadrature grid using
 IXCGrd= 4 IRadAn=           5 IRanWt=          -1 IRanGd=           0 AccXCQ= 0.00D+00.
 Generated NRdTot=       0 NPtTot=           0 NUsed=           0 NTot=          32
 NSgBfM=    57    57    57    57    57 MxSgAt=    11 MxSgA2=    11.
 Leave Link  302 at Thu Mar  5 12:52:48 2020, MaxMem=  6710886400 cpu:               1.9 elap:               0.3
 (Enter /opt/ohpc/pub/libs/gaussian/g16-A.03/sandybridge/g16/l303.exe)
 DipDrv:  MaxL=1.
 Leave Link  303 at Thu Mar  5 12:52:48 2020, MaxMem=  6710886400 cpu:               0.9 elap:               0.1
 (Enter /opt/ohpc/pub/libs/gaussian/g16-A.03/sandybridge/g16/l401.exe)
 ExpMin= 1.61D-01 ExpMax= 3.05D+03 ExpMxC= 4.57D+02 IAcc=3 IRadAn=         5 AccDes= 0.00D+00
 Harris functional with IExCor=33909 and IRadAn=       5 diagonalized for initial guess.
 HarFok:  IExCor=33909 AccDes= 0.00D+00 IRadAn=         5 IDoV= 1 UseB2=F ITyADJ=14
 ICtDFT=  3500011 ScaDFX=  1.000000  1.000000  1.000000  1.000000
 FoFCou: FMM=F IPFlag=           0 FMFlag=      100000 FMFlg1=           0
         NFxFlg=           0 DoJE=T BraDBF=F KetDBF=T FulRan=T
         wScrn=  0.000000 ICntrl=       500 IOpCl=  0 I1Cent=   200000004 NGrid=           0
         NMat0=    1 NMatS0=      1 NMatT0=    0 NMatD0=    1 NMtDS0=    0 NMtDT0=    0
 Petite list used in FoFCou.
 Harris En= -171.612826440828    
 JPrj=0 DoOrth=F DoCkMO=F.
 Initial guess orbital symmetries:
 Alpha Orbitals:
       Occupied  (A1) (B2) (A1) (B2) (A1) (A1) (A1) (B2) (A1) (A1)
                 (B2) (B1) (B2) (A1) (A1) (B2) (A2) (B1)
       Virtual   (A2) (A1) (B2) (B1) (A1) (B2) (A1) (A1) (B2) (A1)
                 (B2) (B2) (A1) (B1) (B2) (A2) (A1) (B1) (A1) (B2)
                 (A2) (A1) (B1) (B2) (A1) (B2) (B2) (A1) (A1) (B2)
                 (A1) (A1) (A1) (B2) (B2) (A1) (A1) (A1) (B2)
 Beta  Orbitals:
       Occupied  (A1) (B2) (A1) (B2) (A1) (A1) (A1) (B2) (A1) (A1)
                 (B2) (B1) (B2) (A1) (A1) (B2) (A2)
       Virtual   (B1) (A2) (A1) (B2) (B1) (A1) (B2) (A1) (A1) (B2)
                 (A1) (B2) (B2) (A1) (B1) (B2) (A2) (A1) (B1) (A1)
                 (B2) (A2) (A1) (B1) (B2) (A1) (B2) (B2) (A1) (A1)
                 (B2) (A1) (A1) (A1) (B2) (B2) (A1) (A1) (A1) (B2)
 The electronic state of the initial guess is 2-B1.
 Initial guess <Sx>= 0.0000 <Sy>= 0.0000 <Sz>= 0.5000 <S**2>= 0.7500 S= 0.5000
 Leave Link  401 at Thu Mar  5 12:52:48 2020, MaxMem=  6710886400 cpu:               3.0 elap:               0.2
 (Enter /opt/ohpc/pub/libs/gaussian/g16-A.03/sandybridge/g16/l502.exe)
 Keep R1 and R2 ints in memory in symmetry-blocked form, NReq=16815681.
 FoFCou: FMM=F IPFlag=           0 FMFlag=           0 FMFlg1=           0
         NFxFlg=           0 DoJE=F BraDBF=F KetDBF=F FulRan=T
         wScrn=  0.000000 ICntrl=       600 IOpCl=  0 I1Cent=           0 NGrid=           0
         NMat0=    1 NMatS0=   1653 NMatT0=    0 NMatD0=    1 NMtDS0=    0 NMtDT0=    0
 Petite list used in FoFCou.
 UHF open shell SCF:
 Using DIIS extrapolation, IDIIS=    10.
 NGot=  6710886400 LenX=  6710059561 LenY=  6710055871
 Requested convergence on RMS density matrix=1.00D-06 within  32 cycles.
 Requested convergence on MAX density matrix=1.00D-04.
 Requested convergence on             energy=1.00D-04.
 Virtual orbitals will be shifted by   0.500 hartree.
 No special actions if energy rises.
 Dynamic level shift is on during FON iterations.

 Cycle   1  Pass 1  IDiag  1:
 E= -176.227597076882    
 DIIS: error= 6.70D-02 at cycle   1 NSaved=   1.
 NSaved= 1 IEnMin= 1 EnMin= -176.227597076882     IErMin= 1 ErrMin= 6.70D-02
 ErrMax= 6.70D-02  0.00D+00 EMaxC= 1.00D+00 BMatC= 8.12D-01 BMatP= 8.12D-01
 IDIUse=1 WtCom= 1.00D+00 WtEn= 0.00D+00
 Coeff-Com:  0.100D+01
 Coeff:      0.100D+01
 Gap=     0.382 Goal=   None    Shift=    0.500
 T= 1978. Gap= 0.834 NK=0 IS=   19 IE=   57 IFin=   18
          NO(<0.9)=   0  NV(>0.1)=   0     18.00e < EF      0.00e >EF  Err=0.0D+00
 Gap=     0.185 Goal=   None    Shift=    0.500
 T= 1978. Gap= 0.682 NK=0 IS=   18 IE=   57 IFin=   17
          NO(<0.9)=   0  NV(>0.1)=   0     17.00e < EF      0.00e >EF  Err=0.0D+00
 GapD=    0.185 DampG=1.000 DampE=0.500 DampFc=0.5000 IDamp=-1.
 Damping current iteration by 5.00D-01
 RMSDP=1.28D-02 MaxDP=1.09D-01              OVMax= 1.16D-01

 Cycle   2  Pass 1  IDiag  1:
 E= -176.375099171686     Delta-E=       -0.147502094804 Rises=F Damp=T
 DIIS: error= 2.78D-02 at cycle   2 NSaved=   2.
 NSaved= 2 IEnMin= 2 EnMin= -176.375099171686     IErMin= 2 ErrMin= 2.78D-02
 ErrMax= 2.78D-02  0.00D+00 EMaxC= 1.00D+00 BMatC= 1.31D-01 BMatP= 8.12D-01
 IDIUse=1 WtCom= 1.00D+00 WtEn= 0.00D+00
 Coeff-Com: -0.593D+00 0.159D+01
 Coeff:     -0.593D+00 0.159D+01
 Gap=     0.399 Goal=   None    Shift=    0.500
 T= 1848. Gap= 0.881 NK=0 IS=   19 IE=   57 IFin=   18
          NO(<0.9)=   0  NV(>0.1)=   0     18.00e < EF      0.00e >EF  Err=0.0D+00
 Gap=     0.206 Goal=   None    Shift=    0.500
 T= 1848. Gap= 0.698 NK=0 IS=   18 IE=   57 IFin=   17
          NO(<0.9)=   0  NV(>0.1)=   0     17.00e < EF      0.00e >EF  Err=0.0D+00
 GapD=    0.206 DampG=1.000 DampE=0.500 DampFc=0.5000 IDamp=-1.
 Damping current iteration by 5.00D-01
 RMSDP=8.50D-03 MaxDP=7.99D-02 DE=-1.48D-01 OVMax= 1.20D-02

 Cycle   3  Pass 1  IDiag  1:
 E= -176.424898984233     Delta-E=       -0.049799812547 Rises=F Damp=T
 DIIS: error= 1.18D-02 at cycle   3 NSaved=   3.
 NSaved= 3 IEnMin= 3 EnMin= -176.424898984233     IErMin= 3 ErrMin= 1.18D-02
 ErrMax= 1.18D-02  0.00D+00 EMaxC= 1.00D+00 BMatC= 2.48D-02 BMatP= 1.31D-01
 IDIUse=1 WtCom= 1.00D+00 WtEn= 0.00D+00
 Coeff-Com:  0.234D+00-0.153D+01 0.229D+01
 Coeff:      0.234D+00-0.153D+01 0.229D+01
 Gap=     0.379 Goal=   None    Shift=    0.500
 T= 1597. Gap= 0.879 NK=0 IS=   19 IE=   57 IFin=   18
          NO(<0.9)=   0  NV(>0.1)=   0     18.00e < EF      0.00e >EF  Err=0.0D+00
 Gap=     0.201 Goal=   None    Shift=    0.500
 T= 1597. Gap= 0.701 NK=0 IS=   18 IE=   57 IFin=   17
          NO(<0.9)=   0  NV(>0.1)=   0     17.00e < EF      0.00e >EF  Err=0.0D+00
 GapD=    0.201 DampG=1.000 DampE=0.500 DampFc=0.5000 IDamp=-1.
 Damping current iteration by 5.00D-01
 RMSDP=5.07D-03 MaxDP=4.98D-02 DE=-4.98D-02 OVMax= 9.76D-03

 Cycle   4  Pass 1  IDiag  1:
 E= -176.446074453792     Delta-E=       -0.021175469559 Rises=F Damp=T
 DIIS: error= 5.29D-03 at cycle   4 NSaved=   4.
 NSaved= 4 IEnMin= 4 EnMin= -176.446074453792     IErMin= 4 ErrMin= 5.29D-03
 ErrMax= 5.29D-03  0.00D+00 EMaxC= 1.00D+00 BMatC= 5.72D-03 BMatP= 2.48D-02
 IDIUse=1 WtCom= 1.00D+00 WtEn= 0.00D+00
 Coeff-Com:  0.150D+00-0.488D+00-0.549D+00 0.189D+01
 Coeff:      0.150D+00-0.488D+00-0.549D+00 0.189D+01
 Gap=     0.381 Goal=   None    Shift=    0.500
 T= 1078. Gap= 0.881 NK=0 IS=   19 IE=   57 IFin=   18
          NO(<0.9)=   0  NV(>0.1)=   0     18.00e < EF      0.00e >EF  Err=0.0D+00
 Gap=     0.202 Goal=   None    Shift=    0.500
 T= 1078. Gap= 0.702 NK=0 IS=   18 IE=   57 IFin=   17
          NO(<0.9)=   0  NV(>0.1)=   0     17.00e < EF      0.00e >EF  Err=0.0D+00
 GapD=    0.202 DampG=1.000 DampE=1.000 DampFc=1.0000 IDamp=-1.
 RMSDP=2.86D-03 MaxDP=2.90D-02 DE=-2.12D-02 OVMax= 4.70D-03

 Cycle   5  Pass 1  IDiag  1:
 E= -176.465959497575     Delta-E=       -0.019885043783 Rises=F Damp=F
 DIIS: error= 1.30D-03 at cycle   5 NSaved=   5.
 NSaved= 5 IEnMin= 5 EnMin= -176.465959497575     IErMin= 5 ErrMin= 1.30D-03
 ErrMax= 1.30D-03  0.00D+00 EMaxC= 1.00D+00 BMatC= 1.39D-04 BMatP= 5.72D-03
 IDIUse=1 WtCom= 1.00D+00 WtEn= 0.00D+00
 Coeff-Com: -0.255D-01 0.162D+00 0.152D+00-0.782D+00 0.149D+01
 Coeff:     -0.255D-01 0.162D+00 0.152D+00-0.782D+00 0.149D+01
 Gap=     0.381 Goal=   None    Shift=    0.500
 T=  542. Gap= 0.881 NK=0 IS=   19 IE=   57 IFin=   18
          NO(<0.9)=   0  NV(>0.1)=   0     18.00e < EF      0.00e >EF  Err=0.0D+00
 Gap=     0.202 Goal=   None    Shift=    0.500
 T=  542. Gap= 0.702 NK=0 IS=   18 IE=   57 IFin=   17
          NO(<0.9)=   0  NV(>0.1)=   0     17.00e < EF      0.00e >EF  Err=0.0D+00
 GapD=    0.202 DampG=1.000 DampE=1.000 DampFc=1.0000 IDamp=-1.
 RMSDP=2.66D-04 MaxDP=2.64D-03 DE=-1.99D-02 OVMax= 4.18D-03

 Cycle   6  Pass 1  IDiag  1:
 E= -176.466046481092     Delta-E=       -0.000086983517 Rises=F Damp=F
 DIIS: error= 8.82D-04 at cycle   6 NSaved=   6.
 NSaved= 6 IEnMin= 6 EnMin= -176.466046481092     IErMin= 6 ErrMin= 8.82D-04
 ErrMax= 8.82D-04  0.00D+00 EMaxC= 1.00D+00 BMatC= 3.42D-05 BMatP= 1.39D-04
 IDIUse=1 WtCom= 1.00D+00 WtEn= 0.00D+00
 Coeff-Com: -0.134D-01-0.361D-02 0.782D-01-0.359D-01-0.123D+01 0.221D+01
 Coeff:     -0.134D-01-0.361D-02 0.782D-01-0.359D-01-0.123D+01 0.221D+01
 Gap=     0.381 Goal=   None    Shift=    0.500
 Gap=     0.203 Goal=   None    Shift=    0.500
 RMSDP=1.40D-04 MaxDP=1.83D-03 DE=-8.70D-05 OVMax= 3.39D-03

 Cycle   7  Pass 1  IDiag  1:
 E= -176.466081623990     Delta-E=       -0.000035142899 Rises=F Damp=F
 DIIS: error= 6.53D-04 at cycle   7 NSaved=   7.
 NSaved= 7 IEnMin= 7 EnMin= -176.466081623990     IErMin= 7 ErrMin= 6.53D-04
 ErrMax= 6.53D-04  0.00D+00 EMaxC= 1.00D+00 BMatC= 1.16D-05 BMatP= 3.42D-05
 IDIUse=1 WtCom= 1.00D+00 WtEn= 0.00D+00
 Coeff-Com:  0.754D-02-0.259D-01-0.124D+00 0.294D+00-0.262D+00-0.124D+01
 Coeff-Com:  0.235D+01
 Coeff:      0.754D-02-0.259D-01-0.124D+00 0.294D+00-0.262D+00-0.124D+01
 Coeff:      0.235D+01
 Gap=     0.381 Goal=   None    Shift=    0.500
 Gap=     0.203 Goal=   None    Shift=    0.500
 RMSDP=7.92D-05 MaxDP=1.35D-03 DE=-3.51D-05 OVMax= 2.52D-03

 Cycle   8  Pass 1  IDiag  1:
 E= -176.466096766578     Delta-E=       -0.000015142587 Rises=F Damp=F
 DIIS: error= 4.78D-04 at cycle   8 NSaved=   8.
 NSaved= 8 IEnMin= 8 EnMin= -176.466096766578     IErMin= 8 ErrMin= 4.78D-04
 ErrMax= 4.78D-04  0.00D+00 EMaxC= 1.00D+00 BMatC= 4.24D-06 BMatP= 1.16D-05
 IDIUse=1 WtCom= 1.00D+00 WtEn= 0.00D+00
 Coeff-Com:  0.471D-02-0.225D-02-0.979D-01 0.167D+00 0.137D+00-0.971D+00
 Coeff-Com:  0.153D+00 0.161D+01
 Coeff:      0.471D-02-0.225D-02-0.979D-01 0.167D+00 0.137D+00-0.971D+00
 Coeff:      0.153D+00 0.161D+01
 Gap=     0.381 Goal=   None    Shift=    0.500
 Gap=     0.203 Goal=   None    Shift=    0.500
 RMSDP=4.39D-05 MaxDP=8.68D-04 DE=-1.51D-05 OVMax= 1.77D-03

 Cycle   9  Pass 1  IDiag  1:
 E= -176.466102657941     Delta-E=       -0.000005891364 Rises=F Damp=F
 DIIS: error= 3.16D-04 at cycle   9 NSaved=   9.
 NSaved= 9 IEnMin= 9 EnMin= -176.466102657941     IErMin= 9 ErrMin= 3.16D-04
 ErrMax= 3.16D-04  0.00D+00 EMaxC= 1.00D+00 BMatC= 1.66D-06 BMatP= 4.24D-06
 IDIUse=1 WtCom= 1.00D+00 WtEn= 0.00D+00
 Coeff-Com: -0.257D-02 0.162D-01 0.137D-03-0.470D-01 0.163D+00 0.270D+00
 Coeff-Com: -0.133D+01-0.712D-01 0.200D+01
 Coeff:     -0.257D-02 0.162D-01 0.137D-03-0.470D-01 0.163D+00 0.270D+00
 Coeff:     -0.133D+01-0.712D-01 0.200D+01
 Gap=     0.381 Goal=   None    Shift=    0.500
 Gap=     0.203 Goal=   None    Shift=    0.500
 RMSDP=2.77D-05 MaxDP=5.47D-04 DE=-5.89D-06 OVMax= 1.22D-03

 Cycle  10  Pass 1  IDiag  1:
 E= -176.466105059803     Delta-E=       -0.000002401862 Rises=F Damp=F
 DIIS: error= 2.14D-04 at cycle  10 NSaved=  10.
 NSaved=10 IEnMin=10 EnMin= -176.466105059803     IErMin=10 ErrMin= 2.14D-04
 ErrMax= 2.14D-04  0.00D+00 EMaxC= 1.00D+00 BMatC= 6.52D-07 BMatP= 1.66D-06
 IDIUse=1 WtCom= 1.00D+00 WtEn= 0.00D+00
 Coeff-Com: -0.208D-03 0.837D-03-0.177D-01 0.342D-01-0.948D-01 0.159D+00
 Coeff-Com:  0.193D+00-0.262D+00-0.206D+01 0.305D+01
 Coeff:     -0.208D-03 0.837D-03-0.177D-01 0.342D-01-0.948D-01 0.159D+00
 Coeff:      0.193D+00-0.262D+00-0.206D+01 0.305D+01
 Gap=     0.381 Goal=   None    Shift=    0.500
 Gap=     0.203 Goal=   None    Shift=    0.500
 RMSDP=1.62D-05 MaxDP=3.11D-04 DE=-2.40D-06 OVMax= 8.24D-04

 Cycle  11  Pass 1  IDiag  1:
 E= -176.466105959713     Delta-E=       -0.000000899910 Rises=F Damp=F
 DIIS: error= 1.38D-04 at cycle  11 NSaved=  11.
 NSaved=11 IEnMin=11 EnMin= -176.466105959713     IErMin=11 ErrMin= 1.38D-04
 ErrMax= 1.38D-04  0.00D+00 EMaxC= 1.00D+00 BMatC= 2.46D-07 BMatP= 6.52D-07
 IDIUse=1 WtCom= 1.00D+00 WtEn= 0.00D+00
 Coeff-Com:  0.365D-03 0.161D-03-0.919D-02 0.149D-01-0.406D-02-0.808D-01
 Coeff-Com:  0.189D+00-0.315D-01 0.400D+00-0.284D+01 0.336D+01
 Coeff:      0.365D-03 0.161D-03-0.919D-02 0.149D-01-0.406D-02-0.808D-01
 Coeff:      0.189D+00-0.315D-01 0.400D+00-0.284D+01 0.336D+01
 Gap=     0.381 Goal=   None    Shift=    0.500
 Gap=     0.203 Goal=   None    Shift=    0.500
 RMSDP=9.20D-06 MaxDP=1.64D-04 DE=-9.00D-07 OVMax= 5.36D-04

 Cycle  12  Pass 1  IDiag  1:
 E= -176.466106280812     Delta-E=       -0.000000321100 Rises=F Damp=F
 DIIS: error= 8.64D-05 at cycle  12 NSaved=  12.
 NSaved=12 IEnMin=12 EnMin= -176.466106280812     IErMin=12 ErrMin= 8.64D-05
 ErrMax= 8.64D-05  0.00D+00 EMaxC= 1.00D+00 BMatC= 8.96D-08 BMatP= 2.46D-07
 IDIUse=1 WtCom= 1.00D+00 WtEn= 0.00D+00
 Coeff-Com:  0.173D-04-0.341D-03 0.127D-02-0.147D-02 0.240D-02 0.197D-01
 Coeff-Com: -0.465D-01-0.603D-01 0.234D+00 0.359D+00-0.280D+01 0.330D+01
 Coeff:      0.173D-04-0.341D-03 0.127D-02-0.147D-02 0.240D-02 0.197D-01
 Coeff:     -0.465D-01-0.603D-01 0.234D+00 0.359D+00-0.280D+01 0.330D+01
 Gap=     0.381 Goal=   None    Shift=    0.500
 Gap=     0.203 Goal=   None    Shift=    0.500
 RMSDP=5.18D-06 MaxDP=8.69D-05 DE=-3.21D-07 OVMax= 3.34D-04

 Cycle  13  Pass 1  IDiag  1:
 E= -176.466106392213     Delta-E=       -0.000000111400 Rises=F Damp=F
 DIIS: error= 5.44D-05 at cycle  13 NSaved=  13.
 NSaved=13 IEnMin=13 EnMin= -176.466106392213     IErMin=13 ErrMin= 5.44D-05
 ErrMax= 5.44D-05  0.00D+00 EMaxC= 1.00D+00 BMatC= 3.56D-08 BMatP= 8.96D-08
 IDIUse=1 WtCom= 1.00D+00 WtEn= 0.00D+00
 Coeff-Com: -0.544D-04 0.174D-03-0.124D-02 0.213D-02-0.737D-02 0.381D-01
 Coeff-Com: -0.394D-01-0.567D-01-0.691D-01 0.879D+00-0.135D+01-0.110D+01
 Coeff-Com:  0.270D+01
 Coeff:     -0.544D-04 0.174D-03-0.124D-02 0.213D-02-0.737D-02 0.381D-01
 Coeff:     -0.394D-01-0.567D-01-0.691D-01 0.879D+00-0.135D+01-0.110D+01
 Coeff:      0.270D+01
 Gap=     0.381 Goal=   None    Shift=    0.500
 Gap=     0.203 Goal=   None    Shift=    0.500
 RMSDP=2.88D-06 MaxDP=4.60D-05 DE=-1.11D-07 OVMax= 2.09D-04

 Cycle  14  Pass 1  IDiag  1:
 E= -176.466106431981     Delta-E=       -0.000000039768 Rises=F Damp=F
 DIIS: error= 3.37D-05 at cycle  14 NSaved=  14.
 NSaved=14 IEnMin=14 EnMin= -176.466106431981     IErMin=14 ErrMin= 3.37D-05
 ErrMax= 3.37D-05  0.00D+00 EMaxC= 1.00D+00 BMatC= 1.43D-08 BMatP= 3.56D-08
 IDIUse=1 WtCom= 1.00D+00 WtEn= 0.00D+00
 Coeff-Com:  0.150D-05 0.308D-03-0.248D-02 0.371D-02-0.369D-02-0.736D-02
 Coeff-Com:  0.286D-01-0.939D-02 0.122D-01-0.262D+00 0.712D+00 0.971D-01
 Coeff-Com: -0.350D+01 0.393D+01
 Coeff:      0.150D-05 0.308D-03-0.248D-02 0.371D-02-0.369D-02-0.736D-02
 Coeff:      0.286D-01-0.939D-02 0.122D-01-0.262D+00 0.712D+00 0.971D-01
 Coeff:     -0.350D+01 0.393D+01
 Gap=     0.381 Goal=   None    Shift=    0.500
 Gap=     0.203 Goal=   None    Shift=    0.500
 RMSDP=1.63D-06 MaxDP=2.50D-05 DE=-3.98D-08 OVMax= 1.29D-04

 Cycle  15  Pass 1  IDiag  1:
 E= -176.466106446206     Delta-E=       -0.000000014226 Rises=F Damp=F
 DIIS: error= 2.06D-05 at cycle  15 NSaved=  15.
 NSaved=15 IEnMin=15 EnMin= -176.466106446206     IErMin=15 ErrMin= 2.06D-05
 ErrMax= 2.06D-05  0.00D+00 EMaxC= 1.00D+00 BMatC= 5.75D-09 BMatP= 1.43D-08
 IDIUse=1 WtCom= 1.00D+00 WtEn= 0.00D+00
 Coeff-Com: -0.994D-06-0.225D-05-0.222D-03 0.441D-03-0.373D-03 0.269D-02
 Coeff-Com: -0.150D-02-0.184D-01 0.175D-01 0.975D-01-0.290D+00 0.389D+00
 Coeff-Com:  0.284D+00-0.291D+01 0.343D+01
 Coeff:     -0.994D-06-0.225D-05-0.222D-03 0.441D-03-0.373D-03 0.269D-02
 Coeff:     -0.150D-02-0.184D-01 0.175D-01 0.975D-01-0.290D+00 0.389D+00
 Coeff:      0.284D+00-0.291D+01 0.343D+01
 Gap=     0.381 Goal=   None    Shift=    0.500
 Gap=     0.203 Goal=   None    Shift=    0.500
 RMSDP=9.05D-07 MaxDP=1.43D-05 DE=-1.42D-08 OVMax= 7.78D-05

 SCF Done:  E(ULC-wHPBE) =  -176.466106446     A.U. after   15 cycles
            NFock= 15  Conv=0.90D-06     -V/T= 1.9504
 <Sx>= 0.0000 <Sy>= 0.0000 <Sz>= 0.5000 <S**2>= 0.7537 S= 0.5018
 <L.S>= 0.000000000000E+00
 KE= 1.856715579627D+02 PE=-7.381749306214D+02 EE= 2.200245237265D+02
 Annihilation of the first spin contaminant:
 S**2 before annihilation     0.7537,   after     0.7500
 Leave Link  502 at Thu Mar  5 12:52:50 2020, MaxMem=  6710886400 cpu:              25.6 elap:               1.6
 (Enter /opt/ohpc/pub/libs/gaussian/g16-A.03/sandybridge/g16/l508.exe)
 QCSCF skips out because SCF is already converged.
 Leave Link  508 at Thu Mar  5 12:52:50 2020, MaxMem=  6710886400 cpu:               0.2 elap:               0.1
 (Enter /opt/ohpc/pub/libs/gaussian/g16-A.03/sandybridge/g16/l601.exe)
 Copying SCF densities to generalized density rwf, IOpCl= 1 IROHF=0.

 **********************************************************************

            Population analysis using the SCF density.

 **********************************************************************

 Orbital symmetries:
 Alpha Orbitals:
       Occupied  (B2) (A1) (A1) (A1) (B2) (A1) (A1) (B2) (A1) (B2)
                 (A1) (B1) (B2) (A1) (A1) (B2) (A2) (B1)
       Virtual   (A2) (B2) (A1) (B1) (A1) (B2) (A1) (B2) (A1) (A1)
                 (B2) (B2) (A1) (B1) (B2) (A1) (A2) (B1) (A1) (A2)
                 (B2) (A1) (B1) (B2) (A1) (B2) (A1) (B2) (A1) (B2)
                 (A1) (A1) (A1) (B2) (B2) (A1) (A1) (A1) (B2)
 Beta  Orbitals:
       Occupied  (B2) (A1) (A1) (A1) (B2) (A1) (A1) (B2) (A1) (B2)
                 (A1) (B2) (B1) (A1) (A1) (B2) (A2)
       Virtual   (B1) (A2) (B2) (A1) (B1) (A1) (B2) (A1) (B2) (A1)
                 (A1) (B2) (B2) (A1) (B1) (B2) (A1) (A2) (B1) (A1)
                 (A2) (B2) (A1) (B1) (B2) (A1) (B2) (A1) (B2) (A1)
                 (B2) (A1) (A1) (A1) (B2) (B2) (A1) (A1) (A1) (B2)
 The electronic state is 2-B1.
 Alpha  occ. eigenvalues --   -8.83182  -8.83149  -8.78041  -8.77062  -8.77046
 Alpha  occ. eigenvalues --   -1.14129  -1.00283  -0.94261  -0.82296  -0.79244
 Alpha  occ. eigenvalues --   -0.78258  -0.67630  -0.66428  -0.64340  -0.62208
 Alpha  occ. eigenvalues --   -0.60525  -0.51305  -0.49805
 Alpha virt. eigenvalues --   -0.11675  -0.08387  -0.06277  -0.05547  -0.02845
 Alpha virt. eigenvalues --    0.02787   0.04128   0.07372   0.08126   0.17614
 Alpha virt. eigenvalues --    0.19643   0.31028   0.31998   0.40695   0.41180
 Alpha virt. eigenvalues --    0.47757   0.47980   0.48312   0.52531   0.55583
 Alpha virt. eigenvalues --    0.56028   0.57239   0.57631   0.68293   0.75260
 Alpha virt. eigenvalues --    0.76725   0.81550   0.83092   0.83316   0.88170
 Alpha virt. eigenvalues --    0.89035   0.92917   0.97570   1.00378   1.08776
 Alpha virt. eigenvalues --    1.09078   1.16706   1.37205   1.38292
  Beta  occ. eigenvalues --   -8.83198  -8.83161  -8.78056  -8.77061  -8.77047
  Beta  occ. eigenvalues --   -1.14000  -0.99807  -0.94312  -0.82188  -0.79237
  Beta  occ. eigenvalues --   -0.78313  -0.66527  -0.65090  -0.64420  -0.62286
  Beta  occ. eigenvalues --   -0.60602  -0.50998
  Beta virt. eigenvalues --   -0.30705  -0.10109  -0.08476  -0.06284  -0.04066
  Beta virt. eigenvalues --   -0.02853   0.02745   0.04079   0.07357   0.08112
  Beta virt. eigenvalues --    0.17624   0.19603   0.30936   0.32074   0.40822
  Beta virt. eigenvalues --    0.41170   0.47751   0.47965   0.48796   0.52839
  Beta virt. eigenvalues --    0.55643   0.55867   0.57449   0.57707   0.68334
  Beta virt. eigenvalues --    0.75391   0.76621   0.81430   0.83073   0.83245
  Beta virt. eigenvalues --    0.88034   0.89072   0.93009   0.97552   1.00354
  Beta virt. eigenvalues --    1.08733   1.09059   1.16758   1.37214   1.38291
          Condensed to atoms (all electrons):
               1          2          3          4          5          6
     1  C    5.250071   0.541666  -0.062342  -0.194097   0.272341   0.174736
     2  C    0.541666   4.811864   0.544903  -0.059584  -0.194097  -0.023761
     3  C   -0.062342   0.544903   4.649460   0.544903  -0.062342   0.010408
     4  C   -0.194097  -0.059584   0.544903   4.811864   0.541666  -0.023761
     5  C    0.272341  -0.194097  -0.062342   0.541666   5.250071   0.174736
     6  H    0.174736  -0.023761   0.010408  -0.023761   0.174736   0.348163
     7  H    0.351523   0.015645   0.000619   0.005182  -0.027570  -0.002307
     8  H   -0.018556   0.369526  -0.005748   0.006651   0.002353   0.001119
     9  H    0.008831  -0.029967   0.387425  -0.029967   0.008831  -0.000216
    10  H    0.002353   0.006651  -0.005748   0.369526  -0.018556   0.001119
    11  H   -0.027570   0.005182   0.000619   0.015645   0.351523  -0.002307
               7          8          9         10         11
     1  C    0.351523  -0.018556   0.008831   0.002353  -0.027570
     2  C    0.015645   0.369526  -0.029967   0.006651   0.005182
     3  C    0.000619  -0.005748   0.387425  -0.005748   0.000619
     4  C    0.005182   0.006651  -0.029967   0.369526   0.015645
     5  C   -0.027570   0.002353   0.008831  -0.018556   0.351523
     6  H   -0.002307   0.001119  -0.000216   0.001119  -0.002307
     7  H    0.374963  -0.002484  -0.000073  -0.000048   0.000780
     8  H   -0.002484   0.427413  -0.003905  -0.000170  -0.000048
     9  H   -0.000073  -0.003905   0.444206  -0.003905  -0.000073
    10  H   -0.000048  -0.000170  -0.003905   0.427413  -0.002484
    11  H    0.000780  -0.000048  -0.000073  -0.002484   0.374963
          Atomic-Atomic Spin Densities.
               1          2          3          4          5          6
     1  C    0.308582  -0.045403  -0.031764  -0.011758   0.064432  -0.000434
     2  C   -0.045403  -0.021480   0.048872   0.001684  -0.011758  -0.000151
     3  C   -0.031764   0.048872   0.460060   0.048872  -0.031764   0.000052
     4  C   -0.011758   0.001684   0.048872  -0.021480  -0.045403  -0.000151
     5  C    0.064432  -0.011758  -0.031764  -0.045403   0.308582  -0.000434
     6  H   -0.000434  -0.000151   0.000052  -0.000151  -0.000434  -0.002280
     7  H    0.000583  -0.000548   0.000033   0.000005  -0.000236  -0.000235
     8  H   -0.000453  -0.000052  -0.000047  -0.000047   0.000021   0.000003
     9  H    0.000078  -0.000871   0.001627  -0.000871   0.000078  -0.000004
    10  H    0.000021  -0.000047  -0.000047  -0.000052  -0.000453   0.000003
    11  H   -0.000236   0.000005   0.000033  -0.000548   0.000583  -0.000235
               7          8          9         10         11
     1  C    0.000583  -0.000453   0.000078   0.000021  -0.000236
     2  C   -0.000548  -0.000052  -0.000871  -0.000047   0.000005
     3  C    0.000033  -0.000047   0.001627  -0.000047   0.000033
     4  C    0.000005  -0.000047  -0.000871  -0.000052  -0.000548
     5  C   -0.000236   0.000021   0.000078  -0.000453   0.000583
     6  H   -0.000235   0.000003  -0.000004   0.000003  -0.000235
     7  H    0.000005  -0.000001  -0.000001   0.000000  -0.000013
     8  H   -0.000001   0.000818  -0.000047  -0.000001   0.000000
     9  H   -0.000001  -0.000047   0.000620  -0.000047  -0.000001
    10  H    0.000000  -0.000001  -0.000047   0.000818  -0.000001
    11  H   -0.000013   0.000000  -0.000001  -0.000001   0.000005
 Mulliken charges and spin densities:
               1          2
     1  C   -0.298956   0.283649
     2  C    0.011974  -0.029747
     3  C   -0.002156   0.495929
     4  C    0.011974  -0.029747
     5  C   -0.298956   0.283649
     6  H    0.342073  -0.003866
     7  H    0.283769  -0.000408
     8  H    0.223848   0.000195
     9  H    0.218813   0.000561
    10  H    0.223848   0.000195
    11  H    0.283769  -0.000408
 Sum of Mulliken charges =   1.00000   1.00000
 Mulliken charges and spin densities with hydrogens summed into heavy atoms:
               1          2
     1  C    0.326886   0.279374
     2  C    0.235822  -0.029552
     3  C    0.216657   0.496490
     4  C    0.235822  -0.029552
     5  C   -0.015187   0.283240
 Electronic spatial extent (au):  <R**2>=            336.2181
 Charge=              1.0000 electrons
 Dipole moment (field-independent basis, Debye):
    X=             -0.0000    Y=             -0.0000    Z=             -2.1213  Tot=              2.1213
 Quadrupole moment (field-independent basis, Debye-Ang):
   XX=            -37.2510   YY=            -26.4470   ZZ=            -21.5975
   XY=              0.0000   XZ=              0.0000   YZ=              0.0000
 Traceless Quadrupole moment (field-independent basis, Debye-Ang):
   XX=             -8.8192   YY=              1.9849   ZZ=              6.8343
   XY=              0.0000   XZ=              0.0000   YZ=              0.0000
 Octapole moment (field-independent basis, Debye-Ang**2):
  XXX=              0.0000  YYY=              0.0000  ZZZ=             -8.4497  XYY=              0.0000
  XXY=             -0.0000  XXZ=              0.7597  XZZ=              0.0000  YZZ=             -0.0000
  YYZ=             -3.1287  XYZ=             -0.0000
 Hexadecapole moment (field-independent basis, Debye-Ang**3):
 XXXX=            -43.0966 YYYY=           -216.0190 ZZZZ=           -191.7121 XXXY=             -0.0000
 XXXZ=             -0.0000 YYYX=             -0.0000 YYYZ=             -0.0000 ZZZX=             -0.0000
 ZZZY=              0.0000 XXYY=            -53.7790 XXZZ=            -49.3130 YYZZ=            -66.0705
 XXYZ=              0.0000 YYXZ=             -0.0000 ZZXY=             -0.0000
 N-N= 1.560127424860D+02 E-N=-7.381749204128D+02  KE= 1.856715579627D+02
 Symmetry A1   KE= 1.078245713211D+02
 Symmetry A2   KE= 2.100341601560D+00
 Symmetry B1   KE= 2.615964729378D+00
 Symmetry B2   KE= 7.313068031062D+01
 Symmetry A1   SP=-1.312449959672D-14
 Symmetry A2   SP= 6.072616368091D-16
 Symmetry B1   SP= 1.000000000000D+00
 Symmetry B2   SP=-9.369853051539D-16
                          Isotropic Fermi Contact Couplings
        Atom                 a.u.       MegaHertz       Gauss      10(-4) cm-1
     1  C(13)              0.00418       4.69522       1.67537       1.56616
     2  C(13)              0.00007       0.07483       0.02670       0.02496
     3  C(13)              0.00667       7.50370       2.67751       2.50296
     4  C(13)              0.00007       0.07483       0.02670       0.02496
     5  C(13)              0.00418       4.69522       1.67537       1.56616
     6  H(1)              -0.00126      -5.63748      -2.01159      -1.88046
     7  H(1)              -0.00041      -1.81717      -0.64841      -0.60614
     8  H(1)               0.00015       0.65565       0.23395       0.21870
     9  H(1)              -0.00078      -3.49692      -1.24779      -1.16645
    10  H(1)               0.00015       0.65565       0.23395       0.21870
    11  H(1)              -0.00041      -1.81717      -0.64841      -0.60614
 --------------------------------------------------------
       Center         ----  Spin Dipole Couplings  ----
                      3XX-RR        3YY-RR        3ZZ-RR
 --------------------------------------------------------
     1   Atom        0.236812     -0.112678     -0.124134
     2   Atom       -0.015659      0.006769      0.008890
     3   Atom        0.458451     -0.231030     -0.227421
     4   Atom       -0.015659      0.006769      0.008890
     5   Atom        0.236812     -0.112678     -0.124134
     6   Atom        0.006347     -0.004276     -0.002071
     7   Atom       -0.000098      0.001787     -0.001688
     8   Atom       -0.006945      0.009805     -0.002860
     9   Atom        0.001016     -0.030857      0.029841
    10   Atom       -0.006945      0.009805     -0.002860
    11   Atom       -0.000098      0.001787     -0.001688
 --------------------------------------------------------
                        XY            XZ            YZ
 --------------------------------------------------------
     1   Atom       -0.000000     -0.000000     -0.002802
     2   Atom        0.000000      0.000000     -0.012656
     3   Atom       -0.000000     -0.000000      0.000000
     4   Atom       -0.000000     -0.000000      0.012656
     5   Atom       -0.000000      0.000000      0.002802
     6   Atom       -0.000000      0.000000     -0.000000
     7   Atom       -0.000000      0.000000     -0.018433
     8   Atom        0.000000      0.000000      0.000278
     9   Atom       -0.000000     -0.000000      0.000000
    10   Atom        0.000000     -0.000000     -0.000278
    11   Atom       -0.000000     -0.000000      0.018433
 --------------------------------------------------------


 ---------------------------------------------------------------------------------
              Anisotropic Spin Dipole Couplings in Principal Axis System
 ---------------------------------------------------------------------------------

       Atom             a.u.   MegaHertz   Gauss  10(-4) cm-1        Axes

              Baa    -0.1248   -16.745    -5.975    -5.585  0.0000  0.2255  0.9742
     1 C(13)  Bbb    -0.1120   -15.033    -5.364    -5.015  0.0000  0.9742 -0.2255
              Bcc     0.2368    31.778    11.339    10.600  1.0000 -0.0000  0.0000
 
              Baa    -0.0157    -2.101    -0.750    -0.701  1.0000  0.0000  0.0000
     2 C(13)  Bbb    -0.0049    -0.654    -0.233    -0.218 -0.0000  0.7360  0.6769
              Bcc     0.0205     2.755     0.983     0.919  0.0000 -0.6769  0.7360
 
              Baa    -0.2310   -31.002   -11.062   -10.341  0.0000  1.0000  0.0000
     3 C(13)  Bbb    -0.2274   -30.518   -10.889   -10.180  0.0000  0.0000  1.0000
              Bcc     0.4585    61.520    21.952    20.521  1.0000 -0.0000  0.0000
 
              Baa    -0.0157    -2.101    -0.750    -0.701  1.0000  0.0000  0.0000
     4 C(13)  Bbb    -0.0049    -0.654    -0.233    -0.218  0.0000  0.7360 -0.6769
              Bcc     0.0205     2.755     0.983     0.919 -0.0000  0.6769  0.7360
 
              Baa    -0.1248   -16.745    -5.975    -5.585 -0.0000 -0.2255  0.9742
     5 C(13)  Bbb    -0.1120   -15.033    -5.364    -5.015  0.0000  0.9742  0.2255
              Bcc     0.2368    31.778    11.339    10.600  1.0000 -0.0000  0.0000
 
              Baa    -0.0043    -2.281    -0.814    -0.761  0.0000  1.0000  0.0000
     6 H(1)   Bbb    -0.0021    -1.105    -0.394    -0.369 -0.0000 -0.0000  1.0000
              Bcc     0.0063     3.387     1.208     1.130  1.0000 -0.0000  0.0000
 
              Baa    -0.0185    -9.852    -3.515    -3.286 -0.0000  0.6731  0.7395
     7 H(1)   Bbb    -0.0001    -0.053    -0.019    -0.018  1.0000  0.0000 -0.0000
              Bcc     0.0186     9.905     3.534     3.304 -0.0000  0.7395 -0.6731
 
              Baa    -0.0069    -3.706    -1.322    -1.236  1.0000 -0.0000 -0.0000
     8 H(1)   Bbb    -0.0029    -1.529    -0.546    -0.510  0.0000 -0.0219  0.9998
              Bcc     0.0098     5.235     1.868     1.746  0.0000  0.9998  0.0219
 
              Baa    -0.0309   -16.464    -5.875    -5.492  0.0000  1.0000 -0.0000
     9 H(1)   Bbb     0.0010     0.542     0.193     0.181  1.0000  0.0000  0.0000
              Bcc     0.0298    15.922     5.681     5.311  0.0000  0.0000  1.0000
 
              Baa    -0.0069    -3.706    -1.322    -1.236  1.0000 -0.0000  0.0000
    10 H(1)   Bbb    -0.0029    -1.529    -0.546    -0.510 -0.0000  0.0219  0.9998
              Bcc     0.0098     5.235     1.868     1.746  0.0000  0.9998 -0.0219
 
              Baa    -0.0185    -9.852    -3.515    -3.286  0.0000 -0.6731  0.7395
    11 H(1)   Bbb    -0.0001    -0.053    -0.019    -0.018  1.0000  0.0000  0.0000
              Bcc     0.0186     9.905     3.534     3.304 -0.0000  0.7395  0.6731
 

 ---------------------------------------------------------------------------------

 No NMR shielding tensors so no spin-rotation constants.
 Leave Link  601 at Thu Mar  5 12:52:51 2020, MaxMem=  6710886400 cpu:               3.6 elap:               0.7
 (Enter /opt/ohpc/pub/libs/gaussian/g16-A.03/sandybridge/g16/l9999.exe)

 Test job not archived.
 1\1\GINC-CNODE212\SP\ULC-wHPBE\6-31G\C5H6(1+,2)\SMGO234\05-Mar-2020\0\
 \#P uLC-wHPBE/6-31G iop(3/130=0250200000, 3/131=0250200000, 3/119=0749
 800000, 3/120=0749800000) scf=(conver=6,fermi,ndamp=35,noincfock,novar
 acc,vshift=500,xqc)\\H6 C5\\1,2\C,0,0.,0.878804,-0.931542\C,0,0.,1.128
 157,0.423457\C,0,0.,0.,1.240879\C,0,0.,-1.128157,0.423457\C,0,0.,-0.87
 8804,-0.931542\H,0,0.,0.,-1.732269\H,0,0.,1.6083,-1.734053\H,0,0.,2.15
 6626,0.76567\H,0,0.,0.,2.320778\H,0,0.,-2.156626,0.76567\H,0,0.,-1.608
 3,-1.734053\\Version=EM64L-G16RevA.03\State=2-B1\HF=-176.4661064\S2=0.
 753683\S2-1=0.\S2A=0.750007\RMSD=9.045e-07\Dipole=0.,0.,-0.8345776\Qua
 drupole=-6.5568525,1.4756993,5.0811532,0.,0.,0.\PG=C02V [C2(H1C1H1),SG
 V(C4H4)]\\@


 MAN IS A SINGULAR CREATURE.  HE HAS A SET OF GIFTS
 WHICH MAKE HIM UNIQUE AMONG THE ANIMALS: SO THAT, 
 UNLIKE THEM, HE IS NOT A FIGURE IN THE LANDSCAPE --
 HE IS A SHAPER OF THE LANDSCAPE.

                       -- JACOB BRONOWSKI
 Job cpu time:       0 days  0 hours  0 minutes 56.9 seconds.
 Elapsed time:       0 days  0 hours  0 minutes  4.6 seconds.
 File lengths (MBytes):  RWF=    272 Int=      0 D2E=      0 Chk=     32 Scr=     32
 Normal termination of Gaussian 16 at Thu Mar  5 12:52:51 2020.
