 Entering Gaussian System, Link 0=g16
 Input=a1b_tune_n8.gjf
 Output=a1b_tune_n8.log
 Initial command:
 /opt/ohpc/pub/libs/gaussian/g16-A.03/sandybridge/g16/l1.exe "/scratch/smgo234/Ocelot/test/a1b/tuning_a1b_acycle1/Gau-81036.inp" -scrdir="/scratch/smgo234/Ocelot/test/a1b/tuning_a1b_acycle1/"
 Entering Link 1 = /opt/ohpc/pub/libs/gaussian/g16-A.03/sandybridge/g16/l1.exe PID=     81037.
  
 Copyright (c) 1988,1990,1992,1993,1995,1998,2003,2009,2016,
            Gaussian, Inc.  All Rights Reserved.
  
 This is part of the Gaussian(R) 16 program.  It is based on
 the Gaussian(R) 09 system (copyright 2009, Gaussian, Inc.),
 the Gaussian(R) 03 system (copyright 2003, Gaussian, Inc.),
 the Gaussian(R) 98 system (copyright 1998, Gaussian, Inc.),
 the Gaussian(R) 94 system (copyright 1995, Gaussian, Inc.),
 the Gaussian 92(TM) system (copyright 1992, Gaussian, Inc.),
 the Gaussian 90(TM) system (copyright 1990, Gaussian, Inc.),
 the Gaussian 88(TM) system (copyright 1988, Gaussian, Inc.),
 the Gaussian 86(TM) system (copyright 1986, Carnegie Mellon
 University), and the Gaussian 82(TM) system (copyright 1983,
 Carnegie Mellon University). Gaussian is a federally registered
 trademark of Gaussian, Inc.
  
 This software contains proprietary and confidential information,
 including trade secrets, belonging to Gaussian, Inc.
  
 This software is provided under written license and may be
 used, copied, transmitted, or stored only in accord with that
 written license.
  
 The following legend is applicable only to US Government
 contracts under FAR:
  
                    RESTRICTED RIGHTS LEGEND
  
 Use, reproduction and disclosure by the US Government is
 subject to restrictions as set forth in subparagraphs (a)
 and (c) of the Commercial Computer Software - Restricted
 Rights clause in FAR 52.227-19.
  
 Gaussian, Inc.
 340 Quinnipiac St., Bldg. 40, Wallingford CT 06492
  
  
 ---------------------------------------------------------------
 Warning -- This program may not be used in any manner that
 competes with the business of Gaussian, Inc. or will provide
 assistance to any competitor of Gaussian, Inc.  The licensee
 of this program is prohibited from giving any competitor of
 Gaussian, Inc. access to this program.  By using this program,
 the user acknowledges that Gaussian, Inc. is engaged in the
 business of creating and licensing software in the field of
 computational chemistry and represents and warrants to the
 licensee that it is not a competitor of Gaussian, Inc. and that
 it will not use this program in any manner prohibited above.
 ---------------------------------------------------------------
  

 Cite this work as:
 Gaussian 16, Revision A.03,
 M. J. Frisch, G. W. Trucks, H. B. Schlegel, G. E. Scuseria, 
 M. A. Robb, J. R. Cheeseman, G. Scalmani, V. Barone, 
 G. A. Petersson, H. Nakatsuji, X. Li, M. Caricato, A. V. Marenich, 
 J. Bloino, B. G. Janesko, R. Gomperts, B. Mennucci, H. P. Hratchian, 
 J. V. Ortiz, A. F. Izmaylov, J. L. Sonnenberg, D. Williams-Young, 
 F. Ding, F. Lipparini, F. Egidi, J. Goings, B. Peng, A. Petrone, 
 T. Henderson, D. Ranasinghe, V. G. Zakrzewski, J. Gao, N. Rega, 
 G. Zheng, W. Liang, M. Hada, M. Ehara, K. Toyota, R. Fukuda, 
 J. Hasegawa, M. Ishida, T. Nakajima, Y. Honda, O. Kitao, H. Nakai, 
 T. Vreven, K. Throssell, J. A. Montgomery, Jr., J. E. Peralta, 
 F. Ogliaro, M. J. Bearpark, J. J. Heyd, E. N. Brothers, K. N. Kudin, 
 V. N. Staroverov, T. A. Keith, R. Kobayashi, J. Normand, 
 K. Raghavachari, A. P. Rendell, J. C. Burant, S. S. Iyengar, 
 J. Tomasi, M. Cossi, J. M. Millam, M. Klene, C. Adamo, R. Cammi, 
 J. W. Ochterski, R. L. Martin, K. Morokuma, O. Farkas, 
 J. B. Foresman, and D. J. Fox, Gaussian, Inc., Wallingford CT, 2016.
 
 ******************************************
 Gaussian 16:  EM64L-G16RevA.03 25-Dec-2016
                 5-Mar-2020 
 ******************************************
 %mem=50GB
 %nproc=16
 Will use up to   16 processors via shared memory.
 ----------------------------------------------------------------------
 #P uLC-wHPBE/6-31G iop(3/130=0250200000, 3/131=0250200000, 3/119=07498
 00000, 3/120=0749800000) scf=(conver=6,fermi,ndamp=35,noincfock,novara
 cc,vshift=500,xqc)
 ----------------------------------------------------------------------
 1/38=1,172=1/1;
 2/12=2,17=6,18=5,40=1/2;
 3/5=1,6=6,11=2,25=1,30=1,74=-71,116=2,119=749800000,120=749800000,130=250200000,131=250200000/1,2,3;
 4//1;
 5/5=100002,6=6,8=3,10=500,13=1,18=-1,22=13,38=1,93=35/2,8;
 6/7=2,8=2,9=2,10=2,28=1/1;
 99/5=1,9=1/99;
 Leave Link    1 at Thu Mar  5 12:52:42 2020, MaxMem=  6710886400 cpu:              19.6 elap:               1.3
 (Enter /opt/ohpc/pub/libs/gaussian/g16-A.03/sandybridge/g16/l101.exe)
 -----
 H6 C5
 -----
 Symbolic Z-matrix:
 Charge =  0 Multiplicity = 1
 C                     0.        0.8788   -0.93154 
 C                     0.        1.12816   0.42346 
 C                     0.        0.        1.24088 
 C                     0.       -1.12816   0.42346 
 C                     0.       -0.8788   -0.93154 
 H                     0.        0.       -1.73227 
 H                     0.        1.6083   -1.73405 
 H                     0.        2.15663   0.76567 
 H                     0.        0.        2.32078 
 H                     0.       -2.15663   0.76567 
 H                     0.       -1.6083   -1.73405 
 
 ITRead=  0  0  0  0  0  0  0  0  0  0  0
 MicOpt= -1 -1 -1 -1 -1 -1 -1 -1 -1 -1 -1
 NAtoms=     11 NQM=       11 NQMF=       0 NMMI=      0 NMMIF=      0
                NMic=       0 NMicF=      0.
                    Isotopes and Nuclear Properties:
 (Nuclear quadrupole moments (NQMom) in fm**2, nuclear magnetic moments (NMagM)
  in nuclear magnetons)

  Atom         1           2           3           4           5           6           7           8           9          10
 IAtWgt=          12          12          12          12          12           1           1           1           1           1
 AtmWgt=  12.0000000  12.0000000  12.0000000  12.0000000  12.0000000   1.0078250   1.0078250   1.0078250   1.0078250   1.0078250
 NucSpn=           0           0           0           0           0           1           1           1           1           1
 AtZEff=  -0.0000000  -0.0000000  -0.0000000  -0.0000000  -0.0000000  -0.0000000  -0.0000000  -0.0000000  -0.0000000  -0.0000000
 NQMom=    0.0000000   0.0000000   0.0000000   0.0000000   0.0000000   0.0000000   0.0000000   0.0000000   0.0000000   0.0000000
 NMagM=    0.0000000   0.0000000   0.0000000   0.0000000   0.0000000   2.7928460   2.7928460   2.7928460   2.7928460   2.7928460
 AtZNuc=   6.0000000   6.0000000   6.0000000   6.0000000   6.0000000   1.0000000   1.0000000   1.0000000   1.0000000   1.0000000

  Atom        11
 IAtWgt=           1
 AtmWgt=   1.0078250
 NucSpn=           1
 AtZEff=  -0.0000000
 NQMom=    0.0000000
 NMagM=    2.7928460
 AtZNuc=   1.0000000
 Leave Link  101 at Thu Mar  5 12:52:42 2020, MaxMem=  6710886400 cpu:               2.6 elap:               0.2
 (Enter /opt/ohpc/pub/libs/gaussian/g16-A.03/sandybridge/g16/l202.exe)
                          Input orientation:                          
 ---------------------------------------------------------------------
 Center     Atomic      Atomic             Coordinates (Angstroms)
 Number     Number       Type             X           Y           Z
 ---------------------------------------------------------------------
      1          6           0        0.000000    0.878804   -0.931542
      2          6           0        0.000000    1.128157    0.423457
      3          6           0        0.000000    0.000000    1.240879
      4          6           0        0.000000   -1.128157    0.423457
      5          6           0        0.000000   -0.878804   -0.931542
      6          1           0        0.000000    0.000000   -1.732269
      7          1           0        0.000000    1.608300   -1.734053
      8          1           0        0.000000    2.156626    0.765670
      9          1           0        0.000000    0.000000    2.320778
     10          1           0        0.000000   -2.156626    0.765670
     11          1           0        0.000000   -1.608300   -1.734053
 ---------------------------------------------------------------------
                    Distance matrix (angstroms):
                    1          2          3          4          5
     1  C    0.000000
     2  C    1.377752   0.000000
     3  C    2.343440   1.393168   0.000000
     4  C    2.421552   2.256314   1.393168   0.000000
     5  C    1.757608   2.421552   2.343440   1.377752   0.000000
     6  H    1.188890   2.433083   2.973148   2.433083   1.188890
     7  H    1.084522   2.210291   3.381841   3.484687   2.613371
     8  H    2.124466   1.083909   2.208361   3.302561   3.477695
     9  H    3.368959   2.207389   1.079899   2.207389   3.368959
    10  H    3.477695   3.302561   2.208361   1.083909   2.124466
    11  H    2.613371   3.484687   3.381841   2.210291   1.084522
                    6          7          8          9         10
     6  H    0.000000
     7  H    1.608301   0.000000
     8  H    3.300111   2.559155   0.000000
     9  H    4.053047   4.362142   2.658834   0.000000
    10  H    3.300111   4.519213   4.313252   2.658834   0.000000
    11  H    1.608301   3.216600   4.519213   4.362142   2.559155
                   11
    11  H    0.000000
 Stoichiometry    C5H6
 Framework group  C2V[C2(HCH),SGV(C4H4)]
 Deg. of freedom    10
 Full point group                 C2V     NOp   4
 Largest Abelian subgroup         C2V     NOp   4
 Largest concise Abelian subgroup C2      NOp   2
                         Standard orientation:                         
 ---------------------------------------------------------------------
 Center     Atomic      Atomic             Coordinates (Angstroms)
 Number     Number       Type             X           Y           Z
 ---------------------------------------------------------------------
      1          6           0        0.000000    0.878804   -0.931542
      2          6           0        0.000000    1.128157    0.423457
      3          6           0        0.000000   -0.000000    1.240879
      4          6           0       -0.000000   -1.128157    0.423457
      5          6           0       -0.000000   -0.878804   -0.931542
      6          1           0       -0.000000    0.000000   -1.732269
      7          1           0        0.000000    1.608300   -1.734053
      8          1           0        0.000000    2.156626    0.765670
      9          1           0        0.000000   -0.000000    2.320778
     10          1           0       -0.000000   -2.156626    0.765670
     11          1           0       -0.000000   -1.608300   -1.734053
 ---------------------------------------------------------------------
 Rotational constants (GHZ):           8.5259551           7.9375455           4.1106177
 Leave Link  202 at Thu Mar  5 12:52:42 2020, MaxMem=  6710886400 cpu:               0.5 elap:               0.0
 (Enter /opt/ohpc/pub/libs/gaussian/g16-A.03/sandybridge/g16/l301.exe)
 Standard basis: 6-31G (6D, 7F)
 Ernie: Thresh=  0.10000D-02 Tol=  0.10000D-05 Strict=F.
 There are    27 symmetry adapted cartesian basis functions of A1  symmetry.
 There are     4 symmetry adapted cartesian basis functions of A2  symmetry.
 There are     6 symmetry adapted cartesian basis functions of B1  symmetry.
 There are    20 symmetry adapted cartesian basis functions of B2  symmetry.
 There are    27 symmetry adapted basis functions of A1  symmetry.
 There are     4 symmetry adapted basis functions of A2  symmetry.
 There are     6 symmetry adapted basis functions of B1  symmetry.
 There are    20 symmetry adapted basis functions of B2  symmetry.
    57 basis functions,   134 primitive gaussians,    57 cartesian basis functions
    18 alpha electrons       18 beta electrons
       nuclear repulsion energy       156.0127424860 Hartrees.
 IExCor=33909 DFT=T Ex+Corr=LC-wHPBE ExCW=0 ScaHFX=  1.000000
 ScaDFX=  1.000000  1.000000  1.000000  1.000000 ScalE2=  1.000000  1.000000
 IRadAn=      5 IRanWt=     -1 IRanGd=            0 ICorTp=0 IEmpDi=  4
 HFx  wShort=  0.000000 wLong=  0.400000 cFull=  0.000000 cShort=  0.000000 cLong=  0.749800
 DFx  wShort=  0.000000 wLong=  0.400000 cFull=  0.000000 cShort=  0.000000 cLong=  0.749800
 NAtoms=   11 NActive=   11 NUniq=    7 SFac= 2.47D+00 NAtFMM=   60 NAOKFM=F Big=F
 Integral buffers will be    131072 words long.
 Raffenetti 2 integral format.
 Two-electron integral symmetry is turned on.
 Leave Link  301 at Thu Mar  5 12:52:42 2020, MaxMem=  6710886400 cpu:               0.9 elap:               0.1
 (Enter /opt/ohpc/pub/libs/gaussian/g16-A.03/sandybridge/g16/l302.exe)
 NPDir=0 NMtPBC=     1 NCelOv=     1 NCel=       1 NClECP=     1 NCelD=      1
         NCelK=      1 NCelE2=     1 NClLst=     1 CellRange=     0.0.
 One-electron integrals computed using PRISM.
 One-electron integral symmetry used in STVInt
 NBasis=    57 RedAO= T EigKep=  1.84D-03  NBF=    27     4     6    20
 NBsUse=    57 1.00D-06 EigRej= -1.00D+00 NBFU=    27     4     6    20
 Precomputing XC quadrature grid using
 IXCGrd= 4 IRadAn=           5 IRanWt=          -1 IRanGd=           0 AccXCQ= 0.00D+00.
 Generated NRdTot=       0 NPtTot=           0 NUsed=           0 NTot=          32
 NSgBfM=    57    57    57    57    57 MxSgAt=    11 MxSgA2=    11.
 Leave Link  302 at Thu Mar  5 12:52:42 2020, MaxMem=  6710886400 cpu:               1.9 elap:               0.1
 (Enter /opt/ohpc/pub/libs/gaussian/g16-A.03/sandybridge/g16/l303.exe)
 DipDrv:  MaxL=1.
 Leave Link  303 at Thu Mar  5 12:52:42 2020, MaxMem=  6710886400 cpu:               0.5 elap:               0.1
 (Enter /opt/ohpc/pub/libs/gaussian/g16-A.03/sandybridge/g16/l401.exe)
 ExpMin= 1.61D-01 ExpMax= 3.05D+03 ExpMxC= 4.57D+02 IAcc=3 IRadAn=         5 AccDes= 0.00D+00
 Harris functional with IExCor=33909 and IRadAn=       5 diagonalized for initial guess.
 HarFok:  IExCor=33909 AccDes= 0.00D+00 IRadAn=         5 IDoV= 1 UseB2=F ITyADJ=14
 ICtDFT=  3500011 ScaDFX=  1.000000  1.000000  1.000000  1.000000
 FoFCou: FMM=F IPFlag=           0 FMFlag=      100000 FMFlg1=           0
         NFxFlg=           0 DoJE=T BraDBF=F KetDBF=T FulRan=T
         wScrn=  0.000000 ICntrl=       500 IOpCl=  0 I1Cent=   200000004 NGrid=           0
         NMat0=    1 NMatS0=      1 NMatT0=    0 NMatD0=    1 NMtDS0=    0 NMtDT0=    0
 Petite list used in FoFCou.
 Harris En= -171.612751840898    
 JPrj=0 DoOrth=F DoCkMO=F.
 Initial guess orbital symmetries:
 Alpha Orbitals:
       Occupied  (A1) (B2) (A1) (B2) (A1) (A1) (A1) (B2) (A1) (A1)
                 (B2) (B1) (B2) (A1) (A1) (B2) (A2) (B1)
       Virtual   (A2) (A1) (B2) (B1) (A1) (B2) (A1) (A1) (B2) (A1)
                 (B2) (B2) (A1) (B1) (B2) (A2) (A1) (B1) (A1) (B2)
                 (A2) (A1) (B1) (B2) (A1) (B2) (B2) (A1) (A1) (B2)
                 (A1) (A1) (A1) (B2) (B2) (A1) (A1) (A1) (B2)
 Beta  Orbitals:
       Occupied  (A1) (B2) (A1) (B2) (A1) (A1) (A1) (B2) (A1) (A1)
                 (B2) (B1) (B2) (A1) (A1) (B2) (A2) (B1)
       Virtual   (A2) (A1) (B2) (B1) (A1) (B2) (A1) (A1) (B2) (A1)
                 (B2) (B2) (A1) (B1) (B2) (A2) (A1) (B1) (A1) (B2)
                 (A2) (A1) (B1) (B2) (A1) (B2) (B2) (A1) (A1) (B2)
                 (A1) (A1) (A1) (B2) (B2) (A1) (A1) (A1) (B2)
 The electronic state of the initial guess is 1-A1.
 Initial guess <Sx>= 0.0000 <Sy>= 0.0000 <Sz>= 0.0000 <S**2>= 0.0000 S= 0.0000
 Leave Link  401 at Thu Mar  5 12:52:43 2020, MaxMem=  6710886400 cpu:               3.0 elap:               0.2
 (Enter /opt/ohpc/pub/libs/gaussian/g16-A.03/sandybridge/g16/l502.exe)
 Keep R1 and R2 ints in memory in symmetry-blocked form, NReq=16815681.
 FoFCou: FMM=F IPFlag=           0 FMFlag=           0 FMFlg1=           0
         NFxFlg=           0 DoJE=F BraDBF=F KetDBF=F FulRan=T
         wScrn=  0.000000 ICntrl=       600 IOpCl=  0 I1Cent=           0 NGrid=           0
         NMat0=    1 NMatS0=   1653 NMatT0=    0 NMatD0=    1 NMtDS0=    0 NMtDT0=    0
 Petite list used in FoFCou.
 UHF open shell SCF:
 Using DIIS extrapolation, IDIIS=    10.
 NGot=  6710886400 LenX=  6710059561 LenY=  6710055871
 Requested convergence on RMS density matrix=1.00D-06 within  32 cycles.
 Requested convergence on MAX density matrix=1.00D-04.
 Requested convergence on             energy=1.00D-04.
 Virtual orbitals will be shifted by   0.500 hartree.
 No special actions if energy rises.
 Dynamic level shift is on during FON iterations.

 Cycle   1  Pass 1  IDiag  1:
 E= -176.618858030132    
 DIIS: error= 4.90D-02 at cycle   1 NSaved=   1.
 NSaved= 1 IEnMin= 1 EnMin= -176.618858030132     IErMin= 1 ErrMin= 4.90D-02
 ErrMax= 4.90D-02  0.00D+00 EMaxC= 1.00D+00 BMatC= 4.42D-01 BMatP= 4.42D-01
 IDIUse=1 WtCom= 1.00D+00 WtEn= 0.00D+00
 Coeff-Com:  0.100D+01
 Coeff:      0.100D+01
 Gap=     0.353 Goal=   None    Shift=    0.500
 T= 1791. Gap= 0.821 NK=0 IS=   19 IE=   57 IFin=   18
          NO(<0.9)=   0  NV(>0.1)=   0     18.00e < EF      0.00e >EF  Err=0.0D+00
 Gap=     0.353 Goal=   None    Shift=    0.500
 T= 1791. Gap= 0.821 NK=0 IS=   19 IE=   57 IFin=   18
          NO(<0.9)=   0  NV(>0.1)=   0     18.00e < EF      0.00e >EF  Err=0.0D+00
 GapD=    0.353 DampG=1.000 DampE=0.500 DampFc=0.5000 IDamp=-1.
 Damping current iteration by 5.00D-01
 RMSDP=9.39D-03 MaxDP=7.39D-02              OVMax= 8.72D-02

 Cycle   2  Pass 1  IDiag  1:
 E= -176.694524386077     Delta-E=       -0.075666355945 Rises=F Damp=T
 DIIS: error= 2.06D-02 at cycle   2 NSaved=   2.
 NSaved= 2 IEnMin= 2 EnMin= -176.694524386077     IErMin= 2 ErrMin= 2.06D-02
 ErrMax= 2.06D-02  0.00D+00 EMaxC= 1.00D+00 BMatC= 6.57D-02 BMatP= 4.42D-01
 IDIUse=1 WtCom= 1.00D+00 WtEn= 0.00D+00
 Coeff-Com: -0.565D+00 0.156D+01
 Coeff:     -0.565D+00 0.156D+01
 Gap=     0.370 Goal=   None    Shift=    0.500
 T= 1662. Gap= 0.859 NK=0 IS=   19 IE=   57 IFin=   18
          NO(<0.9)=   0  NV(>0.1)=   0     18.00e < EF      0.00e >EF  Err=0.0D+00
 Gap=     0.370 Goal=   None    Shift=    0.500
 T= 1662. Gap= 0.859 NK=0 IS=   19 IE=   57 IFin=   18
          NO(<0.9)=   0  NV(>0.1)=   0     18.00e < EF      0.00e >EF  Err=0.0D+00
 GapD=    0.370 DampG=1.000 DampE=0.500 DampFc=0.5000 IDamp=-1.
 Damping current iteration by 5.00D-01
 RMSDP=5.76D-03 MaxDP=4.85D-02 DE=-7.57D-02 OVMax= 9.29D-03

 Cycle   3  Pass 1  IDiag  1:
 E= -176.718860456406     Delta-E=       -0.024336070329 Rises=F Damp=T
 DIIS: error= 8.77D-03 at cycle   3 NSaved=   3.
 NSaved= 3 IEnMin= 3 EnMin= -176.718860456406     IErMin= 3 ErrMin= 8.77D-03
 ErrMax= 8.77D-03  0.00D+00 EMaxC= 1.00D+00 BMatC= 1.15D-02 BMatP= 6.57D-02
 IDIUse=1 WtCom= 1.00D+00 WtEn= 0.00D+00
 Coeff-Com:  0.230D+00-0.150D+01 0.227D+01
 Coeff:      0.230D+00-0.150D+01 0.227D+01
 Gap=     0.358 Goal=   None    Shift=    0.500
 T= 1413. Gap= 0.858 NK=0 IS=   19 IE=   57 IFin=   18
          NO(<0.9)=   0  NV(>0.1)=   0     18.00e < EF      0.00e >EF  Err=0.0D+00
 Gap=     0.358 Goal=   None    Shift=    0.500
 T= 1413. Gap= 0.858 NK=0 IS=   19 IE=   57 IFin=   18
          NO(<0.9)=   0  NV(>0.1)=   0     18.00e < EF      0.00e >EF  Err=0.0D+00
 GapD=    0.358 DampG=1.000 DampE=1.000 DampFc=1.0000 IDamp=-1.
 RMSDP=3.17D-03 MaxDP=2.78D-02 DE=-2.43D-02 OVMax= 4.39D-03

 Cycle   4  Pass 1  IDiag  1:
 E= -176.738462107640     Delta-E=       -0.019601651234 Rises=F Damp=F
 DIIS: error= 1.25D-03 at cycle   4 NSaved=   4.
 NSaved= 4 IEnMin= 4 EnMin= -176.738462107640     IErMin= 4 ErrMin= 1.25D-03
 ErrMax= 1.25D-03  0.00D+00 EMaxC= 1.00D+00 BMatC= 5.15D-04 BMatP= 1.15D-02
 IDIUse=1 WtCom= 1.00D+00 WtEn= 0.00D+00
 Coeff-Com:  0.106D+00-0.245D+00 0.795D-01 0.106D+01
 Coeff:      0.106D+00-0.245D+00 0.795D-01 0.106D+01
 Gap=     0.359 Goal=   None    Shift=    0.500
 T=  849. Gap= 0.859 NK=0 IS=   19 IE=   57 IFin=   18
          NO(<0.9)=   0  NV(>0.1)=   0     18.00e < EF      0.00e >EF  Err=0.0D+00
 Gap=     0.359 Goal=   None    Shift=    0.500
 T=  849. Gap= 0.859 NK=0 IS=   19 IE=   57 IFin=   18
          NO(<0.9)=   0  NV(>0.1)=   0     18.00e < EF      0.00e >EF  Err=0.0D+00
 GapD=    0.359 DampG=1.000 DampE=1.000 DampFc=1.0000 IDamp=-1.
 RMSDP=3.69D-04 MaxDP=3.71D-03 DE=-1.96D-02 OVMax= 2.06D-03

 Cycle   5  Pass 1  IDiag  1:
 E= -176.738609712398     Delta-E=       -0.000147604758 Rises=F Damp=F
 DIIS: error= 4.68D-04 at cycle   5 NSaved=   5.
 NSaved= 5 IEnMin= 5 EnMin= -176.738609712398     IErMin= 5 ErrMin= 4.68D-04
 ErrMax= 4.68D-04  0.00D+00 EMaxC= 1.00D+00 BMatC= 4.99D-05 BMatP= 5.15D-04
 IDIUse=1 WtCom= 1.00D+00 WtEn= 0.00D+00
 Coeff-Com: -0.178D-01 0.183D+00-0.310D+00-0.119D+00 0.126D+01
 Coeff:     -0.178D-01 0.183D+00-0.310D+00-0.119D+00 0.126D+01
 Gap=     0.359 Goal=   None    Shift=    0.500
 Gap=     0.359 Goal=   None    Shift=    0.500
 RMSDP=1.65D-04 MaxDP=1.95D-03 DE=-1.48D-04 OVMax= 1.42D-03

 Cycle   6  Pass 1  IDiag  1:
 E= -176.738633427720     Delta-E=       -0.000023715322 Rises=F Damp=F
 DIIS: error= 2.61D-04 at cycle   6 NSaved=   6.
 NSaved= 6 IEnMin= 6 EnMin= -176.738633427720     IErMin= 6 ErrMin= 2.61D-04
 ErrMax= 2.61D-04  0.00D+00 EMaxC= 1.00D+00 BMatC= 8.23D-06 BMatP= 4.99D-05
 IDIUse=1 WtCom= 1.00D+00 WtEn= 0.00D+00
 Coeff-Com: -0.699D-02-0.249D-01 0.766D-01-0.116D+00-0.802D+00 0.187D+01
 Coeff:     -0.699D-02-0.249D-01 0.766D-01-0.116D+00-0.802D+00 0.187D+01
 Gap=     0.359 Goal=   None    Shift=    0.500
 Gap=     0.359 Goal=   None    Shift=    0.500
 RMSDP=8.91D-05 MaxDP=1.15D-03 DE=-2.37D-05 OVMax= 8.84D-04

 Cycle   7  Pass 1  IDiag  1:
 E= -176.738639384590     Delta-E=       -0.000005956870 Rises=F Damp=F
 DIIS: error= 1.84D-04 at cycle   7 NSaved=   7.
 NSaved= 7 IEnMin= 7 EnMin= -176.738639384590     IErMin= 7 ErrMin= 1.84D-04
 ErrMax= 1.84D-04  0.00D+00 EMaxC= 1.00D+00 BMatC= 1.96D-06 BMatP= 8.23D-06
 IDIUse=1 WtCom= 1.00D+00 WtEn= 0.00D+00
 Coeff-Com:  0.467D-02-0.152D-01 0.114D-01 0.680D-01-0.367D-01-0.122D+01
 Coeff-Com:  0.219D+01
 Coeff:      0.467D-02-0.152D-01 0.114D-01 0.680D-01-0.367D-01-0.122D+01
 Coeff:      0.219D+01
 Gap=     0.359 Goal=   None    Shift=    0.500
 Gap=     0.359 Goal=   None    Shift=    0.500
 RMSDP=4.45D-05 MaxDP=5.61D-04 DE=-5.96D-06 OVMax= 5.73D-04

 Cycle   8  Pass 1  IDiag  1:
 E= -176.738641094169     Delta-E=       -0.000001709579 Rises=F Damp=F
 DIIS: error= 1.15D-04 at cycle   8 NSaved=   8.
 NSaved= 8 IEnMin= 8 EnMin= -176.738641094169     IErMin= 8 ErrMin= 1.15D-04
 ErrMax= 1.15D-04  0.00D+00 EMaxC= 1.00D+00 BMatC= 4.88D-07 BMatP= 1.96D-06
 IDIUse=1 WtCom= 1.00D+00 WtEn= 0.00D+00
 Coeff-Com:  0.130D-02 0.412D-02-0.143D-01 0.431D-01 0.706D-01-0.349D+00
 Coeff-Com: -0.666D+00 0.191D+01
 Coeff:      0.130D-02 0.412D-02-0.143D-01 0.431D-01 0.706D-01-0.349D+00
 Coeff:     -0.666D+00 0.191D+01
 Gap=     0.359 Goal=   None    Shift=    0.500
 Gap=     0.359 Goal=   None    Shift=    0.500
 RMSDP=2.09D-05 MaxDP=2.50D-04 DE=-1.71D-06 OVMax= 3.29D-04

 Cycle   9  Pass 1  IDiag  1:
 E= -176.738641560593     Delta-E=       -0.000000466425 Rises=F Damp=F
 DIIS: error= 7.56D-05 at cycle   9 NSaved=   9.
 NSaved= 9 IEnMin= 9 EnMin= -176.738641560593     IErMin= 9 ErrMin= 7.56D-05
 ErrMax= 7.56D-05  0.00D+00 EMaxC= 1.00D+00 BMatC= 1.52D-07 BMatP= 4.88D-07
 IDIUse=1 WtCom= 1.00D+00 WtEn= 0.00D+00
 Coeff-Com: -0.626D-03 0.839D-02-0.150D-01 0.144D-01 0.503D-01 0.161D+00
 Coeff-Com: -0.114D+01 0.645D+00 0.127D+01
 Coeff:     -0.626D-03 0.839D-02-0.150D-01 0.144D-01 0.503D-01 0.161D+00
 Coeff:     -0.114D+01 0.645D+00 0.127D+01
 Gap=     0.359 Goal=   None    Shift=    0.500
 Gap=     0.359 Goal=   None    Shift=    0.500
 RMSDP=1.02D-05 MaxDP=1.15D-04 DE=-4.66D-07 OVMax= 1.98D-04

 Cycle  10  Pass 1  IDiag  1:
 E= -176.738641699008     Delta-E=       -0.000000138415 Rises=F Damp=F
 DIIS: error= 4.42D-05 at cycle  10 NSaved=  10.
 NSaved=10 IEnMin=10 EnMin= -176.738641699008     IErMin=10 ErrMin= 4.42D-05
 ErrMax= 4.42D-05  0.00D+00 EMaxC= 1.00D+00 BMatC= 4.71D-08 BMatP= 1.52D-07
 IDIUse=1 WtCom= 1.00D+00 WtEn= 0.00D+00
 Coeff-Com: -0.204D-03 0.707D-03-0.722D-03 0.113D-02-0.155D-01 0.608D-01
 Coeff-Com:  0.931D-01-0.376D+00-0.104D+01 0.228D+01
 Coeff:     -0.204D-03 0.707D-03-0.722D-03 0.113D-02-0.155D-01 0.608D-01
 Coeff:      0.931D-01-0.376D+00-0.104D+01 0.228D+01
 Gap=     0.359 Goal=   None    Shift=    0.500
 Gap=     0.359 Goal=   None    Shift=    0.500
 RMSDP=5.14D-06 MaxDP=5.44D-05 DE=-1.38D-07 OVMax= 1.12D-04

 Cycle  11  Pass 1  IDiag  1:
 E= -176.738641739389     Delta-E=       -0.000000040381 Rises=F Damp=F
 DIIS: error= 2.67D-05 at cycle  11 NSaved=  11.
 NSaved=11 IEnMin=11 EnMin= -176.738641739389     IErMin=11 ErrMin= 2.67D-05
 ErrMax= 2.67D-05  0.00D+00 EMaxC= 1.00D+00 BMatC= 1.71D-08 BMatP= 4.71D-08
 IDIUse=1 WtCom= 1.00D+00 WtEn= 0.00D+00
 Coeff-Com:  0.598D-04 0.402D-03-0.108D-02 0.375D-02-0.713D-02-0.226D-01
 Coeff-Com:  0.121D+00 0.902D-02-0.417D+00-0.878D+00 0.219D+01
 Coeff:      0.598D-04 0.402D-03-0.108D-02 0.375D-02-0.713D-02-0.226D-01
 Coeff:      0.121D+00 0.902D-02-0.417D+00-0.878D+00 0.219D+01
 Gap=     0.359 Goal=   None    Shift=    0.500
 Gap=     0.359 Goal=   None    Shift=    0.500
 RMSDP=2.56D-06 MaxDP=2.46D-05 DE=-4.04D-08 OVMax= 6.47D-05

 Cycle  12  Pass 1  IDiag  1:
 E= -176.738641751896     Delta-E=       -0.000000012507 Rises=F Damp=F
 DIIS: error= 1.56D-05 at cycle  12 NSaved=  12.
 NSaved=12 IEnMin=12 EnMin= -176.738641751896     IErMin=12 ErrMin= 1.56D-05
 ErrMax= 1.56D-05  0.00D+00 EMaxC= 1.00D+00 BMatC= 5.85D-09 BMatP= 1.71D-08
 IDIUse=1 WtCom= 1.00D+00 WtEn= 0.00D+00
 Coeff-Com:  0.422D-04-0.129D-04-0.157D-03 0.107D-02-0.122D-03-0.684D-02
 Coeff-Com: -0.783D-02 0.829D-01-0.152D-01 0.561D-02-0.171D+01 0.265D+01
 Coeff:      0.422D-04-0.129D-04-0.157D-03 0.107D-02-0.122D-03-0.684D-02
 Coeff:     -0.783D-02 0.829D-01-0.152D-01 0.561D-02-0.171D+01 0.265D+01
 Gap=     0.359 Goal=   None    Shift=    0.500
 Gap=     0.359 Goal=   None    Shift=    0.500
 RMSDP=1.29D-06 MaxDP=1.31D-05 DE=-1.25D-08 OVMax= 3.64D-05

 Cycle  13  Pass 1  IDiag  1:
 E= -176.738641755709     Delta-E=       -0.000000003813 Rises=F Damp=F
 DIIS: error= 9.04D-06 at cycle  13 NSaved=  13.
 NSaved=13 IEnMin=13 EnMin= -176.738641755709     IErMin=13 ErrMin= 9.04D-06
 ErrMax= 9.04D-06  0.00D+00 EMaxC= 1.00D+00 BMatC= 2.01D-09 BMatP= 5.85D-09
 IDIUse=1 WtCom= 1.00D+00 WtEn= 0.00D+00
 Coeff-Com: -0.204D-04-0.223D-04 0.121D-03-0.416D-03-0.649D-03 0.113D-01
 Coeff-Com: -0.210D-01-0.982D-02-0.239D-01 0.412D+00-0.324D+00-0.212D+01
 Coeff-Com:  0.308D+01
 Coeff:     -0.204D-04-0.223D-04 0.121D-03-0.416D-03-0.649D-03 0.113D-01
 Coeff:     -0.210D-01-0.982D-02-0.239D-01 0.412D+00-0.324D+00-0.212D+01
 Coeff:      0.308D+01
 Gap=     0.359 Goal=   None    Shift=    0.500
 Gap=     0.359 Goal=   None    Shift=    0.500
 RMSDP=6.58D-07 MaxDP=7.07D-06 DE=-3.81D-09 OVMax= 2.04D-05

 SCF Done:  E(ULC-wHPBE) =  -176.738641756     A.U. after   13 cycles
            NFock= 13  Conv=0.66D-06     -V/T= 1.9516
 <Sx>= 0.0000 <Sy>= 0.0000 <Sz>= 0.0000 <S**2>= 0.0000 S= 0.0000
 <L.S>= 0.000000000000E+00
 KE= 1.857278726691D+02 PE=-7.468077505585D+02 EE= 2.283284936477D+02
 Annihilation of the first spin contaminant:
 S**2 before annihilation     0.0000,   after    -0.0000
 Leave Link  502 at Thu Mar  5 12:52:44 2020, MaxMem=  6710886400 cpu:              25.0 elap:               1.8
 (Enter /opt/ohpc/pub/libs/gaussian/g16-A.03/sandybridge/g16/l508.exe)
 QCSCF skips out because SCF is already converged.
 Leave Link  508 at Thu Mar  5 12:52:45 2020, MaxMem=  6710886400 cpu:               0.3 elap:               0.2
 (Enter /opt/ohpc/pub/libs/gaussian/g16-A.03/sandybridge/g16/l601.exe)
 Copying SCF densities to generalized density rwf, IOpCl= 1 IROHF=0.

 **********************************************************************

            Population analysis using the SCF density.

 **********************************************************************

 Orbital symmetries:
 Alpha Orbitals:
       Occupied  (B2) (A1) (A1) (B2) (A1) (A1) (A1) (B2) (A1) (B2)
                 (A1) (B2) (B1) (A1) (A1) (B2) (A2) (B1)
       Virtual   (A2) (B2) (A1) (A1) (B1) (B2) (A1) (B2) (A1) (A1)
                 (B2) (B2) (A1) (B2) (B1) (A2) (A1) (B1) (A1) (A2)
                 (B2) (A1) (B1) (B2) (A1) (B2) (B2) (A1) (A1) (A1)
                 (B2) (A1) (A1) (B2) (B2) (A1) (A1) (A1) (B2)
 Beta  Orbitals:
       Occupied  (B2) (A1) (A1) (B2) (A1) (A1) (A1) (B2) (A1) (B2)
                 (A1) (B2) (B1) (A1) (A1) (B2) (A2) (B1)
       Virtual   (A2) (B2) (A1) (A1) (B1) (B2) (A1) (B2) (A1) (A1)
                 (B2) (B2) (A1) (B2) (B1) (A2) (A1) (B1) (A1) (A2)
                 (B2) (A1) (B1) (B2) (A1) (B2) (B2) (A1) (A1) (A1)
                 (B2) (A1) (A1) (B2) (B2) (A1) (A1) (A1) (B2)
 The electronic state is 1-A1.
 Alpha  occ. eigenvalues --   -8.58558  -8.58525  -8.53437  -8.53415  -8.50931
 Alpha  occ. eigenvalues --   -0.88890  -0.75226  -0.70846  -0.58206  -0.56089
 Alpha  occ. eigenvalues --   -0.55621  -0.42953  -0.42565  -0.41920  -0.38607
 Alpha  occ. eigenvalues --   -0.37380  -0.27256  -0.23858
 Alpha virt. eigenvalues --    0.12017   0.14055   0.14670   0.16514   0.18630
 Alpha virt. eigenvalues --    0.22020   0.23427   0.26015   0.27048   0.38760
 Alpha virt. eigenvalues --    0.41888   0.52375   0.53697   0.63291   0.64653
 Alpha virt. eigenvalues --    0.70708   0.71584   0.72425   0.75611   0.78216
 Alpha virt. eigenvalues --    0.79512   0.81188   0.81244   0.90933   0.97421
 Alpha virt. eigenvalues --    0.98025   1.03623   1.04043   1.05284   1.11460
 Alpha virt. eigenvalues --    1.11598   1.15942   1.18967   1.22808   1.31133
 Alpha virt. eigenvalues --    1.31801   1.40009   1.60324   1.60961
  Beta  occ. eigenvalues --   -8.58558  -8.58525  -8.53437  -8.53415  -8.50931
  Beta  occ. eigenvalues --   -0.88890  -0.75226  -0.70846  -0.58206  -0.56089
  Beta  occ. eigenvalues --   -0.55621  -0.42953  -0.42565  -0.41920  -0.38607
  Beta  occ. eigenvalues --   -0.37380  -0.27256  -0.23858
  Beta virt. eigenvalues --    0.12017   0.14055   0.14670   0.16514   0.18630
  Beta virt. eigenvalues --    0.22020   0.23427   0.26015   0.27048   0.38760
  Beta virt. eigenvalues --    0.41888   0.52375   0.53697   0.63291   0.64653
  Beta virt. eigenvalues --    0.70708   0.71584   0.72425   0.75611   0.78216
  Beta virt. eigenvalues --    0.79512   0.81188   0.81244   0.90933   0.97421
  Beta virt. eigenvalues --    0.98025   1.03623   1.04043   1.05284   1.11460
  Beta virt. eigenvalues --    1.11598   1.15942   1.18967   1.22808   1.31133
  Beta virt. eigenvalues --    1.31801   1.40009   1.60324   1.60961
          Condensed to atoms (all electrons):
               1          2          3          4          5          6
     1  C    5.309707   0.495579  -0.064306  -0.189085   0.338666   0.172691
     2  C    0.495579   4.783043   0.626324  -0.012415  -0.189085  -0.019261
     3  C   -0.064306   0.626324   4.535520   0.626324  -0.064306   0.005247
     4  C   -0.189085  -0.012415   0.626324   4.783043   0.495579  -0.019261
     5  C    0.338666  -0.189085  -0.064306   0.495579   5.309707   0.172691
     6  H    0.172691  -0.019261   0.005247  -0.019261   0.172691   0.412099
     7  H    0.344358   0.008859   0.002027   0.006001  -0.041276   0.002057
     8  H   -0.038068   0.355767  -0.011061   0.008231   0.004100   0.001931
     9  H    0.011742  -0.046054   0.376423  -0.046054   0.011742  -0.000361
    10  H    0.004100   0.008231  -0.011061   0.355767  -0.038068   0.001931
    11  H   -0.041276   0.006001   0.002027   0.008859   0.344358   0.002057
               7          8          9         10         11
     1  C    0.344358  -0.038068   0.011742   0.004100  -0.041276
     2  C    0.008859   0.355767  -0.046054   0.008231   0.006001
     3  C    0.002027  -0.011061   0.376423  -0.011061   0.002027
     4  C    0.006001   0.008231  -0.046054   0.355767   0.008859
     5  C   -0.041276   0.004100   0.011742  -0.038068   0.344358
     6  H    0.002057   0.001931  -0.000361   0.001931   0.002057
     7  H    0.545046  -0.004866  -0.000152  -0.000087   0.001291
     8  H   -0.004866   0.610129  -0.007019  -0.000308  -0.000087
     9  H   -0.000152  -0.007019   0.665715  -0.007019  -0.000152
    10  H   -0.000087  -0.000308  -0.007019   0.610129  -0.004866
    11  H    0.001291  -0.000087  -0.000152  -0.004866   0.545046
          Atomic-Atomic Spin Densities.
               1          2          3          4          5          6
     1  C    0.000000   0.000000  -0.000000  -0.000000   0.000000  -0.000000
     2  C    0.000000  -0.000000   0.000000  -0.000000  -0.000000  -0.000000
     3  C   -0.000000   0.000000   0.000000   0.000000  -0.000000   0.000000
     4  C   -0.000000  -0.000000   0.000000  -0.000000   0.000000  -0.000000
     5  C    0.000000  -0.000000  -0.000000   0.000000   0.000000  -0.000000
     6  H   -0.000000  -0.000000   0.000000  -0.000000  -0.000000   0.000000
     7  H   -0.000000   0.000000  -0.000000   0.000000   0.000000  -0.000000
     8  H    0.000000  -0.000000   0.000000  -0.000000   0.000000  -0.000000
     9  H   -0.000000   0.000000  -0.000000   0.000000  -0.000000  -0.000000
    10  H    0.000000  -0.000000   0.000000  -0.000000   0.000000  -0.000000
    11  H    0.000000   0.000000  -0.000000   0.000000  -0.000000  -0.000000
               7          8          9         10         11
     1  C   -0.000000   0.000000  -0.000000   0.000000   0.000000
     2  C    0.000000  -0.000000   0.000000  -0.000000   0.000000
     3  C   -0.000000   0.000000  -0.000000   0.000000  -0.000000
     4  C    0.000000  -0.000000   0.000000  -0.000000   0.000000
     5  C    0.000000   0.000000  -0.000000   0.000000  -0.000000
     6  H   -0.000000  -0.000000  -0.000000  -0.000000  -0.000000
     7  H   -0.000000   0.000000  -0.000000   0.000000   0.000000
     8  H    0.000000  -0.000000   0.000000  -0.000000   0.000000
     9  H   -0.000000   0.000000  -0.000000   0.000000  -0.000000
    10  H    0.000000  -0.000000   0.000000  -0.000000   0.000000
    11  H    0.000000   0.000000  -0.000000   0.000000  -0.000000
 Mulliken charges and spin densities:
               1          2
     1  C   -0.344108   0.000000
     2  C   -0.016989  -0.000000
     3  C   -0.023159   0.000000
     4  C   -0.016989  -0.000000
     5  C   -0.344108   0.000000
     6  H    0.268177  -0.000000
     7  H    0.136743  -0.000000
     8  H    0.081251  -0.000000
     9  H    0.041188   0.000000
    10  H    0.081251  -0.000000
    11  H    0.136743  -0.000000
 Sum of Mulliken charges =   0.00000   0.00000
 Mulliken charges and spin densities with hydrogens summed into heavy atoms:
               1          2
     1  C    0.060812  -0.000000
     2  C    0.064261  -0.000000
     3  C    0.018030   0.000000
     4  C    0.064261  -0.000000
     5  C   -0.207365   0.000000
 Electronic spatial extent (au):  <R**2>=            355.3731
 Charge=             -0.0000 electrons
 Dipole moment (field-independent basis, Debye):
    X=             -0.0000    Y=             -0.0000    Z=             -2.2361  Tot=              2.2361
 Quadrupole moment (field-independent basis, Debye-Ang):
   XX=            -41.8177   YY=            -35.8279   ZZ=            -33.4141
   XY=              0.0000   XZ=              0.0000   YZ=              0.0000
 Traceless Quadrupole moment (field-independent basis, Debye-Ang):
   XX=             -4.7978   YY=              1.1920   ZZ=              3.6058
   XY=              0.0000   XZ=              0.0000   YZ=              0.0000
 Octapole moment (field-independent basis, Debye-Ang**2):
  XXX=              0.0000  YYY=             -0.0000  ZZZ=            -10.4704  XYY=              0.0000
  XXY=             -0.0000  XXZ=              0.7920  XZZ=              0.0000  YZZ=              0.0000
  YYZ=             -1.5340  XYZ=             -0.0000
 Hexadecapole moment (field-independent basis, Debye-Ang**3):
 XXXX=            -51.0833 YYYY=           -267.9374 ZZZZ=           -250.6594 XXXY=             -0.0000
 XXXZ=             -0.0000 YYYX=             -0.0000 YYYZ=             -0.0000 ZZZX=             -0.0000
 ZZZY=              0.0000 XXYY=            -59.8652 XXZZ=            -58.2152 YYZZ=            -85.8974
 XXYZ=             -0.0000 YYXZ=             -0.0000 ZZXY=             -0.0000
 N-N= 1.560127424860D+02 E-N=-7.468077504979D+02  KE= 1.857278726691D+02
 Symmetry A1   KE= 1.074054282759D+02
 Symmetry A2   KE= 2.022663895585D+00
 Symmetry B1   KE= 3.473910718938D+00
 Symmetry B2   KE= 7.282586977864D+01
 Symmetry A1   SP= 1.047589365787D-14
 Symmetry A2   SP=-4.074572428006D-15
 Symmetry B1   SP=-4.798395522115D-16
 Symmetry B2   SP=-3.668168037685D-15
                          Isotropic Fermi Contact Couplings
        Atom                 a.u.       MegaHertz       Gauss      10(-4) cm-1
     1  C(13)              0.00000       0.00000       0.00000       0.00000
     2  C(13)             -0.00000      -0.00000      -0.00000      -0.00000
     3  C(13)              0.00000       0.00000       0.00000       0.00000
     4  C(13)             -0.00000      -0.00000      -0.00000      -0.00000
     5  C(13)              0.00000       0.00000       0.00000       0.00000
     6  H(1)               0.00000       0.00000       0.00000       0.00000
     7  H(1)              -0.00000      -0.00000      -0.00000      -0.00000
     8  H(1)              -0.00000      -0.00000      -0.00000      -0.00000
     9  H(1)              -0.00000      -0.00000      -0.00000      -0.00000
    10  H(1)              -0.00000      -0.00000      -0.00000      -0.00000
    11  H(1)              -0.00000      -0.00000      -0.00000      -0.00000
 --------------------------------------------------------
       Center         ----  Spin Dipole Couplings  ----
                      3XX-RR        3YY-RR        3ZZ-RR
 --------------------------------------------------------
     1   Atom        0.000000      0.000000      0.000000
     2   Atom        0.000000      0.000000      0.000000
     3   Atom        0.000000      0.000000      0.000000
     4   Atom        0.000000      0.000000      0.000000
     5   Atom        0.000000      0.000000      0.000000
     6   Atom        0.000000      0.000000      0.000000
     7   Atom        0.000000      0.000000      0.000000
     8   Atom        0.000000      0.000000      0.000000
     9   Atom        0.000000      0.000000      0.000000
    10   Atom        0.000000      0.000000      0.000000
    11   Atom        0.000000      0.000000      0.000000
 --------------------------------------------------------
                        XY            XZ            YZ
 --------------------------------------------------------
     1   Atom        0.000000      0.000000      0.000000
     2   Atom        0.000000      0.000000      0.000000
     3   Atom        0.000000      0.000000      0.000000
     4   Atom        0.000000      0.000000      0.000000
     5   Atom        0.000000      0.000000      0.000000
     6   Atom        0.000000      0.000000      0.000000
     7   Atom        0.000000      0.000000      0.000000
     8   Atom        0.000000      0.000000      0.000000
     9   Atom        0.000000      0.000000      0.000000
    10   Atom        0.000000      0.000000      0.000000
    11   Atom        0.000000      0.000000      0.000000
 --------------------------------------------------------


 ---------------------------------------------------------------------------------
              Anisotropic Spin Dipole Couplings in Principal Axis System
 ---------------------------------------------------------------------------------

       Atom             a.u.   MegaHertz   Gauss  10(-4) cm-1        Axes

              Baa     0.0000     0.000     0.000     0.000  1.0000  0.0000  0.0000
     1 C(13)  Bbb     0.0000     0.000     0.000     0.000 -0.0000  1.0000  0.0000
              Bcc     0.0000     0.000     0.000     0.000  0.0000  0.0000  1.0000
 
              Baa     0.0000     0.000     0.000     0.000  1.0000  0.0000  0.0000
     2 C(13)  Bbb     0.0000     0.000     0.000     0.000 -0.0000  1.0000  0.0000
              Bcc     0.0000     0.000     0.000     0.000  0.0000  0.0000  1.0000
 
              Baa     0.0000     0.000     0.000     0.000  1.0000  0.0000  0.0000
     3 C(13)  Bbb     0.0000     0.000     0.000     0.000 -0.0000  1.0000  0.0000
              Bcc     0.0000     0.000     0.000     0.000  0.0000  0.0000  1.0000
 
              Baa     0.0000     0.000     0.000     0.000  1.0000  0.0000  0.0000
     4 C(13)  Bbb     0.0000     0.000     0.000     0.000 -0.0000  1.0000  0.0000
              Bcc     0.0000     0.000     0.000     0.000  0.0000  0.0000  1.0000
 
              Baa     0.0000     0.000     0.000     0.000  1.0000  0.0000  0.0000
     5 C(13)  Bbb     0.0000     0.000     0.000     0.000 -0.0000  1.0000  0.0000
              Bcc     0.0000     0.000     0.000     0.000  0.0000  0.0000  1.0000
 
              Baa     0.0000     0.000     0.000     0.000  1.0000  0.0000  0.0000
     6 H(1)   Bbb     0.0000     0.000     0.000     0.000 -0.0000  1.0000  0.0000
              Bcc     0.0000     0.000     0.000     0.000  0.0000  0.0000  1.0000
 
              Baa     0.0000     0.000     0.000     0.000  1.0000  0.0000  0.0000
     7 H(1)   Bbb     0.0000     0.000     0.000     0.000 -0.0000  1.0000  0.0000
              Bcc     0.0000     0.000     0.000     0.000  0.0000  0.0000  1.0000
 
              Baa     0.0000     0.000     0.000     0.000  1.0000  0.0000  0.0000
     8 H(1)   Bbb     0.0000     0.000     0.000     0.000 -0.0000  1.0000  0.0000
              Bcc     0.0000     0.000     0.000     0.000  0.0000  0.0000  1.0000
 
              Baa     0.0000     0.000     0.000     0.000  1.0000  0.0000  0.0000
     9 H(1)   Bbb     0.0000     0.000     0.000     0.000 -0.0000  1.0000  0.0000
              Bcc     0.0000     0.000     0.000     0.000  0.0000  0.0000  1.0000
 
              Baa     0.0000     0.000     0.000     0.000  1.0000  0.0000  0.0000
    10 H(1)   Bbb     0.0000     0.000     0.000     0.000 -0.0000  1.0000  0.0000
              Bcc     0.0000     0.000     0.000     0.000  0.0000  0.0000  1.0000
 
              Baa     0.0000     0.000     0.000     0.000  1.0000  0.0000  0.0000
    11 H(1)   Bbb     0.0000     0.000     0.000     0.000 -0.0000  1.0000  0.0000
              Bcc     0.0000     0.000     0.000     0.000  0.0000  0.0000  1.0000
 

 ---------------------------------------------------------------------------------

 No NMR shielding tensors so no spin-rotation constants.
 Leave Link  601 at Thu Mar  5 12:52:45 2020, MaxMem=  6710886400 cpu:               3.4 elap:               0.3
 (Enter /opt/ohpc/pub/libs/gaussian/g16-A.03/sandybridge/g16/l9999.exe)

 Test job not archived.
 1\1\GINC-CNODE212\SP\ULC-wHPBE\6-31G\C5H6\SMGO234\05-Mar-2020\0\\#P uL
 C-wHPBE/6-31G iop(3/130=0250200000, 3/131=0250200000, 3/119=0749800000
 , 3/120=0749800000) scf=(conver=6,fermi,ndamp=35,noincfock,novaracc,vs
 hift=500,xqc)\\H6 C5\\0,1\C,0,0.,0.878804,-0.931542\C,0,0.,1.128157,0.
 423457\C,0,0.,0.,1.240879\C,0,0.,-1.128157,0.423457\C,0,0.,-0.878804,-
 0.931542\H,0,0.,0.,-1.732269\H,0,0.,1.6083,-1.734053\H,0,0.,2.156626,0
 .76567\H,0,0.,0.,2.320778\H,0,0.,-2.156626,0.76567\H,0,0.,-1.6083,-1.7
 34053\\Version=EM64L-G16RevA.03\State=1-A1\HF=-176.7386418\S2=0.\S2-1=
 0.\S2A=0.\RMSD=6.583e-07\Dipole=0.,0.,-0.8797571\Quadrupole=-3.5670459
 ,0.8862007,2.6808453,0.,0.,0.\PG=C02V [C2(H1C1H1),SGV(C4H4)]\\@


 CHILDREN YOU ARE VERY LITTLE,
 AND YOUR BONES ARE VERY BRITTLE;
 IF YOU WOULD GROW GREAT AND STATELY
 YOU MUST TRY TO WALK SEDATELY.
 YOU MUST STILL BE BRIGHT AND QUIET,
 AND CONTENT WITH SIMPLE DIET;
 AND REMAIN, THROUGH ALL BEWILD'RING
 INNOCENT AND HONEST CHILDREN.
     -- A CHILD'S GARDEN OF VERSE,
        ROBERT LOUIS STEVENSON
 Job cpu time:       0 days  0 hours  1 minutes  1.0 seconds.
 Elapsed time:       0 days  0 hours  0 minutes  4.8 seconds.
 File lengths (MBytes):  RWF=    272 Int=      0 D2E=      0 Chk=     32 Scr=     32
 Normal termination of Gaussian 16 at Thu Mar  5 12:52:46 2020.
