 Entering Gaussian System, Link 0=g16
 Input=a1b_tune_n0.gjf
 Output=a1b_tune_n0.log
 Initial command:
 /opt/ohpc/pub/libs/gaussian/g16-A.03/sandybridge/g16/l1.exe "/scratch/smgo234/Ocelot/test/a1b/tuning_a1b_acycle1/Gau-78308.inp" -scrdir="/scratch/smgo234/Ocelot/test/a1b/tuning_a1b_acycle1/"
 Entering Link 1 = /opt/ohpc/pub/libs/gaussian/g16-A.03/sandybridge/g16/l1.exe PID=     78309.
  
 Copyright (c) 1988,1990,1992,1993,1995,1998,2003,2009,2016,
            Gaussian, Inc.  All Rights Reserved.
  
 This is part of the Gaussian(R) 16 program.  It is based on
 the Gaussian(R) 09 system (copyright 2009, Gaussian, Inc.),
 the Gaussian(R) 03 system (copyright 2003, Gaussian, Inc.),
 the Gaussian(R) 98 system (copyright 1998, Gaussian, Inc.),
 the Gaussian(R) 94 system (copyright 1995, Gaussian, Inc.),
 the Gaussian 92(TM) system (copyright 1992, Gaussian, Inc.),
 the Gaussian 90(TM) system (copyright 1990, Gaussian, Inc.),
 the Gaussian 88(TM) system (copyright 1988, Gaussian, Inc.),
 the Gaussian 86(TM) system (copyright 1986, Carnegie Mellon
 University), and the Gaussian 82(TM) system (copyright 1983,
 Carnegie Mellon University). Gaussian is a federally registered
 trademark of Gaussian, Inc.
  
 This software contains proprietary and confidential information,
 including trade secrets, belonging to Gaussian, Inc.
  
 This software is provided under written license and may be
 used, copied, transmitted, or stored only in accord with that
 written license.
  
 The following legend is applicable only to US Government
 contracts under FAR:
  
                    RESTRICTED RIGHTS LEGEND
  
 Use, reproduction and disclosure by the US Government is
 subject to restrictions as set forth in subparagraphs (a)
 and (c) of the Commercial Computer Software - Restricted
 Rights clause in FAR 52.227-19.
  
 Gaussian, Inc.
 340 Quinnipiac St., Bldg. 40, Wallingford CT 06492
  
  
 ---------------------------------------------------------------
 Warning -- This program may not be used in any manner that
 competes with the business of Gaussian, Inc. or will provide
 assistance to any competitor of Gaussian, Inc.  The licensee
 of this program is prohibited from giving any competitor of
 Gaussian, Inc. access to this program.  By using this program,
 the user acknowledges that Gaussian, Inc. is engaged in the
 business of creating and licensing software in the field of
 computational chemistry and represents and warrants to the
 licensee that it is not a competitor of Gaussian, Inc. and that
 it will not use this program in any manner prohibited above.
 ---------------------------------------------------------------
  

 Cite this work as:
 Gaussian 16, Revision A.03,
 M. J. Frisch, G. W. Trucks, H. B. Schlegel, G. E. Scuseria, 
 M. A. Robb, J. R. Cheeseman, G. Scalmani, V. Barone, 
 G. A. Petersson, H. Nakatsuji, X. Li, M. Caricato, A. V. Marenich, 
 J. Bloino, B. G. Janesko, R. Gomperts, B. Mennucci, H. P. Hratchian, 
 J. V. Ortiz, A. F. Izmaylov, J. L. Sonnenberg, D. Williams-Young, 
 F. Ding, F. Lipparini, F. Egidi, J. Goings, B. Peng, A. Petrone, 
 T. Henderson, D. Ranasinghe, V. G. Zakrzewski, J. Gao, N. Rega, 
 G. Zheng, W. Liang, M. Hada, M. Ehara, K. Toyota, R. Fukuda, 
 J. Hasegawa, M. Ishida, T. Nakajima, Y. Honda, O. Kitao, H. Nakai, 
 T. Vreven, K. Throssell, J. A. Montgomery, Jr., J. E. Peralta, 
 F. Ogliaro, M. J. Bearpark, J. J. Heyd, E. N. Brothers, K. N. Kudin, 
 V. N. Staroverov, T. A. Keith, R. Kobayashi, J. Normand, 
 K. Raghavachari, A. P. Rendell, J. C. Burant, S. S. Iyengar, 
 J. Tomasi, M. Cossi, J. M. Millam, M. Klene, C. Adamo, R. Cammi, 
 J. W. Ochterski, R. L. Martin, K. Morokuma, O. Farkas, 
 J. B. Foresman, and D. J. Fox, Gaussian, Inc., Wallingford CT, 2016.
 
 ******************************************
 Gaussian 16:  EM64L-G16RevA.03 25-Dec-2016
                 5-Mar-2020 
 ******************************************
 %mem=50GB
 %nproc=16
 Will use up to   16 processors via shared memory.
 ----------------------------------------------------------------------
 #P uLC-wHPBE/6-31G iop(3/130=0226200000, 3/131=0226200000, 3/119=07738
 00000, 3/120=0773800000) scf=(conver=6,fermi,ndamp=35,noincfock,novara
 cc,vshift=500,xqc)
 ----------------------------------------------------------------------
 1/38=1,172=1/1;
 2/12=2,17=6,18=5,40=1/2;
 3/5=1,6=6,11=2,25=1,30=1,74=-71,116=2,119=773800000,120=773800000,130=226200000,131=226200000/1,2,3;
 4//1;
 5/5=100002,6=6,8=3,10=500,13=1,18=-1,22=13,38=1,93=35/2,8;
 6/7=2,8=2,9=2,10=2,28=1/1;
 99/5=1,9=1/99;
 Leave Link    1 at Thu Mar  5 12:51:38 2020, MaxMem=  6710886400 cpu:              16.5 elap:               1.1
 (Enter /opt/ohpc/pub/libs/gaussian/g16-A.03/sandybridge/g16/l101.exe)
 -----
 H6 C5
 -----
 Symbolic Z-matrix:
 Charge =  0 Multiplicity = 1
 C                     0.        0.8788   -0.93154 
 C                     0.        1.12816   0.42346 
 C                     0.        0.        1.24088 
 C                     0.       -1.12816   0.42346 
 C                     0.       -0.8788   -0.93154 
 H                     0.        0.       -1.73227 
 H                     0.        1.6083   -1.73405 
 H                     0.        2.15663   0.76567 
 H                     0.        0.        2.32078 
 H                     0.       -2.15663   0.76567 
 H                     0.       -1.6083   -1.73405 
 
 ITRead=  0  0  0  0  0  0  0  0  0  0  0
 MicOpt= -1 -1 -1 -1 -1 -1 -1 -1 -1 -1 -1
 NAtoms=     11 NQM=       11 NQMF=       0 NMMI=      0 NMMIF=      0
                NMic=       0 NMicF=      0.
                    Isotopes and Nuclear Properties:
 (Nuclear quadrupole moments (NQMom) in fm**2, nuclear magnetic moments (NMagM)
  in nuclear magnetons)

  Atom         1           2           3           4           5           6           7           8           9          10
 IAtWgt=          12          12          12          12          12           1           1           1           1           1
 AtmWgt=  12.0000000  12.0000000  12.0000000  12.0000000  12.0000000   1.0078250   1.0078250   1.0078250   1.0078250   1.0078250
 NucSpn=           0           0           0           0           0           1           1           1           1           1
 AtZEff=  -0.0000000  -0.0000000  -0.0000000  -0.0000000  -0.0000000  -0.0000000  -0.0000000  -0.0000000  -0.0000000  -0.0000000
 NQMom=    0.0000000   0.0000000   0.0000000   0.0000000   0.0000000   0.0000000   0.0000000   0.0000000   0.0000000   0.0000000
 NMagM=    0.0000000   0.0000000   0.0000000   0.0000000   0.0000000   2.7928460   2.7928460   2.7928460   2.7928460   2.7928460
 AtZNuc=   6.0000000   6.0000000   6.0000000   6.0000000   6.0000000   1.0000000   1.0000000   1.0000000   1.0000000   1.0000000

  Atom        11
 IAtWgt=           1
 AtmWgt=   1.0078250
 NucSpn=           1
 AtZEff=  -0.0000000
 NQMom=    0.0000000
 NMagM=    2.7928460
 AtZNuc=   1.0000000
 Leave Link  101 at Thu Mar  5 12:51:38 2020, MaxMem=  6710886400 cpu:               2.7 elap:               0.2
 (Enter /opt/ohpc/pub/libs/gaussian/g16-A.03/sandybridge/g16/l202.exe)
                          Input orientation:                          
 ---------------------------------------------------------------------
 Center     Atomic      Atomic             Coordinates (Angstroms)
 Number     Number       Type             X           Y           Z
 ---------------------------------------------------------------------
      1          6           0        0.000000    0.878804   -0.931542
      2          6           0        0.000000    1.128157    0.423457
      3          6           0        0.000000    0.000000    1.240879
      4          6           0        0.000000   -1.128157    0.423457
      5          6           0        0.000000   -0.878804   -0.931542
      6          1           0        0.000000    0.000000   -1.732269
      7          1           0        0.000000    1.608300   -1.734053
      8          1           0        0.000000    2.156626    0.765670
      9          1           0        0.000000    0.000000    2.320778
     10          1           0        0.000000   -2.156626    0.765670
     11          1           0        0.000000   -1.608300   -1.734053
 ---------------------------------------------------------------------
                    Distance matrix (angstroms):
                    1          2          3          4          5
     1  C    0.000000
     2  C    1.377752   0.000000
     3  C    2.343440   1.393168   0.000000
     4  C    2.421552   2.256314   1.393168   0.000000
     5  C    1.757608   2.421552   2.343440   1.377752   0.000000
     6  H    1.188890   2.433083   2.973148   2.433083   1.188890
     7  H    1.084522   2.210291   3.381841   3.484687   2.613371
     8  H    2.124466   1.083909   2.208361   3.302561   3.477695
     9  H    3.368959   2.207389   1.079899   2.207389   3.368959
    10  H    3.477695   3.302561   2.208361   1.083909   2.124466
    11  H    2.613371   3.484687   3.381841   2.210291   1.084522
                    6          7          8          9         10
     6  H    0.000000
     7  H    1.608301   0.000000
     8  H    3.300111   2.559155   0.000000
     9  H    4.053047   4.362142   2.658834   0.000000
    10  H    3.300111   4.519213   4.313252   2.658834   0.000000
    11  H    1.608301   3.216600   4.519213   4.362142   2.559155
                   11
    11  H    0.000000
 Stoichiometry    C5H6
 Framework group  C2V[C2(HCH),SGV(C4H4)]
 Deg. of freedom    10
 Full point group                 C2V     NOp   4
 Largest Abelian subgroup         C2V     NOp   4
 Largest concise Abelian subgroup C2      NOp   2
                         Standard orientation:                         
 ---------------------------------------------------------------------
 Center     Atomic      Atomic             Coordinates (Angstroms)
 Number     Number       Type             X           Y           Z
 ---------------------------------------------------------------------
      1          6           0        0.000000    0.878804   -0.931542
      2          6           0        0.000000    1.128157    0.423457
      3          6           0        0.000000   -0.000000    1.240879
      4          6           0       -0.000000   -1.128157    0.423457
      5          6           0       -0.000000   -0.878804   -0.931542
      6          1           0       -0.000000    0.000000   -1.732269
      7          1           0        0.000000    1.608300   -1.734053
      8          1           0        0.000000    2.156626    0.765670
      9          1           0        0.000000   -0.000000    2.320778
     10          1           0       -0.000000   -2.156626    0.765670
     11          1           0       -0.000000   -1.608300   -1.734053
 ---------------------------------------------------------------------
 Rotational constants (GHZ):           8.5259551           7.9375455           4.1106177
 Leave Link  202 at Thu Mar  5 12:51:38 2020, MaxMem=  6710886400 cpu:               0.4 elap:               0.0
 (Enter /opt/ohpc/pub/libs/gaussian/g16-A.03/sandybridge/g16/l301.exe)
 Standard basis: 6-31G (6D, 7F)
 Ernie: Thresh=  0.10000D-02 Tol=  0.10000D-05 Strict=F.
 There are    27 symmetry adapted cartesian basis functions of A1  symmetry.
 There are     4 symmetry adapted cartesian basis functions of A2  symmetry.
 There are     6 symmetry adapted cartesian basis functions of B1  symmetry.
 There are    20 symmetry adapted cartesian basis functions of B2  symmetry.
 There are    27 symmetry adapted basis functions of A1  symmetry.
 There are     4 symmetry adapted basis functions of A2  symmetry.
 There are     6 symmetry adapted basis functions of B1  symmetry.
 There are    20 symmetry adapted basis functions of B2  symmetry.
    57 basis functions,   134 primitive gaussians,    57 cartesian basis functions
    18 alpha electrons       18 beta electrons
       nuclear repulsion energy       156.0127424860 Hartrees.
 IExCor=33909 DFT=T Ex+Corr=LC-wHPBE ExCW=0 ScaHFX=  1.000000
 ScaDFX=  1.000000  1.000000  1.000000  1.000000 ScalE2=  1.000000  1.000000
 IRadAn=      5 IRanWt=     -1 IRanGd=            0 ICorTp=0 IEmpDi=  4
 HFx  wShort=  0.000000 wLong=  0.400000 cFull=  0.000000 cShort=  0.000000 cLong=  0.773800
 DFx  wShort=  0.000000 wLong=  0.400000 cFull=  0.000000 cShort=  0.000000 cLong=  0.773800
 NAtoms=   11 NActive=   11 NUniq=    7 SFac= 2.47D+00 NAtFMM=   60 NAOKFM=F Big=F
 Integral buffers will be    131072 words long.
 Raffenetti 2 integral format.
 Two-electron integral symmetry is turned on.
 Leave Link  301 at Thu Mar  5 12:51:38 2020, MaxMem=  6710886400 cpu:               0.9 elap:               0.1
 (Enter /opt/ohpc/pub/libs/gaussian/g16-A.03/sandybridge/g16/l302.exe)
 NPDir=0 NMtPBC=     1 NCelOv=     1 NCel=       1 NClECP=     1 NCelD=      1
         NCelK=      1 NCelE2=     1 NClLst=     1 CellRange=     0.0.
 One-electron integrals computed using PRISM.
 One-electron integral symmetry used in STVInt
 NBasis=    57 RedAO= T EigKep=  1.84D-03  NBF=    27     4     6    20
 NBsUse=    57 1.00D-06 EigRej= -1.00D+00 NBFU=    27     4     6    20
 Precomputing XC quadrature grid using
 IXCGrd= 4 IRadAn=           5 IRanWt=          -1 IRanGd=           0 AccXCQ= 0.00D+00.
 Generated NRdTot=       0 NPtTot=           0 NUsed=           0 NTot=          32
 NSgBfM=    57    57    57    57    57 MxSgAt=    11 MxSgA2=    11.
 Leave Link  302 at Thu Mar  5 12:51:39 2020, MaxMem=  6710886400 cpu:               2.2 elap:               0.2
 (Enter /opt/ohpc/pub/libs/gaussian/g16-A.03/sandybridge/g16/l303.exe)
 DipDrv:  MaxL=1.
 Leave Link  303 at Thu Mar  5 12:51:39 2020, MaxMem=  6710886400 cpu:               0.7 elap:               0.1
 (Enter /opt/ohpc/pub/libs/gaussian/g16-A.03/sandybridge/g16/l401.exe)
 ExpMin= 1.61D-01 ExpMax= 3.05D+03 ExpMxC= 4.57D+02 IAcc=3 IRadAn=         5 AccDes= 0.00D+00
 Harris functional with IExCor=33909 and IRadAn=       5 diagonalized for initial guess.
 HarFok:  IExCor=33909 AccDes= 0.00D+00 IRadAn=         5 IDoV= 1 UseB2=F ITyADJ=14
 ICtDFT=  3500011 ScaDFX=  1.000000  1.000000  1.000000  1.000000
 FoFCou: FMM=F IPFlag=           0 FMFlag=      100000 FMFlg1=           0
         NFxFlg=           0 DoJE=T BraDBF=F KetDBF=T FulRan=T
         wScrn=  0.000000 ICntrl=       500 IOpCl=  0 I1Cent=   200000004 NGrid=           0
         NMat0=    1 NMatS0=      1 NMatT0=    0 NMatD0=    1 NMtDS0=    0 NMtDT0=    0
 Petite list used in FoFCou.
 Harris En= -171.777333266217    
 JPrj=0 DoOrth=F DoCkMO=F.
 Initial guess orbital symmetries:
 Alpha Orbitals:
       Occupied  (A1) (B2) (A1) (B2) (A1) (A1) (A1) (B2) (A1) (A1)
                 (B2) (B1) (B2) (A1) (A1) (B2) (A2) (B1)
       Virtual   (A2) (A1) (B2) (B1) (A1) (B2) (A1) (A1) (B2) (A1)
                 (B2) (B2) (A1) (B1) (B2) (A2) (A1) (B1) (A1) (B2)
                 (A2) (A1) (B1) (B2) (A1) (B2) (B2) (A1) (A1) (B2)
                 (A1) (A1) (A1) (B2) (B2) (A1) (A1) (A1) (B2)
 Beta  Orbitals:
       Occupied  (A1) (B2) (A1) (B2) (A1) (A1) (A1) (B2) (A1) (A1)
                 (B2) (B1) (B2) (A1) (A1) (B2) (A2) (B1)
       Virtual   (A2) (A1) (B2) (B1) (A1) (B2) (A1) (A1) (B2) (A1)
                 (B2) (B2) (A1) (B1) (B2) (A2) (A1) (B1) (A1) (B2)
                 (A2) (A1) (B1) (B2) (A1) (B2) (B2) (A1) (A1) (B2)
                 (A1) (A1) (A1) (B2) (B2) (A1) (A1) (A1) (B2)
 The electronic state of the initial guess is 1-A1.
 Initial guess <Sx>= 0.0000 <Sy>= 0.0000 <Sz>= 0.0000 <S**2>= 0.0000 S= 0.0000
 Leave Link  401 at Thu Mar  5 12:51:39 2020, MaxMem=  6710886400 cpu:               3.1 elap:               0.2
 (Enter /opt/ohpc/pub/libs/gaussian/g16-A.03/sandybridge/g16/l502.exe)
 Keep R1 and R2 ints in memory in symmetry-blocked form, NReq=16815681.
 FoFCou: FMM=F IPFlag=           0 FMFlag=           0 FMFlg1=           0
         NFxFlg=           0 DoJE=F BraDBF=F KetDBF=F FulRan=T
         wScrn=  0.000000 ICntrl=       600 IOpCl=  0 I1Cent=           0 NGrid=           0
         NMat0=    1 NMatS0=   1653 NMatT0=    0 NMatD0=    1 NMtDS0=    0 NMtDT0=    0
 Petite list used in FoFCou.
 UHF open shell SCF:
 Using DIIS extrapolation, IDIIS=    10.
 NGot=  6710886400 LenX=  6710059561 LenY=  6710055871
 Requested convergence on RMS density matrix=1.00D-06 within  32 cycles.
 Requested convergence on MAX density matrix=1.00D-04.
 Requested convergence on             energy=1.00D-04.
 Virtual orbitals will be shifted by   0.500 hartree.
 No special actions if energy rises.
 Dynamic level shift is on during FON iterations.

 Cycle   1  Pass 1  IDiag  1:
 E= -176.953575851042    
 DIIS: error= 4.89D-02 at cycle   1 NSaved=   1.
 NSaved= 1 IEnMin= 1 EnMin= -176.953575851042     IErMin= 1 ErrMin= 4.89D-02
 ErrMax= 4.89D-02  0.00D+00 EMaxC= 1.00D+00 BMatC= 4.40D-01 BMatP= 4.40D-01
 IDIUse=1 WtCom= 1.00D+00 WtEn= 0.00D+00
 Coeff-Com:  0.100D+01
 Coeff:      0.100D+01
 Gap=     0.358 Goal=   None    Shift=    0.500
 T= 1789. Gap= 0.827 NK=0 IS=   19 IE=   57 IFin=   18
          NO(<0.9)=   0  NV(>0.1)=   0     18.00e < EF      0.00e >EF  Err=0.0D+00
 Gap=     0.358 Goal=   None    Shift=    0.500
 T= 1789. Gap= 0.827 NK=0 IS=   19 IE=   57 IFin=   18
          NO(<0.9)=   0  NV(>0.1)=   0     18.00e < EF      0.00e >EF  Err=0.0D+00
 GapD=    0.358 DampG=1.000 DampE=0.500 DampFc=0.5000 IDamp=-1.
 Damping current iteration by 5.00D-01
 RMSDP=9.34D-03 MaxDP=7.31D-02              OVMax= 8.67D-02

 Cycle   2  Pass 1  IDiag  1:
 E= -177.028551061894     Delta-E=       -0.074975210852 Rises=F Damp=T
 DIIS: error= 2.07D-02 at cycle   2 NSaved=   2.
 NSaved= 2 IEnMin= 2 EnMin= -177.028551061894     IErMin= 2 ErrMin= 2.07D-02
 ErrMax= 2.07D-02  0.00D+00 EMaxC= 1.00D+00 BMatC= 6.66D-02 BMatP= 4.40D-01
 IDIUse=1 WtCom= 1.00D+00 WtEn= 0.00D+00
 Coeff-Com: -0.574D+00 0.157D+01
 Coeff:     -0.574D+00 0.157D+01
 Gap=     0.375 Goal=   None    Shift=    0.500
 T= 1661. Gap= 0.864 NK=0 IS=   19 IE=   57 IFin=   18
          NO(<0.9)=   0  NV(>0.1)=   0     18.00e < EF      0.00e >EF  Err=0.0D+00
 Gap=     0.375 Goal=   None    Shift=    0.500
 T= 1661. Gap= 0.864 NK=0 IS=   19 IE=   57 IFin=   18
          NO(<0.9)=   0  NV(>0.1)=   0     18.00e < EF      0.00e >EF  Err=0.0D+00
 GapD=    0.375 DampG=1.000 DampE=0.500 DampFc=0.5000 IDamp=-1.
 Damping current iteration by 5.00D-01
 RMSDP=5.77D-03 MaxDP=4.83D-02 DE=-7.50D-02 OVMax= 9.10D-03

 Cycle   3  Pass 1  IDiag  1:
 E= -177.052914387844     Delta-E=       -0.024363325949 Rises=F Damp=T
 DIIS: error= 8.92D-03 at cycle   3 NSaved=   3.
 NSaved= 3 IEnMin= 3 EnMin= -177.052914387844     IErMin= 3 ErrMin= 8.92D-03
 ErrMax= 8.92D-03  0.00D+00 EMaxC= 1.00D+00 BMatC= 1.19D-02 BMatP= 6.66D-02
 IDIUse=1 WtCom= 1.00D+00 WtEn= 0.00D+00
 Coeff-Com:  0.233D+00-0.152D+01 0.229D+01
 Coeff:      0.233D+00-0.152D+01 0.229D+01
 Gap=     0.364 Goal=   None    Shift=    0.500
 T= 1414. Gap= 0.864 NK=0 IS=   19 IE=   57 IFin=   18
          NO(<0.9)=   0  NV(>0.1)=   0     18.00e < EF      0.00e >EF  Err=0.0D+00
 Gap=     0.364 Goal=   None    Shift=    0.500
 T= 1414. Gap= 0.864 NK=0 IS=   19 IE=   57 IFin=   18
          NO(<0.9)=   0  NV(>0.1)=   0     18.00e < EF      0.00e >EF  Err=0.0D+00
 GapD=    0.364 DampG=1.000 DampE=1.000 DampFc=1.0000 IDamp=-1.
 RMSDP=3.21D-03 MaxDP=2.79D-02 DE=-2.44D-02 OVMax= 4.53D-03

 Cycle   4  Pass 1  IDiag  1:
 E= -177.072612731507     Delta-E=       -0.019698343663 Rises=F Damp=F
 DIIS: error= 1.21D-03 at cycle   4 NSaved=   4.
 NSaved= 4 IEnMin= 4 EnMin= -177.072612731507     IErMin= 4 ErrMin= 1.21D-03
 ErrMax= 1.21D-03  0.00D+00 EMaxC= 1.00D+00 BMatC= 4.91D-04 BMatP= 1.19D-02
 IDIUse=1 WtCom= 1.00D+00 WtEn= 0.00D+00
 Coeff-Com:  0.107D+00-0.247D+00 0.750D-01 0.106D+01
 Coeff:      0.107D+00-0.247D+00 0.750D-01 0.106D+01
 Gap=     0.365 Goal=   None    Shift=    0.500
 T=  853. Gap= 0.865 NK=0 IS=   19 IE=   57 IFin=   18
          NO(<0.9)=   0  NV(>0.1)=   0     18.00e < EF      0.00e >EF  Err=0.0D+00
 Gap=     0.365 Goal=   None    Shift=    0.500
 T=  853. Gap= 0.865 NK=0 IS=   19 IE=   57 IFin=   18
          NO(<0.9)=   0  NV(>0.1)=   0     18.00e < EF      0.00e >EF  Err=0.0D+00
 GapD=    0.365 DampG=1.000 DampE=1.000 DampFc=1.0000 IDamp=-1.
 RMSDP=3.73D-04 MaxDP=3.72D-03 DE=-1.97D-02 OVMax= 2.11D-03

 Cycle   5  Pass 1  IDiag  1:
 E= -177.072757431185     Delta-E=       -0.000144699679 Rises=F Damp=F
 DIIS: error= 4.50D-04 at cycle   5 NSaved=   5.
 NSaved= 5 IEnMin= 5 EnMin= -177.072757431185     IErMin= 5 ErrMin= 4.50D-04
 ErrMax= 4.50D-04  0.00D+00 EMaxC= 1.00D+00 BMatC= 4.87D-05 BMatP= 4.91D-04
 IDIUse=1 WtCom= 1.00D+00 WtEn= 0.00D+00
 Coeff-Com: -0.187D-01 0.187D+00-0.314D+00-0.128D+00 0.127D+01
 Coeff:     -0.187D-01 0.187D+00-0.314D+00-0.128D+00 0.127D+01
 Gap=     0.364 Goal=   None    Shift=    0.500
 Gap=     0.364 Goal=   None    Shift=    0.500
 RMSDP=1.70D-04 MaxDP=1.99D-03 DE=-1.45D-04 OVMax= 1.52D-03

 Cycle   6  Pass 1  IDiag  1:
 E= -177.072781855091     Delta-E=       -0.000024423905 Rises=F Damp=F
 DIIS: error= 2.89D-04 at cycle   6 NSaved=   6.
 NSaved= 6 IEnMin= 6 EnMin= -177.072781855091     IErMin= 6 ErrMin= 2.89D-04
 ErrMax= 2.89D-04  0.00D+00 EMaxC= 1.00D+00 BMatC= 8.45D-06 BMatP= 4.87D-05
 IDIUse=1 WtCom= 1.00D+00 WtEn= 0.00D+00
 Coeff-Com: -0.693D-02-0.278D-01 0.826D-01-0.117D+00-0.836D+00 0.190D+01
 Coeff:     -0.693D-02-0.278D-01 0.826D-01-0.117D+00-0.836D+00 0.190D+01
 Gap=     0.364 Goal=   None    Shift=    0.500
 Gap=     0.364 Goal=   None    Shift=    0.500
 RMSDP=9.20D-05 MaxDP=1.19D-03 DE=-2.44D-05 OVMax= 9.58D-04

 Cycle   7  Pass 1  IDiag  1:
 E= -177.072788246796     Delta-E=       -0.000006391705 Rises=F Damp=F
 DIIS: error= 2.01D-04 at cycle   7 NSaved=   7.
 NSaved= 7 IEnMin= 7 EnMin= -177.072788246796     IErMin= 7 ErrMin= 2.01D-04
 ErrMax= 2.01D-04  0.00D+00 EMaxC= 1.00D+00 BMatC= 2.05D-06 BMatP= 8.45D-06
 IDIUse=1 WtCom= 1.00D+00 WtEn= 0.00D+00
 Coeff-Com:  0.485D-02-0.142D-01 0.877D-02 0.744D-01-0.301D-01-0.126D+01
 Coeff-Com:  0.222D+01
 Coeff:      0.485D-02-0.142D-01 0.877D-02 0.744D-01-0.301D-01-0.126D+01
 Coeff:      0.222D+01
 Gap=     0.364 Goal=   None    Shift=    0.500
 Gap=     0.364 Goal=   None    Shift=    0.500
 RMSDP=4.59D-05 MaxDP=5.78D-04 DE=-6.39D-06 OVMax= 6.19D-04

 Cycle   8  Pass 1  IDiag  1:
 E= -177.072790098446     Delta-E=       -0.000001851650 Rises=F Damp=F
 DIIS: error= 1.25D-04 at cycle   8 NSaved=   8.
 NSaved= 8 IEnMin= 8 EnMin= -177.072790098446     IErMin= 8 ErrMin= 1.25D-04
 ErrMax= 1.25D-04  0.00D+00 EMaxC= 1.00D+00 BMatC= 5.23D-07 BMatP= 2.05D-06
 IDIUse=1 WtCom= 1.00D+00 WtEn= 0.00D+00
 Coeff-Com:  0.111D-02 0.542D-02-0.162D-01 0.432D-01 0.740D-01-0.313D+00
 Coeff-Com: -0.774D+00 0.198D+01
 Coeff:      0.111D-02 0.542D-02-0.162D-01 0.432D-01 0.740D-01-0.313D+00
 Coeff:     -0.774D+00 0.198D+01
 Gap=     0.364 Goal=   None    Shift=    0.500
 Gap=     0.364 Goal=   None    Shift=    0.500
 RMSDP=2.15D-05 MaxDP=2.57D-04 DE=-1.85D-06 OVMax= 3.55D-04

 Cycle   9  Pass 1  IDiag  1:
 E= -177.072790606313     Delta-E=       -0.000000507867 Rises=F Damp=F
 DIIS: error= 8.09D-05 at cycle   9 NSaved=   9.
 NSaved= 9 IEnMin= 9 EnMin= -177.072790606313     IErMin= 9 ErrMin= 8.09D-05
 ErrMax= 8.09D-05  0.00D+00 EMaxC= 1.00D+00 BMatC= 1.66D-07 BMatP= 5.23D-07
 IDIUse=1 WtCom= 1.00D+00 WtEn= 0.00D+00
 Coeff-Com: -0.752D-03 0.887D-02-0.155D-01 0.139D-01 0.491D-01 0.179D+00
 Coeff-Com: -0.118D+01 0.702D+00 0.125D+01
 Coeff:     -0.752D-03 0.887D-02-0.155D-01 0.139D-01 0.491D-01 0.179D+00
 Coeff:     -0.118D+01 0.702D+00 0.125D+01
 Gap=     0.364 Goal=   None    Shift=    0.500
 Gap=     0.364 Goal=   None    Shift=    0.500
 RMSDP=1.04D-05 MaxDP=1.17D-04 DE=-5.08D-07 OVMax= 2.12D-04

 Cycle  10  Pass 1  IDiag  1:
 E= -177.072790757033     Delta-E=       -0.000000150720 Rises=F Damp=F
 DIIS: error= 4.69D-05 at cycle  10 NSaved=  10.
 NSaved=10 IEnMin=10 EnMin= -177.072790757033     IErMin=10 ErrMin= 4.69D-05
 ErrMax= 4.69D-05  0.00D+00 EMaxC= 1.00D+00 BMatC= 5.19D-08 BMatP= 1.66D-07
 IDIUse=1 WtCom= 1.00D+00 WtEn= 0.00D+00
 Coeff-Com: -0.191D-03 0.575D-03-0.502D-03 0.116D-02-0.174D-01 0.604D-01
 Coeff-Com:  0.105D+00-0.387D+00-0.104D+01 0.228D+01
 Coeff:     -0.191D-03 0.575D-03-0.502D-03 0.116D-02-0.174D-01 0.604D-01
 Coeff:      0.105D+00-0.387D+00-0.104D+01 0.228D+01
 Gap=     0.364 Goal=   None    Shift=    0.500
 Gap=     0.364 Goal=   None    Shift=    0.500
 RMSDP=5.25D-06 MaxDP=5.45D-05 DE=-1.51D-07 OVMax= 1.20D-04

 Cycle  11  Pass 1  IDiag  1:
 E= -177.072790800907     Delta-E=       -0.000000043874 Rises=F Damp=F
 DIIS: error= 2.82D-05 at cycle  11 NSaved=  11.
 NSaved=11 IEnMin=11 EnMin= -177.072790800907     IErMin=11 ErrMin= 2.82D-05
 ErrMax= 2.82D-05  0.00D+00 EMaxC= 1.00D+00 BMatC= 1.87D-08 BMatP= 5.19D-08
 IDIUse=1 WtCom= 1.00D+00 WtEn= 0.00D+00
 Coeff-Com:  0.697D-04 0.417D-03-0.115D-02 0.393D-02-0.676D-02-0.239D-01
 Coeff-Com:  0.119D+00 0.162D-01-0.424D+00-0.865D+00 0.218D+01
 Coeff:      0.697D-04 0.417D-03-0.115D-02 0.393D-02-0.676D-02-0.239D-01
 Coeff:      0.119D+00 0.162D-01-0.424D+00-0.865D+00 0.218D+01
 Gap=     0.364 Goal=   None    Shift=    0.500
 Gap=     0.364 Goal=   None    Shift=    0.500
 RMSDP=2.60D-06 MaxDP=2.53D-05 DE=-4.39D-08 OVMax= 6.85D-05

 Cycle  12  Pass 1  IDiag  1:
 E= -177.072790814439     Delta-E=       -0.000000013532 Rises=F Damp=F
 DIIS: error= 1.63D-05 at cycle  12 NSaved=  12.
 NSaved=12 IEnMin=12 EnMin= -177.072790814439     IErMin=12 ErrMin= 1.63D-05
 ErrMax= 1.63D-05  0.00D+00 EMaxC= 1.00D+00 BMatC= 6.37D-09 BMatP= 1.87D-08
 IDIUse=1 WtCom= 1.00D+00 WtEn= 0.00D+00
 Coeff-Com:  0.387D-04-0.729D-05-0.154D-03 0.101D-02 0.379D-04-0.576D-02
 Coeff-Com: -0.111D-01 0.830D-01-0.206D-01 0.383D-01-0.174D+01 0.266D+01
 Coeff:      0.387D-04-0.729D-05-0.154D-03 0.101D-02 0.379D-04-0.576D-02
 Coeff:     -0.111D-01 0.830D-01-0.206D-01 0.383D-01-0.174D+01 0.266D+01
 Gap=     0.364 Goal=   None    Shift=    0.500
 Gap=     0.364 Goal=   None    Shift=    0.500
 RMSDP=1.31D-06 MaxDP=1.35D-05 DE=-1.35D-08 OVMax= 3.83D-05

 Cycle  13  Pass 1  IDiag  1:
 E= -177.072790818537     Delta-E=       -0.000000004097 Rises=F Damp=F
 DIIS: error= 9.39D-06 at cycle  13 NSaved=  13.
 NSaved=13 IEnMin=13 EnMin= -177.072790818537     IErMin=13 ErrMin= 9.39D-06
 ErrMax= 9.39D-06  0.00D+00 EMaxC= 1.00D+00 BMatC= 2.16D-09 BMatP= 6.37D-09
 IDIUse=1 WtCom= 1.00D+00 WtEn= 0.00D+00
 Coeff-Com: -0.224D-04-0.259D-04 0.136D-03-0.451D-03-0.876D-03 0.117D-01
 Coeff-Com: -0.196D-01-0.127D-01-0.231D-01 0.397D+00-0.292D+00-0.211D+01
 Coeff-Com:  0.305D+01
 Coeff:     -0.224D-04-0.259D-04 0.136D-03-0.451D-03-0.876D-03 0.117D-01
 Coeff:     -0.196D-01-0.127D-01-0.231D-01 0.397D+00-0.292D+00-0.211D+01
 Coeff:      0.305D+01
 Gap=     0.364 Goal=   None    Shift=    0.500
 Gap=     0.364 Goal=   None    Shift=    0.500
 RMSDP=6.67D-07 MaxDP=7.34D-06 DE=-4.10D-09 OVMax= 2.13D-05

 SCF Done:  E(ULC-wHPBE) =  -177.072790819     A.U. after   13 cycles
            NFock= 13  Conv=0.67D-06     -V/T= 1.9533
 <Sx>= 0.0000 <Sy>= 0.0000 <Sz>= 0.0000 <S**2>= 0.0000 S= 0.0000
 <L.S>= 0.000000000000E+00
 KE= 1.857540204926D+02 PE=-7.468891075836D+02 EE= 2.280495537865D+02
 Annihilation of the first spin contaminant:
 S**2 before annihilation    -0.0000,   after    -0.0000
 Leave Link  502 at Thu Mar  5 12:51:40 2020, MaxMem=  6710886400 cpu:              20.6 elap:               1.3
 (Enter /opt/ohpc/pub/libs/gaussian/g16-A.03/sandybridge/g16/l508.exe)
 QCSCF skips out because SCF is already converged.
 Leave Link  508 at Thu Mar  5 12:51:40 2020, MaxMem=  6710886400 cpu:               0.3 elap:               0.0
 (Enter /opt/ohpc/pub/libs/gaussian/g16-A.03/sandybridge/g16/l601.exe)
 Copying SCF densities to generalized density rwf, IOpCl= 1 IROHF=0.

 **********************************************************************

            Population analysis using the SCF density.

 **********************************************************************

 Orbital symmetries:
 Alpha Orbitals:
       Occupied  (B2) (A1) (A1) (B2) (A1) (A1) (A1) (B2) (A1) (B2)
                 (A1) (B2) (B1) (A1) (A1) (B2) (A2) (B1)
       Virtual   (A2) (B2) (A1) (A1) (B1) (B2) (A1) (B2) (A1) (A1)
                 (B2) (B2) (A1) (B2) (B1) (A2) (A1) (B1) (A1) (A2)
                 (B2) (A1) (B1) (B2) (A1) (B2) (B2) (A1) (A1) (A1)
                 (B2) (A1) (A1) (B2) (B2) (A1) (A1) (A1) (B2)
 Beta  Orbitals:
       Occupied  (B2) (A1) (A1) (B2) (A1) (A1) (A1) (B2) (A1) (B2)
                 (A1) (B2) (B1) (A1) (A1) (B2) (A2) (B1)
       Virtual   (A2) (B2) (A1) (A1) (B1) (B2) (A1) (B2) (A1) (A1)
                 (B2) (B2) (A1) (B2) (B1) (A2) (A1) (B1) (A1) (A2)
                 (B2) (A1) (B1) (B2) (A1) (B2) (B2) (A1) (A1) (A1)
                 (B2) (A1) (A1) (B2) (B2) (A1) (A1) (A1) (B2)
 The electronic state is 1-A1.
 Alpha  occ. eigenvalues --   -8.59939  -8.59907  -8.54829  -8.54806  -8.52299
 Alpha  occ. eigenvalues --   -0.90218  -0.76525  -0.72151  -0.59454  -0.57337
 Alpha  occ. eigenvalues --   -0.56847  -0.44149  -0.43750  -0.43104  -0.39798
 Alpha  occ. eigenvalues --   -0.38568  -0.28366  -0.24933
 Alpha virt. eigenvalues --    0.11514   0.13632   0.14254   0.16160   0.18173
 Alpha virt. eigenvalues --    0.21647   0.23062   0.25656   0.26698   0.38381
 Alpha virt. eigenvalues --    0.41510   0.51994   0.53324   0.62934   0.64316
 Alpha virt. eigenvalues --    0.70364   0.71219   0.72088   0.75240   0.77881
 Alpha virt. eigenvalues --    0.79142   0.80814   0.80916   0.90568   0.97093
 Alpha virt. eigenvalues --    0.97696   1.03283   1.03703   1.04948   1.11110
 Alpha virt. eigenvalues --    1.11259   1.15597   1.18604   1.22460   1.30773
 Alpha virt. eigenvalues --    1.31452   1.39658   1.59979   1.60613
  Beta  occ. eigenvalues --   -8.59939  -8.59907  -8.54829  -8.54806  -8.52299
  Beta  occ. eigenvalues --   -0.90218  -0.76525  -0.72151  -0.59454  -0.57337
  Beta  occ. eigenvalues --   -0.56847  -0.44149  -0.43750  -0.43104  -0.39798
  Beta  occ. eigenvalues --   -0.38568  -0.28366  -0.24933
  Beta virt. eigenvalues --    0.11514   0.13632   0.14254   0.16160   0.18173
  Beta virt. eigenvalues --    0.21647   0.23062   0.25656   0.26698   0.38381
  Beta virt. eigenvalues --    0.41510   0.51994   0.53324   0.62934   0.64316
  Beta virt. eigenvalues --    0.70364   0.71219   0.72088   0.75240   0.77881
  Beta virt. eigenvalues --    0.79142   0.80814   0.80916   0.90568   0.97093
  Beta virt. eigenvalues --    0.97696   1.03283   1.03703   1.04948   1.11110
  Beta virt. eigenvalues --    1.11259   1.15597   1.18604   1.22460   1.30773
  Beta virt. eigenvalues --    1.31452   1.39658   1.59979   1.60613
          Condensed to atoms (all electrons):
               1          2          3          4          5          6
     1  C    5.311415   0.495385  -0.064453  -0.188918   0.338555   0.173596
     2  C    0.495385   4.785047   0.624944  -0.012809  -0.188918  -0.019452
     3  C   -0.064453   0.624944   4.541692   0.624944  -0.064453   0.005409
     4  C   -0.188918  -0.012809   0.624944   4.785047   0.495385  -0.019452
     5  C    0.338555  -0.188918  -0.064453   0.495385   5.311415   0.173596
     6  H    0.173596  -0.019452   0.005409  -0.019452   0.173596   0.409020
     7  H    0.345566   0.009234   0.001872   0.005962  -0.040591   0.001390
     8  H   -0.037683   0.356988  -0.010743   0.008091   0.003992   0.001890
     9  H    0.011545  -0.045398   0.377340  -0.045398   0.011545  -0.000348
    10  H    0.003992   0.008091  -0.010743   0.356988  -0.037683   0.001890
    11  H   -0.040591   0.005962   0.001872   0.009234   0.345566   0.001390
               7          8          9         10         11
     1  C    0.345566  -0.037683   0.011545   0.003992  -0.040591
     2  C    0.009234   0.356988  -0.045398   0.008091   0.005962
     3  C    0.001872  -0.010743   0.377340  -0.010743   0.001872
     4  C    0.005962   0.008091  -0.045398   0.356988   0.009234
     5  C   -0.040591   0.003992   0.011545  -0.037683   0.345566
     6  H    0.001390   0.001890  -0.000348   0.001890   0.001390
     7  H    0.540728  -0.004712  -0.000150  -0.000085   0.001279
     8  H   -0.004712   0.605297  -0.006833  -0.000301  -0.000085
     9  H   -0.000150  -0.006833   0.660312  -0.006833  -0.000150
    10  H   -0.000085  -0.000301  -0.006833   0.605297  -0.004712
    11  H    0.001279  -0.000085  -0.000150  -0.004712   0.540728
          Atomic-Atomic Spin Densities.
               1          2          3          4          5          6
     1  C   -0.000000   0.000000  -0.000000   0.000000   0.000000   0.000000
     2  C    0.000000   0.000000  -0.000000   0.000000   0.000000  -0.000000
     3  C   -0.000000  -0.000000  -0.000000  -0.000000  -0.000000   0.000000
     4  C    0.000000   0.000000  -0.000000   0.000000   0.000000  -0.000000
     5  C    0.000000   0.000000  -0.000000   0.000000  -0.000000   0.000000
     6  H    0.000000  -0.000000   0.000000  -0.000000   0.000000   0.000000
     7  H    0.000000  -0.000000  -0.000000   0.000000  -0.000000  -0.000000
     8  H    0.000000   0.000000   0.000000  -0.000000   0.000000  -0.000000
     9  H   -0.000000  -0.000000  -0.000000  -0.000000  -0.000000   0.000000
    10  H    0.000000  -0.000000   0.000000   0.000000   0.000000  -0.000000
    11  H   -0.000000   0.000000  -0.000000  -0.000000   0.000000  -0.000000
               7          8          9         10         11
     1  C    0.000000   0.000000  -0.000000   0.000000  -0.000000
     2  C   -0.000000   0.000000  -0.000000  -0.000000   0.000000
     3  C   -0.000000   0.000000  -0.000000   0.000000  -0.000000
     4  C    0.000000  -0.000000  -0.000000   0.000000  -0.000000
     5  C   -0.000000   0.000000  -0.000000   0.000000   0.000000
     6  H   -0.000000  -0.000000   0.000000  -0.000000  -0.000000
     7  H    0.000000   0.000000  -0.000000   0.000000  -0.000000
     8  H    0.000000  -0.000000   0.000000   0.000000   0.000000
     9  H   -0.000000   0.000000  -0.000000   0.000000  -0.000000
    10  H    0.000000   0.000000   0.000000  -0.000000   0.000000
    11  H   -0.000000   0.000000  -0.000000   0.000000   0.000000
 Mulliken charges and spin densities:
               1          2
     1  C   -0.348410  -0.000000
     2  C   -0.019073   0.000000
     3  C   -0.027680  -0.000000
     4  C   -0.019073   0.000000
     5  C   -0.348410  -0.000000
     6  H    0.271071   0.000000
     7  H    0.139507   0.000000
     8  H    0.084098   0.000000
     9  H    0.044365  -0.000000
    10  H    0.084098   0.000000
    11  H    0.139507   0.000000
 Sum of Mulliken charges =   0.00000  -0.00000
 Mulliken charges and spin densities with hydrogens summed into heavy atoms:
               1          2
     1  C    0.062168  -0.000000
     2  C    0.065025   0.000000
     3  C    0.016685  -0.000000
     4  C    0.065025   0.000000
     5  C   -0.208903  -0.000000
 Electronic spatial extent (au):  <R**2>=            355.1818
 Charge=             -0.0000 electrons
 Dipole moment (field-independent basis, Debye):
    X=             -0.0000    Y=             -0.0000    Z=             -2.2372  Tot=              2.2372
 Quadrupole moment (field-independent basis, Debye-Ang):
   XX=            -41.7656   YY=            -35.7238   ZZ=            -33.3129
   XY=              0.0000   XZ=              0.0000   YZ=              0.0000
 Traceless Quadrupole moment (field-independent basis, Debye-Ang):
   XX=             -4.8315   YY=              1.2103   ZZ=              3.6212
   XY=              0.0000   XZ=              0.0000   YZ=              0.0000
 Octapole moment (field-independent basis, Debye-Ang**2):
  XXX=              0.0000  YYY=              0.0000  ZZZ=            -10.4831  XYY=              0.0000
  XXY=              0.0000  XXZ=              0.7921  XZZ=              0.0000  YZZ=             -0.0000
  YYZ=             -1.5207  XYZ=             -0.0000
 Hexadecapole moment (field-independent basis, Debye-Ang**3):
 XXXX=            -50.9728 YYYY=           -266.9032 ZZZZ=           -249.6521 XXXY=             -0.0000
 XXXZ=             -0.0000 YYYX=             -0.0000 YYYZ=              0.0000 ZZZX=             -0.0000
 ZZZY=              0.0000 XXYY=            -59.7390 XXZZ=            -58.1003 YYZZ=            -85.5696
 XXYZ=              0.0000 YYXZ=             -0.0000 ZZXY=             -0.0000
 N-N= 1.560127424860D+02 E-N=-7.468891085376D+02  KE= 1.857540204926D+02
 Symmetry A1   KE= 1.074155849234D+02
 Symmetry A2   KE= 2.025681013552D+00
 Symmetry B1   KE= 3.480064567333D+00
 Symmetry B2   KE= 7.283268998833D+01
 Symmetry A1   SP=-6.914201468622D-16
 Symmetry A2   SP= 1.458829258563D-15
 Symmetry B1   SP=-2.407648698759D-15
 Symmetry B2   SP=-4.553939451240D-16
                          Isotropic Fermi Contact Couplings
        Atom                 a.u.       MegaHertz       Gauss      10(-4) cm-1
     1  C(13)             -0.00000      -0.00000      -0.00000      -0.00000
     2  C(13)              0.00000       0.00000       0.00000       0.00000
     3  C(13)              0.00000       0.00000       0.00000       0.00000
     4  C(13)              0.00000       0.00000       0.00000       0.00000
     5  C(13)             -0.00000      -0.00000      -0.00000      -0.00000
     6  H(1)              -0.00000      -0.00000      -0.00000      -0.00000
     7  H(1)               0.00000       0.00000       0.00000       0.00000
     8  H(1)               0.00000       0.00000       0.00000       0.00000
     9  H(1)               0.00000       0.00000       0.00000       0.00000
    10  H(1)               0.00000       0.00000       0.00000       0.00000
    11  H(1)               0.00000       0.00000       0.00000       0.00000
 --------------------------------------------------------
       Center         ----  Spin Dipole Couplings  ----
                      3XX-RR        3YY-RR        3ZZ-RR
 --------------------------------------------------------
     1   Atom        0.000000      0.000000      0.000000
     2   Atom        0.000000      0.000000      0.000000
     3   Atom        0.000000      0.000000      0.000000
     4   Atom        0.000000      0.000000      0.000000
     5   Atom        0.000000      0.000000      0.000000
     6   Atom        0.000000      0.000000      0.000000
     7   Atom        0.000000      0.000000      0.000000
     8   Atom        0.000000      0.000000      0.000000
     9   Atom        0.000000      0.000000      0.000000
    10   Atom        0.000000      0.000000      0.000000
    11   Atom        0.000000      0.000000      0.000000
 --------------------------------------------------------
                        XY            XZ            YZ
 --------------------------------------------------------
     1   Atom        0.000000      0.000000      0.000000
     2   Atom        0.000000      0.000000      0.000000
     3   Atom        0.000000      0.000000      0.000000
     4   Atom        0.000000      0.000000      0.000000
     5   Atom        0.000000      0.000000      0.000000
     6   Atom        0.000000      0.000000      0.000000
     7   Atom        0.000000      0.000000      0.000000
     8   Atom        0.000000      0.000000      0.000000
     9   Atom        0.000000      0.000000      0.000000
    10   Atom        0.000000      0.000000      0.000000
    11   Atom        0.000000      0.000000      0.000000
 --------------------------------------------------------


 ---------------------------------------------------------------------------------
              Anisotropic Spin Dipole Couplings in Principal Axis System
 ---------------------------------------------------------------------------------

       Atom             a.u.   MegaHertz   Gauss  10(-4) cm-1        Axes

              Baa     0.0000     0.000     0.000     0.000  1.0000  0.0000  0.0000
     1 C(13)  Bbb     0.0000     0.000     0.000     0.000 -0.0000  1.0000  0.0000
              Bcc     0.0000     0.000     0.000     0.000  0.0000  0.0000  1.0000
 
              Baa     0.0000     0.000     0.000     0.000  1.0000  0.0000  0.0000
     2 C(13)  Bbb     0.0000     0.000     0.000     0.000 -0.0000  1.0000  0.0000
              Bcc     0.0000     0.000     0.000     0.000  0.0000  0.0000  1.0000
 
              Baa     0.0000     0.000     0.000     0.000  1.0000  0.0000  0.0000
     3 C(13)  Bbb     0.0000     0.000     0.000     0.000 -0.0000  1.0000  0.0000
              Bcc     0.0000     0.000     0.000     0.000  0.0000  0.0000  1.0000
 
              Baa     0.0000     0.000     0.000     0.000  1.0000  0.0000  0.0000
     4 C(13)  Bbb     0.0000     0.000     0.000     0.000 -0.0000  1.0000  0.0000
              Bcc     0.0000     0.000     0.000     0.000  0.0000  0.0000  1.0000
 
              Baa     0.0000     0.000     0.000     0.000  1.0000  0.0000  0.0000
     5 C(13)  Bbb     0.0000     0.000     0.000     0.000 -0.0000  1.0000  0.0000
              Bcc     0.0000     0.000     0.000     0.000  0.0000  0.0000  1.0000
 
              Baa     0.0000     0.000     0.000     0.000  1.0000  0.0000  0.0000
     6 H(1)   Bbb     0.0000     0.000     0.000     0.000 -0.0000  1.0000  0.0000
              Bcc     0.0000     0.000     0.000     0.000  0.0000  0.0000  1.0000
 
              Baa     0.0000     0.000     0.000     0.000  1.0000  0.0000  0.0000
     7 H(1)   Bbb     0.0000     0.000     0.000     0.000 -0.0000  1.0000  0.0000
              Bcc     0.0000     0.000     0.000     0.000  0.0000  0.0000  1.0000
 
              Baa     0.0000     0.000     0.000     0.000  1.0000  0.0000  0.0000
     8 H(1)   Bbb     0.0000     0.000     0.000     0.000 -0.0000  1.0000  0.0000
              Bcc     0.0000     0.000     0.000     0.000  0.0000  0.0000  1.0000
 
              Baa     0.0000     0.000     0.000     0.000  1.0000  0.0000  0.0000
     9 H(1)   Bbb     0.0000     0.000     0.000     0.000 -0.0000  1.0000  0.0000
              Bcc     0.0000     0.000     0.000     0.000  0.0000  0.0000  1.0000
 
              Baa     0.0000     0.000     0.000     0.000  1.0000  0.0000  0.0000
    10 H(1)   Bbb     0.0000     0.000     0.000     0.000 -0.0000  1.0000  0.0000
              Bcc     0.0000     0.000     0.000     0.000  0.0000  0.0000  1.0000
 
              Baa     0.0000     0.000     0.000     0.000  1.0000  0.0000  0.0000
    11 H(1)   Bbb     0.0000     0.000     0.000     0.000 -0.0000  1.0000  0.0000
              Bcc     0.0000     0.000     0.000     0.000  0.0000  0.0000  1.0000
 

 ---------------------------------------------------------------------------------

 No NMR shielding tensors so no spin-rotation constants.
 Leave Link  601 at Thu Mar  5 12:51:40 2020, MaxMem=  6710886400 cpu:               2.0 elap:               0.1
 (Enter /opt/ohpc/pub/libs/gaussian/g16-A.03/sandybridge/g16/l9999.exe)

 Test job not archived.
 1\1\GINC-CNODE212\SP\ULC-wHPBE\6-31G\C5H6\SMGO234\05-Mar-2020\0\\#P uL
 C-wHPBE/6-31G iop(3/130=0226200000, 3/131=0226200000, 3/119=0773800000
 , 3/120=0773800000) scf=(conver=6,fermi,ndamp=35,noincfock,novaracc,vs
 hift=500,xqc)\\H6 C5\\0,1\C,0,0.,0.878804,-0.931542\C,0,0.,1.128157,0.
 423457\C,0,0.,0.,1.240879\C,0,0.,-1.128157,0.423457\C,0,0.,-0.878804,-
 0.931542\H,0,0.,0.,-1.732269\H,0,0.,1.6083,-1.734053\H,0,0.,2.156626,0
 .76567\H,0,0.,0.,2.320778\H,0,0.,-2.156626,0.76567\H,0,0.,-1.6083,-1.7
 34053\\Version=EM64L-G16RevA.03\State=1-A1\HF=-177.0727908\S2=0.\S2-1=
 0.\S2A=0.\RMSD=6.668e-07\Dipole=0.,0.,-0.8801663\Quadrupole=-3.5920722
 ,0.8998112,2.6922609,0.,0.,0.\PG=C02V [C2(H1C1H1),SGV(C4H4)]\\@


 IT IS WELL TO REMEMBER THAT MAN IS A PART OF NATURE AND THAT HIS WORKS,
 WHATEVER THEY MAY BE, ARE NO MORE "UNNATURAL" THAN 
 THE FLIGHT OF AN EAGLE OR THE PASSAGE OF A TORNADO.

                                    -- CHARLES MCCARRY IN "THE GREAT SOUTHWEST"
 Job cpu time:       0 days  0 hours  0 minutes 50.1 seconds.
 Elapsed time:       0 days  0 hours  0 minutes  3.4 seconds.
 File lengths (MBytes):  RWF=    272 Int=      0 D2E=      0 Chk=     32 Scr=     32
 Normal termination of Gaussian 16 at Thu Mar  5 12:51:40 2020.
