 Entering Gaussian System, Link 0=g16
 Input=a1b_tune_c12.gjf
 Output=a1b_tune_c12.log
 Initial command:
 /opt/ohpc/pub/libs/gaussian/g16-A.03/sandybridge/g16/l1.exe "/scratch/smgo234/Ocelot/test/a1b/tuning_a1b_acycle1/Gau-82584.inp" -scrdir="/scratch/smgo234/Ocelot/test/a1b/tuning_a1b_acycle1/"
 Entering Link 1 = /opt/ohpc/pub/libs/gaussian/g16-A.03/sandybridge/g16/l1.exe PID=     82585.
  
 Copyright (c) 1988,1990,1992,1993,1995,1998,2003,2009,2016,
            Gaussian, Inc.  All Rights Reserved.
  
 This is part of the Gaussian(R) 16 program.  It is based on
 the Gaussian(R) 09 system (copyright 2009, Gaussian, Inc.),
 the Gaussian(R) 03 system (copyright 2003, Gaussian, Inc.),
 the Gaussian(R) 98 system (copyright 1998, Gaussian, Inc.),
 the Gaussian(R) 94 system (copyright 1995, Gaussian, Inc.),
 the Gaussian 92(TM) system (copyright 1992, Gaussian, Inc.),
 the Gaussian 90(TM) system (copyright 1990, Gaussian, Inc.),
 the Gaussian 88(TM) system (copyright 1988, Gaussian, Inc.),
 the Gaussian 86(TM) system (copyright 1986, Carnegie Mellon
 University), and the Gaussian 82(TM) system (copyright 1983,
 Carnegie Mellon University). Gaussian is a federally registered
 trademark of Gaussian, Inc.
  
 This software contains proprietary and confidential information,
 including trade secrets, belonging to Gaussian, Inc.
  
 This software is provided under written license and may be
 used, copied, transmitted, or stored only in accord with that
 written license.
  
 The following legend is applicable only to US Government
 contracts under FAR:
  
                    RESTRICTED RIGHTS LEGEND
  
 Use, reproduction and disclosure by the US Government is
 subject to restrictions as set forth in subparagraphs (a)
 and (c) of the Commercial Computer Software - Restricted
 Rights clause in FAR 52.227-19.
  
 Gaussian, Inc.
 340 Quinnipiac St., Bldg. 40, Wallingford CT 06492
  
  
 ---------------------------------------------------------------
 Warning -- This program may not be used in any manner that
 competes with the business of Gaussian, Inc. or will provide
 assistance to any competitor of Gaussian, Inc.  The licensee
 of this program is prohibited from giving any competitor of
 Gaussian, Inc. access to this program.  By using this program,
 the user acknowledges that Gaussian, Inc. is engaged in the
 business of creating and licensing software in the field of
 computational chemistry and represents and warrants to the
 licensee that it is not a competitor of Gaussian, Inc. and that
 it will not use this program in any manner prohibited above.
 ---------------------------------------------------------------
  

 Cite this work as:
 Gaussian 16, Revision A.03,
 M. J. Frisch, G. W. Trucks, H. B. Schlegel, G. E. Scuseria, 
 M. A. Robb, J. R. Cheeseman, G. Scalmani, V. Barone, 
 G. A. Petersson, H. Nakatsuji, X. Li, M. Caricato, A. V. Marenich, 
 J. Bloino, B. G. Janesko, R. Gomperts, B. Mennucci, H. P. Hratchian, 
 J. V. Ortiz, A. F. Izmaylov, J. L. Sonnenberg, D. Williams-Young, 
 F. Ding, F. Lipparini, F. Egidi, J. Goings, B. Peng, A. Petrone, 
 T. Henderson, D. Ranasinghe, V. G. Zakrzewski, J. Gao, N. Rega, 
 G. Zheng, W. Liang, M. Hada, M. Ehara, K. Toyota, R. Fukuda, 
 J. Hasegawa, M. Ishida, T. Nakajima, Y. Honda, O. Kitao, H. Nakai, 
 T. Vreven, K. Throssell, J. A. Montgomery, Jr., J. E. Peralta, 
 F. Ogliaro, M. J. Bearpark, J. J. Heyd, E. N. Brothers, K. N. Kudin, 
 V. N. Staroverov, T. A. Keith, R. Kobayashi, J. Normand, 
 K. Raghavachari, A. P. Rendell, J. C. Burant, S. S. Iyengar, 
 J. Tomasi, M. Cossi, J. M. Millam, M. Klene, C. Adamo, R. Cammi, 
 J. W. Ochterski, R. L. Martin, K. Morokuma, O. Farkas, 
 J. B. Foresman, and D. J. Fox, Gaussian, Inc., Wallingford CT, 2016.
 
 ******************************************
 Gaussian 16:  EM64L-G16RevA.03 25-Dec-2016
                 5-Mar-2020 
 ******************************************
 %mem=50GB
 %nproc=16
 Will use up to   16 processors via shared memory.
 ----------------------------------------------------------------------
 #P uLC-wHPBE/6-31G iop(3/130=0243900000, 3/131=0243900000, 3/119=07561
 00000, 3/120=0756100000) scf=(conver=6,fermi,ndamp=35,noincfock,novara
 cc,vshift=500,xqc)
 ----------------------------------------------------------------------
 1/38=1,172=1/1;
 2/12=2,17=6,18=5,40=1/2;
 3/5=1,6=6,11=2,25=1,30=1,74=-71,116=2,119=756100000,120=756100000,130=243900000,131=243900000/1,2,3;
 4//1;
 5/5=100002,6=6,8=3,10=500,13=1,18=-1,22=13,38=1,93=35/2,8;
 6/7=2,8=2,9=2,10=2,28=1/1;
 99/5=1,9=1/99;
 Leave Link    1 at Thu Mar  5 12:53:26 2020, MaxMem=  6710886400 cpu:              14.5 elap:               1.0
 (Enter /opt/ohpc/pub/libs/gaussian/g16-A.03/sandybridge/g16/l101.exe)
 -----
 H6 C5
 -----
 Symbolic Z-matrix:
 Charge =  1 Multiplicity = 2
 C                     0.        0.8788   -0.93154 
 C                     0.        1.12816   0.42346 
 C                     0.        0.        1.24088 
 C                     0.       -1.12816   0.42346 
 C                     0.       -0.8788   -0.93154 
 H                     0.        0.       -1.73227 
 H                     0.        1.6083   -1.73405 
 H                     0.        2.15663   0.76567 
 H                     0.        0.        2.32078 
 H                     0.       -2.15663   0.76567 
 H                     0.       -1.6083   -1.73405 
 
 ITRead=  0  0  0  0  0  0  0  0  0  0  0
 MicOpt= -1 -1 -1 -1 -1 -1 -1 -1 -1 -1 -1
 NAtoms=     11 NQM=       11 NQMF=       0 NMMI=      0 NMMIF=      0
                NMic=       0 NMicF=      0.
                    Isotopes and Nuclear Properties:
 (Nuclear quadrupole moments (NQMom) in fm**2, nuclear magnetic moments (NMagM)
  in nuclear magnetons)

  Atom         1           2           3           4           5           6           7           8           9          10
 IAtWgt=          12          12          12          12          12           1           1           1           1           1
 AtmWgt=  12.0000000  12.0000000  12.0000000  12.0000000  12.0000000   1.0078250   1.0078250   1.0078250   1.0078250   1.0078250
 NucSpn=           0           0           0           0           0           1           1           1           1           1
 AtZEff=  -0.0000000  -0.0000000  -0.0000000  -0.0000000  -0.0000000  -0.0000000  -0.0000000  -0.0000000  -0.0000000  -0.0000000
 NQMom=    0.0000000   0.0000000   0.0000000   0.0000000   0.0000000   0.0000000   0.0000000   0.0000000   0.0000000   0.0000000
 NMagM=    0.0000000   0.0000000   0.0000000   0.0000000   0.0000000   2.7928460   2.7928460   2.7928460   2.7928460   2.7928460
 AtZNuc=   6.0000000   6.0000000   6.0000000   6.0000000   6.0000000   1.0000000   1.0000000   1.0000000   1.0000000   1.0000000

  Atom        11
 IAtWgt=           1
 AtmWgt=   1.0078250
 NucSpn=           1
 AtZEff=  -0.0000000
 NQMom=    0.0000000
 NMagM=    2.7928460
 AtZNuc=   1.0000000
 Leave Link  101 at Thu Mar  5 12:53:27 2020, MaxMem=  6710886400 cpu:               2.7 elap:               0.2
 (Enter /opt/ohpc/pub/libs/gaussian/g16-A.03/sandybridge/g16/l202.exe)
                          Input orientation:                          
 ---------------------------------------------------------------------
 Center     Atomic      Atomic             Coordinates (Angstroms)
 Number     Number       Type             X           Y           Z
 ---------------------------------------------------------------------
      1          6           0        0.000000    0.878804   -0.931542
      2          6           0        0.000000    1.128157    0.423457
      3          6           0        0.000000    0.000000    1.240879
      4          6           0        0.000000   -1.128157    0.423457
      5          6           0        0.000000   -0.878804   -0.931542
      6          1           0        0.000000    0.000000   -1.732269
      7          1           0        0.000000    1.608300   -1.734053
      8          1           0        0.000000    2.156626    0.765670
      9          1           0        0.000000    0.000000    2.320778
     10          1           0        0.000000   -2.156626    0.765670
     11          1           0        0.000000   -1.608300   -1.734053
 ---------------------------------------------------------------------
                    Distance matrix (angstroms):
                    1          2          3          4          5
     1  C    0.000000
     2  C    1.377752   0.000000
     3  C    2.343440   1.393168   0.000000
     4  C    2.421552   2.256314   1.393168   0.000000
     5  C    1.757608   2.421552   2.343440   1.377752   0.000000
     6  H    1.188890   2.433083   2.973148   2.433083   1.188890
     7  H    1.084522   2.210291   3.381841   3.484687   2.613371
     8  H    2.124466   1.083909   2.208361   3.302561   3.477695
     9  H    3.368959   2.207389   1.079899   2.207389   3.368959
    10  H    3.477695   3.302561   2.208361   1.083909   2.124466
    11  H    2.613371   3.484687   3.381841   2.210291   1.084522
                    6          7          8          9         10
     6  H    0.000000
     7  H    1.608301   0.000000
     8  H    3.300111   2.559155   0.000000
     9  H    4.053047   4.362142   2.658834   0.000000
    10  H    3.300111   4.519213   4.313252   2.658834   0.000000
    11  H    1.608301   3.216600   4.519213   4.362142   2.559155
                   11
    11  H    0.000000
 Stoichiometry    C5H6(1+,2)
 Framework group  C2V[C2(HCH),SGV(C4H4)]
 Deg. of freedom    10
 Full point group                 C2V     NOp   4
 Largest Abelian subgroup         C2V     NOp   4
 Largest concise Abelian subgroup C2      NOp   2
                         Standard orientation:                         
 ---------------------------------------------------------------------
 Center     Atomic      Atomic             Coordinates (Angstroms)
 Number     Number       Type             X           Y           Z
 ---------------------------------------------------------------------
      1          6           0        0.000000    0.878804   -0.931542
      2          6           0        0.000000    1.128157    0.423457
      3          6           0        0.000000   -0.000000    1.240879
      4          6           0       -0.000000   -1.128157    0.423457
      5          6           0       -0.000000   -0.878804   -0.931542
      6          1           0       -0.000000    0.000000   -1.732269
      7          1           0        0.000000    1.608300   -1.734053
      8          1           0        0.000000    2.156626    0.765670
      9          1           0        0.000000   -0.000000    2.320778
     10          1           0       -0.000000   -2.156626    0.765670
     11          1           0       -0.000000   -1.608300   -1.734053
 ---------------------------------------------------------------------
 Rotational constants (GHZ):           8.5259551           7.9375455           4.1106177
 Leave Link  202 at Thu Mar  5 12:53:27 2020, MaxMem=  6710886400 cpu:               0.6 elap:               0.1
 (Enter /opt/ohpc/pub/libs/gaussian/g16-A.03/sandybridge/g16/l301.exe)
 Standard basis: 6-31G (6D, 7F)
 Ernie: Thresh=  0.10000D-02 Tol=  0.10000D-05 Strict=F.
 There are    27 symmetry adapted cartesian basis functions of A1  symmetry.
 There are     4 symmetry adapted cartesian basis functions of A2  symmetry.
 There are     6 symmetry adapted cartesian basis functions of B1  symmetry.
 There are    20 symmetry adapted cartesian basis functions of B2  symmetry.
 There are    27 symmetry adapted basis functions of A1  symmetry.
 There are     4 symmetry adapted basis functions of A2  symmetry.
 There are     6 symmetry adapted basis functions of B1  symmetry.
 There are    20 symmetry adapted basis functions of B2  symmetry.
    57 basis functions,   134 primitive gaussians,    57 cartesian basis functions
    18 alpha electrons       17 beta electrons
       nuclear repulsion energy       156.0127424860 Hartrees.
 IExCor=33909 DFT=T Ex+Corr=LC-wHPBE ExCW=0 ScaHFX=  1.000000
 ScaDFX=  1.000000  1.000000  1.000000  1.000000 ScalE2=  1.000000  1.000000
 IRadAn=      5 IRanWt=     -1 IRanGd=            0 ICorTp=0 IEmpDi=  4
 HFx  wShort=  0.000000 wLong=  0.400000 cFull=  0.000000 cShort=  0.000000 cLong=  0.756100
 DFx  wShort=  0.000000 wLong=  0.400000 cFull=  0.000000 cShort=  1.000000 cLong=  0.756100
 NAtoms=   11 NActive=   11 NUniq=    7 SFac= 2.47D+00 NAtFMM=   60 NAOKFM=F Big=F
 Integral buffers will be    131072 words long.
 Raffenetti 2 integral format.
 Two-electron integral symmetry is turned on.
 Leave Link  301 at Thu Mar  5 12:53:27 2020, MaxMem=  6710886400 cpu:               0.9 elap:               0.1
 (Enter /opt/ohpc/pub/libs/gaussian/g16-A.03/sandybridge/g16/l302.exe)
 NPDir=0 NMtPBC=     1 NCelOv=     1 NCel=       1 NClECP=     1 NCelD=      1
         NCelK=      1 NCelE2=     1 NClLst=     1 CellRange=     0.0.
 One-electron integrals computed using PRISM.
 One-electron integral symmetry used in STVInt
 NBasis=    57 RedAO= T EigKep=  1.84D-03  NBF=    27     4     6    20
 NBsUse=    57 1.00D-06 EigRej= -1.00D+00 NBFU=    27     4     6    20
 Precomputing XC quadrature grid using
 IXCGrd= 4 IRadAn=           5 IRanWt=          -1 IRanGd=           0 AccXCQ= 0.00D+00.
 Generated NRdTot=       0 NPtTot=           0 NUsed=           0 NTot=          32
 NSgBfM=    57    57    57    57    57 MxSgAt=    11 MxSgA2=    11.
 Leave Link  302 at Thu Mar  5 12:53:27 2020, MaxMem=  6710886400 cpu:               2.1 elap:               0.1
 (Enter /opt/ohpc/pub/libs/gaussian/g16-A.03/sandybridge/g16/l303.exe)
 DipDrv:  MaxL=1.
 Leave Link  303 at Thu Mar  5 12:53:27 2020, MaxMem=  6710886400 cpu:               0.6 elap:               0.1
 (Enter /opt/ohpc/pub/libs/gaussian/g16-A.03/sandybridge/g16/l401.exe)
 ExpMin= 1.61D-01 ExpMax= 3.05D+03 ExpMxC= 4.57D+02 IAcc=3 IRadAn=         5 AccDes= 0.00D+00
 Harris functional with IExCor=33909 and IRadAn=       5 diagonalized for initial guess.
 HarFok:  IExCor=33909 AccDes= 0.00D+00 IRadAn=         5 IDoV= 1 UseB2=F ITyADJ=14
 ICtDFT=  3500011 ScaDFX=  1.000000  1.000000  1.000000  1.000000
 FoFCou: FMM=F IPFlag=           0 FMFlag=      100000 FMFlg1=           0
         NFxFlg=           0 DoJE=T BraDBF=F KetDBF=T FulRan=T
         wScrn=  0.000000 ICntrl=       500 IOpCl=  0 I1Cent=   200000004 NGrid=           0
         NMat0=    1 NMatS0=      1 NMatT0=    0 NMatD0=    1 NMtDS0=    0 NMtDT0=    0
 Petite list used in FoFCou.
 Harris En= -191.822229764102    
 JPrj=0 DoOrth=F DoCkMO=F.
 Initial guess orbital symmetries:
 Alpha Orbitals:
       Occupied  (A1) (B2) (A1) (B2) (A1) (A1) (A1) (B2) (A1) (B2)
                 (A1) (B2) (A1) (B2) (A1) (B1) (A2) (B1)
       Virtual   (A2) (B2) (B1) (A1) (A1) (B2) (A1) (B2) (A1) (B2)
                 (A1) (B2) (A1) (B2) (B1) (A1) (A2) (B1) (B2) (A1)
                 (A1) (A2) (B1) (B2) (B2) (A1) (B2) (A1) (A1) (B2)
                 (A1) (A1) (A1) (B2) (A1) (B2) (A1) (A1) (B2)
 Beta  Orbitals:
       Occupied  (A1) (B2) (A1) (B2) (A1) (A1) (A1) (B2) (A1) (B2)
                 (A1) (B2) (A1) (B2) (A1) (B1) (A2)
       Virtual   (B1) (A2) (B2) (B1) (A1) (A1) (B2) (A1) (B2) (A1)
                 (B2) (A1) (B2) (A1) (B2) (B1) (A1) (A2) (B1) (B2)
                 (A1) (A1) (A2) (B1) (B2) (B2) (A1) (B2) (A1) (A1)
                 (B2) (A1) (A1) (A1) (B2) (A1) (B2) (A1) (A1) (B2)
 The electronic state of the initial guess is 2-B1.
 Initial guess <Sx>= 0.0000 <Sy>= 0.0000 <Sz>= 0.5000 <S**2>= 0.7500 S= 0.5000
 Leave Link  401 at Thu Mar  5 12:53:27 2020, MaxMem=  6710886400 cpu:               3.3 elap:               0.2
 (Enter /opt/ohpc/pub/libs/gaussian/g16-A.03/sandybridge/g16/l502.exe)
 Keep R1 and R2 ints in memory in symmetry-blocked form, NReq=16815681.
 FoFCou: FMM=F IPFlag=           0 FMFlag=           0 FMFlg1=           0
         NFxFlg=           0 DoJE=F BraDBF=F KetDBF=F FulRan=T
         wScrn=  0.000000 ICntrl=       600 IOpCl=  0 I1Cent=           0 NGrid=           0
         NMat0=    1 NMatS0=   1653 NMatT0=    0 NMatD0=    1 NMtDS0=    0 NMtDT0=    0
 Petite list used in FoFCou.
 UHF open shell SCF:
 Using DIIS extrapolation, IDIIS=    10.
 NGot=  6710886400 LenX=  6710059561 LenY=  6710055871
 Requested convergence on RMS density matrix=1.00D-06 within  32 cycles.
 Requested convergence on MAX density matrix=1.00D-04.
 Requested convergence on             energy=1.00D-04.
 Virtual orbitals will be shifted by   0.500 hartree.
 No special actions if energy rises.
 Dynamic level shift is on during FON iterations.

 Cycle   1  Pass 1  IDiag  1:
 E= -196.901306872902    
 DIIS: error= 4.84D-02 at cycle   1 NSaved=   1.
 NSaved= 1 IEnMin= 1 EnMin= -196.901306872902     IErMin= 1 ErrMin= 4.84D-02
 ErrMax= 4.84D-02  0.00D+00 EMaxC= 1.00D+00 BMatC= 1.95D-01 BMatP= 1.95D-01
 IDIUse=1 WtCom= 1.00D+00 WtEn= 0.00D+00
 Coeff-Com:  0.100D+01
 Coeff:      0.100D+01
 Gap=     0.326 Goal=   None    Shift=    0.500
 T= 1783. Gap= 0.800 NK=0 IS=   19 IE=   57 IFin=   18
          NO(<0.9)=   0  NV(>0.1)=   0     18.00e < EF      0.00e >EF  Err=0.0D+00
 Gap=     0.203 Goal=   None    Shift=    0.500
 T= 1783. Gap= 0.706 NK=0 IS=   18 IE=   57 IFin=   17
          NO(<0.9)=   0  NV(>0.1)=   0     17.00e < EF      0.00e >EF  Err=0.0D+00
 GapD=    0.203 DampG=1.000 DampE=0.500 DampFc=0.5000 IDamp=-1.
 Damping current iteration by 5.00D-01
 RMSDP=6.98D-03 MaxDP=5.29D-02              OVMax= 1.06D-01

 Cycle   2  Pass 1  IDiag  1:
 E= -196.939092944542     Delta-E=       -0.037786071639 Rises=F Damp=T
 DIIS: error= 2.27D-02 at cycle   2 NSaved=   2.
 NSaved= 2 IEnMin= 2 EnMin= -196.939092944542     IErMin= 2 ErrMin= 2.27D-02
 ErrMax= 2.27D-02  0.00D+00 EMaxC= 1.00D+00 BMatC= 3.30D-02 BMatP= 1.95D-01
 IDIUse=1 WtCom= 1.00D+00 WtEn= 0.00D+00
 Coeff-Com: -0.523D+00 0.152D+01
 Coeff:     -0.523D+00 0.152D+01
 Gap=     0.397 Goal=   None    Shift=    0.500
 T= 1666. Gap= 0.882 NK=4 IS=   19 IE=   23 IFin=   18
          NO(<0.9)=   0  NV(>0.1)=   0     18.00e < EF      0.00e >EF  Err=0.0D+00
 Gap=     0.231 Goal=   None    Shift=    0.500
 T= 1666. Gap= 0.730 NK=4 IS=   18 IE=   23 IFin=   17
          NO(<0.9)=   0  NV(>0.1)=   0     17.00e < EF      0.00e >EF  Err=0.0D+00
 GapD=    0.231 DampG=1.000 DampE=0.500 DampFc=0.5000 IDamp=-1.
 Damping current iteration by 5.00D-01
 RMSDP=4.18D-03 MaxDP=3.23D-02 DE=-3.78D-02 OVMax= 1.72D-02

 Cycle   3  Pass 1  IDiag  1:
 E= -196.952268836069     Delta-E=       -0.013175891527 Rises=F Damp=T
 DIIS: error= 1.28D-02 at cycle   3 NSaved=   3.
 NSaved= 3 IEnMin= 3 EnMin= -196.952268836069     IErMin= 3 ErrMin= 1.28D-02
 ErrMax= 1.28D-02  0.00D+00 EMaxC= 1.00D+00 BMatC= 7.56D-03 BMatP= 3.30D-02
 IDIUse=1 WtCom= 1.00D+00 WtEn= 0.00D+00
 Coeff-Com:  0.318D+00-0.177D+01 0.245D+01
 Coeff:      0.318D+00-0.177D+01 0.245D+01
 Gap=     0.386 Goal=   None    Shift=    0.500
 T= 1454. Gap= 0.886 NK=0 IS=   19 IE=   57 IFin=   18
          NO(<0.9)=   0  NV(>0.1)=   0     18.00e < EF      0.00e >EF  Err=0.0D+00
 Gap=     0.236 Goal=   None    Shift=    0.500
 T= 1454. Gap= 0.736 NK=0 IS=   18 IE=   57 IFin=   17
          NO(<0.9)=   0  NV(>0.1)=   0     17.00e < EF      0.00e >EF  Err=0.0D+00
 GapD=    0.236 DampG=1.000 DampE=0.500 DampFc=0.5000 IDamp=-1.
 Damping current iteration by 5.00D-01
 RMSDP=2.30D-03 MaxDP=1.87D-02 DE=-1.32D-02 OVMax= 1.56D-02

 Cycle   4  Pass 1  IDiag  1:
 E= -196.958499378320     Delta-E=       -0.006230542251 Rises=F Damp=T
 DIIS: error= 8.13D-03 at cycle   4 NSaved=   4.
 NSaved= 4 IEnMin= 4 EnMin= -196.958499378320     IErMin= 4 ErrMin= 8.13D-03
 ErrMax= 8.13D-03  0.00D+00 EMaxC= 1.00D+00 BMatC= 2.64D-03 BMatP= 7.56D-03
 IDIUse=1 WtCom= 1.00D+00 WtEn= 0.00D+00
 Coeff-Com:  0.286D-01 0.677D+00-0.344D+01 0.374D+01
 Coeff:      0.286D-01 0.677D+00-0.344D+01 0.374D+01
 Gap=     0.390 Goal=   None    Shift=    0.500
 T= 1062. Gap= 0.890 NK=0 IS=   19 IE=   57 IFin=   18
          NO(<0.9)=   0  NV(>0.1)=   0     18.00e < EF      0.00e >EF  Err=0.0D+00
 Gap=     0.240 Goal=   None    Shift=    0.500
 T= 1062. Gap= 0.741 NK=0 IS=   18 IE=   57 IFin=   17
          NO(<0.9)=   0  NV(>0.1)=   0     17.00e < EF      0.00e >EF  Err=0.0D+00
 GapD=    0.240 DampG=1.000 DampE=1.000 DampFc=1.0000 IDamp=-1.
 RMSDP=1.45D-03 MaxDP=1.53D-02 DE=-6.23D-03 OVMax= 1.46D-02

 Cycle   5  Pass 1  IDiag  1:
 E= -196.965774418355     Delta-E=       -0.007275040035 Rises=F Damp=F
 DIIS: error= 3.85D-03 at cycle   5 NSaved=   5.
 NSaved= 5 IEnMin= 5 EnMin= -196.965774418355     IErMin= 5 ErrMin= 3.85D-03
 ErrMax= 3.85D-03  0.00D+00 EMaxC= 1.00D+00 BMatC= 4.35D-04 BMatP= 2.64D-03
 IDIUse=1 WtCom= 1.00D+00 WtEn= 0.00D+00
 Coeff-Com: -0.176D+00 0.903D+00-0.803D+00-0.813D+00 0.189D+01
 Coeff:     -0.176D+00 0.903D+00-0.803D+00-0.813D+00 0.189D+01
 Gap=     0.393 Goal=   None    Shift=    0.500
 T=  722. Gap= 0.893 NK=0 IS=   19 IE=   57 IFin=   18
          NO(<0.9)=   0  NV(>0.1)=   0     18.00e < EF      0.00e >EF  Err=0.0D+00
 Gap=     0.244 Goal=   None    Shift=    0.500
 T=  722. Gap= 0.745 NK=0 IS=   18 IE=   57 IFin=   17
          NO(<0.9)=   0  NV(>0.1)=   0     17.00e < EF      0.00e >EF  Err=0.0D+00
 GapD=    0.244 DampG=1.000 DampE=1.000 DampFc=1.0000 IDamp=-1.
 RMSDP=4.29D-04 MaxDP=6.87D-03 DE=-7.28D-03 OVMax= 1.44D-02

 Cycle   6  Pass 1  IDiag  1:
 E= -196.966392895551     Delta-E=       -0.000618477197 Rises=F Damp=F
 DIIS: error= 3.08D-03 at cycle   6 NSaved=   6.
 NSaved= 6 IEnMin= 6 EnMin= -196.966392895551     IErMin= 6 ErrMin= 3.08D-03
 ErrMax= 3.08D-03  0.00D+00 EMaxC= 1.00D+00 BMatC= 2.01D-04 BMatP= 4.35D-04
 IDIUse=1 WtCom= 1.00D+00 WtEn= 0.00D+00
 Coeff-Com: -0.651D-02-0.227D+00 0.763D+00-0.565D+00-0.163D+01 0.266D+01
 Coeff:     -0.651D-02-0.227D+00 0.763D+00-0.565D+00-0.163D+01 0.266D+01
 Gap=     0.395 Goal=   None    Shift=    0.500
 T=  423. Gap= 0.896 NK=0 IS=   19 IE=   57 IFin=   18
          NO(<0.9)=   0  NV(>0.1)=   0     18.00e < EF      0.00e >EF  Err=0.0D+00
 Gap=     0.246 Goal=   None    Shift=    0.500
 T=  423. Gap= 0.747 NK=0 IS=   18 IE=   57 IFin=   17
          NO(<0.9)=   0  NV(>0.1)=   0     17.00e < EF      0.00e >EF  Err=0.0D+00
 GapD=    0.246 DampG=1.000 DampE=1.000 DampFc=1.0000 IDamp=-1.
 RMSDP=3.43D-04 MaxDP=5.60D-03 DE=-6.18D-04 OVMax= 1.32D-02

 Cycle   7  Pass 1  IDiag  1:
 E= -196.966749156228     Delta-E=       -0.000356260676 Rises=F Damp=F
 DIIS: error= 2.28D-03 at cycle   7 NSaved=   7.
 NSaved= 7 IEnMin= 7 EnMin= -196.966749156228     IErMin= 7 ErrMin= 2.28D-03
 ErrMax= 2.28D-03  0.00D+00 EMaxC= 1.00D+00 BMatC= 9.19D-05 BMatP= 2.01D-04
 IDIUse=1 WtCom= 1.00D+00 WtEn= 0.00D+00
 Coeff-Com:  0.193D-01-0.104D+00-0.118D-01 0.304D+00-0.479D+00-0.878D+00
 Coeff-Com:  0.215D+01
 Coeff:      0.193D-01-0.104D+00-0.118D-01 0.304D+00-0.479D+00-0.878D+00
 Coeff:      0.215D+01
 Gap=     0.396 Goal=   None    Shift=    0.500
 T=  128. Gap= 0.896 NK=0 IS=   19 IE=   57 IFin=   18
          NO(<0.9)=   0  NV(>0.1)=   0     18.00e < EF      0.00e >EF  Err=0.0D+00
 Gap=     0.248 Goal=   None    Shift=    0.500
 T=  128. Gap= 0.748 NK=0 IS=   18 IE=   57 IFin=   17
          NO(<0.9)=   0  NV(>0.1)=   0     17.00e < EF      0.00e >EF  Err=0.0D+00
 GapD=    0.248 DampG=1.000 DampE=1.000 DampFc=1.0000 IDamp=-1.
 RMSDP=2.34D-04 MaxDP=3.44D-03 DE=-3.56D-04 OVMax= 9.83D-03

 Cycle   8  Pass 1  IDiag  1:
 E= -196.966912369118     Delta-E=       -0.000163212890 Rises=F Damp=F
 DIIS: error= 1.66D-03 at cycle   8 NSaved=   8.
 NSaved= 8 IEnMin= 8 EnMin= -196.966912369118     IErMin= 8 ErrMin= 1.66D-03
 ErrMax= 1.66D-03  0.00D+00 EMaxC= 1.00D+00 BMatC= 4.58D-05 BMatP= 9.19D-05
 IDIUse=1 WtCom= 1.00D+00 WtEn= 0.00D+00
 Coeff-Com: -0.439D-02 0.229D+00-0.721D+00 0.542D+00 0.126D+01-0.261D+01
 Coeff-Com: -0.149D+00 0.246D+01
 Coeff:     -0.439D-02 0.229D+00-0.721D+00 0.542D+00 0.126D+01-0.261D+01
 Coeff:     -0.149D+00 0.246D+01
 Gap=     0.397 Goal=   None    Shift=    0.500
 Gap=     0.248 Goal=   None    Shift=    0.500
 GapD=    0.248 DampG=1.000 DampE=1.000 DampFc=1.0000 IDamp=-1.
 RMSDP=1.94D-04 MaxDP=2.80D-03 DE=-1.63D-04 OVMax= 8.62D-03

 Cycle   9  Pass 1  IDiag  1:
 E= -196.967001679711     Delta-E=       -0.000089310593 Rises=F Damp=F
 DIIS: error= 1.14D-03 at cycle   9 NSaved=   9.
 NSaved= 9 IEnMin= 9 EnMin= -196.967001679711     IErMin= 9 ErrMin= 1.14D-03
 ErrMax= 1.14D-03  0.00D+00 EMaxC= 1.00D+00 BMatC= 2.05D-05 BMatP= 4.58D-05
 IDIUse=1 WtCom= 1.00D+00 WtEn= 0.00D+00
 Coeff-Com: -0.759D-02-0.956D-01 0.491D+00-0.541D+00-0.431D+00 0.192D+01
 Coeff-Com: -0.960D+00-0.352D+01 0.414D+01
 Coeff:     -0.759D-02-0.956D-01 0.491D+00-0.541D+00-0.431D+00 0.192D+01
 Coeff:     -0.960D+00-0.352D+01 0.414D+01
 Gap=     0.397 Goal=   None    Shift=    0.500
 Gap=     0.249 Goal=   None    Shift=    0.500
 GapD=    0.249 DampG=1.000 DampE=1.000 DampFc=1.0000 IDamp=-1.
 RMSDP=1.51D-04 MaxDP=2.29D-03 DE=-8.93D-05 OVMax= 7.24D-03

 Cycle  10  Pass 1  IDiag  1:
 E= -196.967046458169     Delta-E=       -0.000044778458 Rises=F Damp=F
 DIIS: error= 7.04D-04 at cycle  10 NSaved=  10.
 NSaved=10 IEnMin=10 EnMin= -196.967046458169     IErMin=10 ErrMin= 7.04D-04
 ErrMax= 7.04D-04  0.00D+00 EMaxC= 1.00D+00 BMatC= 8.08D-06 BMatP= 2.05D-05
 IDIUse=1 WtCom= 1.00D+00 WtEn= 0.00D+00
 Coeff-Com:  0.276D-02 0.779D-03-0.305D-01 0.400D-01 0.208D-01-0.139D+00
 Coeff-Com:  0.237D+00 0.133D+00-0.188D+01 0.261D+01
 Coeff:      0.276D-02 0.779D-03-0.305D-01 0.400D-01 0.208D-01-0.139D+00
 Coeff:      0.237D+00 0.133D+00-0.188D+01 0.261D+01
 Gap=     0.397 Goal=   None    Shift=    0.500
 Gap=     0.249 Goal=   None    Shift=    0.500
 RMSDP=8.96D-05 MaxDP=1.39D-03 DE=-4.48D-05 OVMax= 4.48D-03

 Cycle  11  Pass 1  IDiag  1:
 E= -196.967063011731     Delta-E=       -0.000016553562 Rises=F Damp=F
 DIIS: error= 4.35D-04 at cycle  11 NSaved=  11.
 NSaved=11 IEnMin=11 EnMin= -196.967063011731     IErMin=11 ErrMin= 4.35D-04
 ErrMax= 4.35D-04  0.00D+00 EMaxC= 1.00D+00 BMatC= 3.40D-06 BMatP= 8.08D-06
 IDIUse=1 WtCom= 1.00D+00 WtEn= 0.00D+00
 Coeff-Com: -0.232D-02-0.343D-02 0.607D-01-0.900D-01 0.260D-01 0.214D+00
 Coeff-Com: -0.330D+00-0.500D+00 0.263D+01-0.568D+01 0.468D+01
 Coeff:     -0.232D-02-0.343D-02 0.607D-01-0.900D-01 0.260D-01 0.214D+00
 Coeff:     -0.330D+00-0.500D+00 0.263D+01-0.568D+01 0.468D+01
 Gap=     0.397 Goal=   None    Shift=    0.500
 Gap=     0.249 Goal=   None    Shift=    0.500
 RMSDP=5.94D-05 MaxDP=8.82D-04 DE=-1.66D-05 OVMax= 3.04D-03

 Cycle  12  Pass 1  IDiag  1:
 E= -196.967069877344     Delta-E=       -0.000006865613 Rises=F Damp=F
 DIIS: error= 2.57D-04 at cycle  12 NSaved=  12.
 NSaved=12 IEnMin=12 EnMin= -196.967069877344     IErMin=12 ErrMin= 2.57D-04
 ErrMax= 2.57D-04  0.00D+00 EMaxC= 1.00D+00 BMatC= 1.26D-06 BMatP= 3.40D-06
 IDIUse=1 WtCom= 1.00D+00 WtEn= 0.00D+00
 Coeff-Com: -0.101D-02-0.165D-01 0.818D-01-0.896D-01-0.642D-01 0.291D+00
 Coeff-Com: -0.784D-01-0.637D+00 0.651D+00 0.461D+00-0.246D+01 0.286D+01
 Coeff:     -0.101D-02-0.165D-01 0.818D-01-0.896D-01-0.642D-01 0.291D+00
 Coeff:     -0.784D-01-0.637D+00 0.651D+00 0.461D+00-0.246D+01 0.286D+01
 Gap=     0.397 Goal=   None    Shift=    0.500
 Gap=     0.249 Goal=   None    Shift=    0.500
 RMSDP=3.58D-05 MaxDP=5.20D-04 DE=-6.87D-06 OVMax= 1.84D-03

 Cycle  13  Pass 1  IDiag  1:
 E= -196.967072359331     Delta-E=       -0.000002481987 Rises=F Damp=F
 DIIS: error= 1.51D-04 at cycle  13 NSaved=  13.
 NSaved=13 IEnMin=13 EnMin= -196.967072359331     IErMin=13 ErrMin= 1.51D-04
 ErrMax= 1.51D-04  0.00D+00 EMaxC= 1.00D+00 BMatC= 4.50D-07 BMatP= 1.26D-06
 IDIUse=1 WtCom= 1.00D+00 WtEn= 0.00D+00
 Coeff-Com:  0.734D-03 0.611D-02-0.292D-01 0.292D-01 0.418D-01-0.112D+00
 Coeff-Com: -0.131D-01 0.252D+00 0.134D-01-0.110D+01 0.267D+01-0.485D+01
 Coeff-Com:  0.409D+01
 Coeff:      0.734D-03 0.611D-02-0.292D-01 0.292D-01 0.418D-01-0.112D+00
 Coeff:     -0.131D-01 0.252D+00 0.134D-01-0.110D+01 0.267D+01-0.485D+01
 Coeff:      0.409D+01
 Gap=     0.397 Goal=   None    Shift=    0.500
 Gap=     0.249 Goal=   None    Shift=    0.500
 RMSDP=2.19D-05 MaxDP=3.24D-04 DE=-2.48D-06 OVMax= 1.14D-03

 Cycle  14  Pass 1  IDiag  1:
 E= -196.967073257083     Delta-E=       -0.000000897752 Rises=F Damp=F
 DIIS: error= 8.46D-05 at cycle  14 NSaved=  14.
 NSaved=14 IEnMin=14 EnMin= -196.967073257083     IErMin=14 ErrMin= 8.46D-05
 ErrMax= 8.46D-05  0.00D+00 EMaxC= 1.00D+00 BMatC= 1.64D-07 BMatP= 4.50D-07
 IDIUse=1 WtCom= 1.00D+00 WtEn= 0.00D+00
 Coeff-Com: -0.248D-03-0.302D-02 0.195D-01-0.248D-01-0.493D-02 0.549D-01
 Coeff-Com: -0.155D-01-0.155D+00 0.348D+00-0.480D+00-0.322D-01 0.146D+01
 Coeff-Com: -0.345D+01 0.328D+01
 Coeff:     -0.248D-03-0.302D-02 0.195D-01-0.248D-01-0.493D-02 0.549D-01
 Coeff:     -0.155D-01-0.155D+00 0.348D+00-0.480D+00-0.322D-01 0.146D+01
 Coeff:     -0.345D+01 0.328D+01
 Gap=     0.397 Goal=   None    Shift=    0.500
 Gap=     0.249 Goal=   None    Shift=    0.500
 RMSDP=1.30D-05 MaxDP=1.92D-04 DE=-8.98D-07 OVMax= 6.80D-04

 Cycle  15  Pass 1  IDiag  1:
 E= -196.967073568055     Delta-E=       -0.000000310972 Rises=F Damp=F
 DIIS: error= 4.71D-05 at cycle  15 NSaved=  15.
 NSaved=15 IEnMin=15 EnMin= -196.967073568055     IErMin=15 ErrMin= 4.71D-05
 ErrMax= 4.71D-05  0.00D+00 EMaxC= 1.00D+00 BMatC= 5.68D-08 BMatP= 1.64D-07
 IDIUse=1 WtCom= 1.00D+00 WtEn= 0.00D+00
 Coeff-Com:  0.177D-03 0.872D-03-0.763D-02 0.105D-01 0.585D-03-0.205D-01
 Coeff-Com:  0.103D-01 0.660D-01-0.166D+00 0.261D+00-0.822D-01-0.815D+00
 Coeff-Com:  0.248D+01-0.465D+01 0.392D+01
 Coeff:      0.177D-03 0.872D-03-0.763D-02 0.105D-01 0.585D-03-0.205D-01
 Coeff:      0.103D-01 0.660D-01-0.166D+00 0.261D+00-0.822D-01-0.815D+00
 Coeff:      0.248D+01-0.465D+01 0.392D+01
 Gap=     0.397 Goal=   None    Shift=    0.500
 Gap=     0.249 Goal=   None    Shift=    0.500
 RMSDP=7.47D-06 MaxDP=1.08D-04 DE=-3.11D-07 OVMax= 3.94D-04

 Cycle  16  Pass 1  IDiag  1:
 E= -196.967073670500     Delta-E=       -0.000000102445 Rises=F Damp=F
 DIIS: error= 2.55D-05 at cycle  16 NSaved=  16.
 NSaved=16 IEnMin=16 EnMin= -196.967073670500     IErMin=16 ErrMin= 2.55D-05
 ErrMax= 2.55D-05  0.00D+00 EMaxC= 1.00D+00 BMatC= 1.99D-08 BMatP= 5.68D-08
 IDIUse=1 WtCom= 1.00D+00 WtEn= 0.00D+00
 Coeff-Com:  0.186D-04 0.548D-03-0.601D-03-0.101D-02 0.736D-02-0.135D-01
 Coeff-Com:  0.565D-02 0.751D-02 0.486D-01-0.198D+00 0.305D+00-0.276D+00
 Coeff-Com: -0.254D+00 0.161D+01-0.365D+01 0.342D+01
 Coeff:      0.186D-04 0.548D-03-0.601D-03-0.101D-02 0.736D-02-0.135D-01
 Coeff:      0.565D-02 0.751D-02 0.486D-01-0.198D+00 0.305D+00-0.276D+00
 Coeff:     -0.254D+00 0.161D+01-0.365D+01 0.342D+01
 Gap=     0.397 Goal=   None    Shift=    0.500
 Gap=     0.249 Goal=   None    Shift=    0.500
 RMSDP=4.19D-06 MaxDP=5.87D-05 DE=-1.02D-07 OVMax= 2.22D-04

 Cycle  17  Pass 1  IDiag  1:
 E= -196.967073703205     Delta-E=       -0.000000032704 Rises=F Damp=F
 DIIS: error= 1.37D-05 at cycle  17 NSaved=  17.
 NSaved=17 IEnMin=17 EnMin= -196.967073703205     IErMin=17 ErrMin= 1.37D-05
 ErrMax= 1.37D-05  0.00D+00 EMaxC= 1.00D+00 BMatC= 6.84D-09 BMatP= 1.99D-08
 IDIUse=1 WtCom= 1.00D+00 WtEn= 0.00D+00
 Coeff-Com:  0.451D-04-0.283D-03-0.798D-04 0.103D-02-0.313D-02 0.316D-02
 Coeff-Com:  0.211D-02 0.466D-03-0.298D-01 0.901D-01-0.121D+00 0.465D-01
 Coeff-Com:  0.282D+00-0.113D+01 0.264D+01-0.470D+01 0.392D+01
 Coeff:      0.451D-04-0.283D-03-0.798D-04 0.103D-02-0.313D-02 0.316D-02
 Coeff:      0.211D-02 0.466D-03-0.298D-01 0.901D-01-0.121D+00 0.465D-01
 Coeff:      0.282D+00-0.113D+01 0.264D+01-0.470D+01 0.392D+01
 Gap=     0.397 Goal=   None    Shift=    0.500
 Gap=     0.249 Goal=   None    Shift=    0.500
 RMSDP=2.28D-06 MaxDP=3.09D-05 DE=-3.27D-08 OVMax= 1.21D-04

 Cycle  18  Pass 1  IDiag  1:
 E= -196.967073713344     Delta-E=       -0.000000010139 Rises=F Damp=F
 DIIS: error= 7.35D-06 at cycle  18 NSaved=  18.
 NSaved=18 IEnMin=18 EnMin= -196.967073713344     IErMin=18 ErrMin= 7.35D-06
 ErrMax= 7.35D-06  0.00D+00 EMaxC= 1.00D+00 BMatC= 2.28D-09 BMatP= 6.84D-09
 IDIUse=1 WtCom= 1.00D+00 WtEn= 0.00D+00
 Coeff-Com:  0.220D-04 0.302D-03-0.154D-02 0.170D-02 0.185D-02-0.749D-02
 Coeff-Com:  0.431D-02 0.116D-01-0.185D-01 0.698D-02 0.347D-01-0.123D+00
 Coeff-Com:  0.216D+00-0.206D+00-0.224D+00 0.143D+01-0.355D+01 0.343D+01
 Coeff:      0.220D-04 0.302D-03-0.154D-02 0.170D-02 0.185D-02-0.749D-02
 Coeff:      0.431D-02 0.116D-01-0.185D-01 0.698D-02 0.347D-01-0.123D+00
 Coeff:      0.216D+00-0.206D+00-0.224D+00 0.143D+01-0.355D+01 0.343D+01
 Gap=     0.397 Goal=   None    Shift=    0.500
 Gap=     0.249 Goal=   None    Shift=    0.500
 RMSDP=1.21D-06 MaxDP=1.64D-05 DE=-1.01D-08 OVMax= 6.45D-05

 Cycle  19  Pass 1  IDiag  1:
 E= -196.967073716443     Delta-E=       -0.000000003100 Rises=F Damp=F
 DIIS: error= 4.17D-06 at cycle  19 NSaved=  19.
 NSaved=19 IEnMin=19 EnMin= -196.967073716443     IErMin=19 ErrMin= 4.17D-06
 ErrMax= 4.17D-06  0.00D+00 EMaxC= 1.00D+00 BMatC= 7.38D-10 BMatP= 2.28D-09
 IDIUse=1 WtCom= 1.00D+00 WtEn= 0.00D+00
 Coeff-Com:  0.456D-05 0.947D-04-0.328D-03 0.269D-03 0.628D-03-0.226D-02
 Coeff-Com:  0.197D-02 0.221D-02-0.413D-02 0.684D-03 0.549D-02-0.881D-02
 Coeff-Com: -0.262D-02 0.365D-01-0.299D-01-0.331D+00 0.127D+01-0.301D+01
 Coeff-Com:  0.308D+01
 Coeff:      0.456D-05 0.947D-04-0.328D-03 0.269D-03 0.628D-03-0.226D-02
 Coeff:      0.197D-02 0.221D-02-0.413D-02 0.684D-03 0.549D-02-0.881D-02
 Coeff:     -0.262D-02 0.365D-01-0.299D-01-0.331D+00 0.127D+01-0.301D+01
 Coeff:      0.308D+01
 Gap=     0.397 Goal=   None    Shift=    0.500
 Gap=     0.249 Goal=   None    Shift=    0.500
 RMSDP=6.47D-07 MaxDP=8.91D-06 DE=-3.10D-09 OVMax= 3.46D-05

 SCF Done:  E(ULC-wHPBE) =  -196.967073716     A.U. after   19 cycles
            NFock= 19  Conv=0.65D-06     -V/T= 2.0209
 <Sx>= 0.0000 <Sy>= 0.0000 <Sz>= 0.5000 <S**2>= 0.8154 S= 0.5322
 <L.S>= 0.000000000000E+00
 KE= 1.929298977882D+02 PE=-7.526278255855D+02 EE= 2.067181115949D+02
 Annihilation of the first spin contaminant:
 S**2 before annihilation     0.8154,   after     0.7524
 Leave Link  502 at Thu Mar  5 12:53:29 2020, MaxMem=  6710886400 cpu:              34.4 elap:               2.2
 (Enter /opt/ohpc/pub/libs/gaussian/g16-A.03/sandybridge/g16/l508.exe)
 QCSCF skips out because SCF is already converged.
 Leave Link  508 at Thu Mar  5 12:53:29 2020, MaxMem=  6710886400 cpu:               0.3 elap:               0.0
 (Enter /opt/ohpc/pub/libs/gaussian/g16-A.03/sandybridge/g16/l601.exe)
 Copying SCF densities to generalized density rwf, IOpCl= 1 IROHF=0.

 **********************************************************************

            Population analysis using the SCF density.

 **********************************************************************

 Orbital symmetries:
 Alpha Orbitals:
       Occupied  (B2) (A1) (A1) (B2) (A1) (A1) (A1) (B2) (A1) (B2)
                 (A1) (B2) (A1) (A1) (B1) (B2) (A2) (B1)
       Virtual   (A2) (B2) (B1) (A1) (A1) (B2) (A1) (A1) (B2) (A1)
                 (B2) (A1) (B2) (B1) (B2) (B1) (A2) (A1) (A1) (B2)
                 (A1) (A2) (B1) (B2) (B2) (A1) (A1) (A1) (B2) (A1)
                 (B2) (A1) (A1) (B2) (A1) (B2) (A1) (A1) (B2)
 Beta  Orbitals:
       Occupied  (B2) (A1) (B2) (A1) (A1) (A1) (A1) (B2) (A1) (B2)
                 (A1) (B2) (A1) (A1) (B2) (B1) (A2)
       Virtual   (B1) (B2) (A2) (A1) (B1) (A1) (B2) (A1) (B2) (A1)
                 (A1) (B2) (A1) (B2) (B2) (B1) (A2) (A1) (B1) (A1)
                 (B2) (A1) (A2) (B1) (B2) (B2) (A1) (A1) (B2) (A1)
                 (B2) (A1) (A1) (A1) (B2) (A1) (B2) (A1) (A1) (B2)
 The electronic state is 2-B1.
 Alpha  occ. eigenvalues --  -10.45530 -10.45527 -10.40520 -10.39658 -10.39657
 Alpha  occ. eigenvalues --   -1.32188  -1.19260  -1.14322  -1.00539  -0.98242
 Alpha  occ. eigenvalues --   -0.93546  -0.83692  -0.81497  -0.80352  -0.79206
 Alpha  occ. eigenvalues --   -0.78003  -0.64384  -0.63368
 Alpha virt. eigenvalues --   -0.23671  -0.23159  -0.16746  -0.16091  -0.09510
 Alpha virt. eigenvalues --   -0.04753  -0.02775  -0.00353  -0.00341   0.10396
 Alpha virt. eigenvalues --    0.10731   0.20951   0.21325   0.29489   0.30415
 Alpha virt. eigenvalues --    0.37166   0.37718   0.38526   0.40477   0.41302
 Alpha virt. eigenvalues --    0.41652   0.45093   0.46575   0.54340   0.61075
 Alpha virt. eigenvalues --    0.63379   0.64474   0.67028   0.67090   0.73154
 Alpha virt. eigenvalues --    0.73303   0.77611   0.81842   0.88466   0.96535
 Alpha virt. eigenvalues --    0.97487   1.03373   1.24820   1.26348
  Beta  occ. eigenvalues --  -10.44911 -10.44905 -10.39987 -10.39987 -10.39545
  Beta  occ. eigenvalues --   -1.30881  -1.17319  -1.14092  -0.99439  -0.97497
  Beta  occ. eigenvalues --   -0.93297  -0.83416  -0.81232  -0.79789  -0.77858
  Beta  occ. eigenvalues --   -0.74625  -0.63000
  Beta virt. eigenvalues --   -0.38116  -0.21621  -0.20618  -0.15863  -0.13225
  Beta virt. eigenvalues --   -0.09094  -0.04486  -0.02573  -0.00409   0.00303
  Beta virt. eigenvalues --    0.10886   0.11065   0.21368   0.21690   0.30825
  Beta virt. eigenvalues --    0.31917   0.38821   0.39094   0.40122   0.40851
  Beta virt. eigenvalues --    0.41678   0.42799   0.45660   0.48244   0.54908
  Beta virt. eigenvalues --    0.61511   0.64285   0.64949   0.66978   0.67489
  Beta virt. eigenvalues --    0.73595   0.73843   0.78433   0.82645   0.88454
  Beta virt. eigenvalues --    0.97023   0.98011   1.04575   1.25770   1.27223
          Condensed to atoms (all electrons):
               1          2          3          4          5          6
     1  C    5.373068   0.495901  -0.043736  -0.123916   0.178703   0.161966
     2  C    0.495901   4.964119   0.458693  -0.027417  -0.123916  -0.021030
     3  C   -0.043736   0.458693   4.885464   0.458693  -0.043736   0.007194
     4  C   -0.123916  -0.027417   0.458693   4.964119   0.495901  -0.021030
     5  C    0.178703  -0.123916  -0.043736   0.495901   5.373068   0.161966
     6  H    0.161966  -0.021030   0.007194  -0.021030   0.161966   0.347758
     7  H    0.335219   0.004616  -0.000356   0.003142  -0.015516  -0.009642
     8  H   -0.023289   0.360357  -0.011706   0.003786   0.000831   0.000361
     9  H    0.004887  -0.026158   0.363068  -0.026158   0.004887  -0.000036
    10  H    0.000831   0.003786  -0.011706   0.360357  -0.023289   0.000361
    11  H   -0.015516   0.003142  -0.000356   0.004616   0.335219  -0.009642
               7          8          9         10         11
     1  C    0.335219  -0.023289   0.004887   0.000831  -0.015516
     2  C    0.004616   0.360357  -0.026158   0.003786   0.003142
     3  C   -0.000356  -0.011706   0.363068  -0.011706  -0.000356
     4  C    0.003142   0.003786  -0.026158   0.360357   0.004616
     5  C   -0.015516   0.000831   0.004887  -0.023289   0.335219
     6  H   -0.009642   0.000361  -0.000036   0.000361  -0.009642
     7  H    0.339952   0.000116  -0.000050  -0.000016   0.000392
     8  H    0.000116   0.378871  -0.001151  -0.000081  -0.000016
     9  H   -0.000050  -0.001151   0.397873  -0.001151  -0.000050
    10  H   -0.000016  -0.000081  -0.001151   0.378871   0.000116
    11  H    0.000392  -0.000016  -0.000050   0.000116   0.339952
          Atomic-Atomic Spin Densities.
               1          2          3          4          5          6
     1  C    0.522015  -0.040662  -0.022739  -0.009532   0.022749  -0.004181
     2  C   -0.040662  -0.271950   0.027786   0.000033  -0.009532   0.000371
     3  C   -0.022739   0.027786   0.731065   0.027786  -0.022739   0.000208
     4  C   -0.009532   0.000033   0.027786  -0.271950  -0.040662   0.000371
     5  C    0.022749  -0.009532  -0.022739  -0.040662   0.522015  -0.004181
     6  H   -0.004181   0.000371   0.000208   0.000371  -0.004181  -0.016048
     7  H   -0.003016  -0.000550   0.000119  -0.000109   0.000189  -0.000136
     8  H   -0.000392   0.002118  -0.001119  -0.000135   0.000071   0.000024
     9  H   -0.000015  -0.000025  -0.001275  -0.000025  -0.000015  -0.000001
    10  H    0.000071  -0.000135  -0.001119   0.002118  -0.000392   0.000024
    11  H    0.000189  -0.000109   0.000119  -0.000550  -0.003016  -0.000136
               7          8          9         10         11
     1  C   -0.003016  -0.000392  -0.000015   0.000071   0.000189
     2  C   -0.000550   0.002118  -0.000025  -0.000135  -0.000109
     3  C    0.000119  -0.001119  -0.001275  -0.001119   0.000119
     4  C   -0.000109  -0.000135  -0.000025   0.002118  -0.000550
     5  C    0.000189   0.000071  -0.000015  -0.000392  -0.003016
     6  H   -0.000136   0.000024  -0.000001   0.000024  -0.000136
     7  H   -0.019006   0.000053   0.000004  -0.000000  -0.000076
     8  H    0.000053   0.007968   0.000008   0.000000  -0.000000
     9  H    0.000004   0.000008  -0.028882   0.000008   0.000004
    10  H   -0.000000   0.000000   0.000008   0.007968   0.000053
    11  H   -0.000076  -0.000000   0.000004   0.000053  -0.019006
 Mulliken charges and spin densities:
               1          2
     1  C   -0.344119   0.464487
     2  C   -0.092092  -0.292654
     3  C   -0.061515   0.738092
     4  C   -0.092092  -0.292654
     5  C   -0.344119   0.464487
     6  H    0.381772  -0.023684
     7  H    0.342142  -0.022527
     8  H    0.291921   0.008597
     9  H    0.284038  -0.030212
    10  H    0.291921   0.008597
    11  H    0.342142  -0.022527
 Sum of Mulliken charges =   1.00000   1.00000
 Mulliken charges and spin densities with hydrogens summed into heavy atoms:
               1          2
     1  C    0.379796   0.418275
     2  C    0.199829  -0.284057
     3  C    0.222523   0.707879
     4  C    0.199829  -0.284057
     5  C   -0.001976   0.441959
 Electronic spatial extent (au):  <R**2>=            317.8220
 Charge=              1.0000 electrons
 Dipole moment (field-independent basis, Debye):
    X=             -0.0000    Y=             -0.0000    Z=             -2.0444  Tot=              2.0444
 Quadrupole moment (field-independent basis, Debye-Ang):
   XX=            -30.8641   YY=            -17.0042   ZZ=            -12.6840
   XY=              0.0000   XZ=              0.0000   YZ=              0.0000
 Traceless Quadrupole moment (field-independent basis, Debye-Ang):
   XX=            -10.6800   YY=              3.1799   ZZ=              7.5001
   XY=              0.0000   XZ=              0.0000   YZ=              0.0000
 Octapole moment (field-independent basis, Debye-Ang**2):
  XXX=              0.0000  YYY=              0.0000  ZZZ=             -7.5848  XYY=             -0.0000
  XXY=              0.0000  XXZ=              0.6538  XZZ=              0.0000  YZZ=             -0.0000
  YYZ=             -2.7170  XYZ=             -0.0000
 Hexadecapole moment (field-independent basis, Debye-Ang**3):
 XXXX=            -30.3736 YYYY=           -140.1768 ZZZZ=           -121.0887 XXXY=             -0.0000
 XXXZ=             -0.0000 YYYX=             -0.0000 YYYZ=              0.0000 ZZZX=              0.0000
 ZZZY=              0.0000 XXYY=            -41.4367 XXZZ=            -38.0394 YYZZ=            -41.2814
 XXYZ=              0.0000 YYXZ=             -0.0000 ZZXY=             -0.0000
 N-N= 1.560127424860D+02 E-N=-7.526278299870D+02  KE= 1.929298977882D+02
 Symmetry A1   KE= 1.114747084616D+02
 Symmetry A2   KE= 2.556541008028D+00
 Symmetry B1   KE= 3.295643744142D+00
 Symmetry B2   KE= 7.560300457439D+01
 Symmetry A1   SP= 1.410263947993D-14
 Symmetry A2   SP=-2.096955421804D-15
 Symmetry B1   SP= 1.000000000000D+00
 Symmetry B2   SP= 3.859611333876D-14
                          Isotropic Fermi Contact Couplings
        Atom                 a.u.       MegaHertz       Gauss      10(-4) cm-1
     1  C(13)              0.07463      83.89760      29.93675      27.98523
     2  C(13)             -0.05233     -58.82492     -20.99020     -19.62188
     3  C(13)              0.11039     124.09643      44.28069      41.39411
     4  C(13)             -0.05233     -58.82492     -20.99020     -19.62188
     5  C(13)              0.07463      83.89760      29.93675      27.98523
     6  H(1)              -0.00899     -40.19840     -14.34379     -13.40874
     7  H(1)              -0.00977     -43.69129     -15.59014     -14.57385
     8  H(1)               0.00348      15.53467       5.54316       5.18181
     9  H(1)              -0.01381     -61.71609     -22.02184     -20.58627
    10  H(1)               0.00348      15.53467       5.54316       5.18181
    11  H(1)              -0.00977     -43.69129     -15.59014     -14.57385
 --------------------------------------------------------
       Center         ----  Spin Dipole Couplings  ----
                      3XX-RR        3YY-RR        3ZZ-RR
 --------------------------------------------------------
     1   Atom        0.485604     -0.236502     -0.249102
     2   Atom       -0.194967      0.095539      0.099428
     3   Atom        0.703630     -0.359583     -0.344047
     4   Atom       -0.194967      0.095539      0.099428
     5   Atom        0.485604     -0.236502     -0.249102
     6   Atom       -0.008054      0.007810      0.000244
     7   Atom       -0.006606      0.006822     -0.000216
     8   Atom       -0.006221     -0.001079      0.007300
     9   Atom       -0.008543     -0.045798      0.054341
    10   Atom       -0.006221     -0.001079      0.007300
    11   Atom       -0.006606      0.006822     -0.000216
 --------------------------------------------------------
                        XY            XZ            YZ
 --------------------------------------------------------
     1   Atom       -0.000000      0.000000     -0.008219
     2   Atom       -0.000000      0.000000     -0.005337
     3   Atom       -0.000000     -0.000000      0.000000
     4   Atom       -0.000000     -0.000000      0.005337
     5   Atom        0.000000      0.000000      0.008219
     6   Atom       -0.000000      0.000000     -0.000000
     7   Atom        0.000000      0.000000     -0.035282
     8   Atom       -0.000000      0.000000     -0.006213
     9   Atom       -0.000000     -0.000000     -0.000000
    10   Atom        0.000000     -0.000000      0.006213
    11   Atom       -0.000000     -0.000000      0.035282
 --------------------------------------------------------


 ---------------------------------------------------------------------------------
              Anisotropic Spin Dipole Couplings in Principal Axis System
 ---------------------------------------------------------------------------------

       Atom             a.u.   MegaHertz   Gauss  10(-4) cm-1        Axes

              Baa    -0.2532   -33.971   -12.122   -11.332 -0.0000  0.4425  0.8967
     1 C(13)  Bbb    -0.2324   -31.192   -11.130   -10.405 -0.0000  0.8967 -0.4425
              Bcc     0.4856    65.163    23.252    21.736  1.0000  0.0000  0.0000
 
              Baa    -0.1950   -26.163    -9.336    -8.727  1.0000  0.0000  0.0000
     2 C(13)  Bbb     0.0918    12.319     4.396     4.109 -0.0000  0.8192  0.5734
              Bcc     0.1032    13.844     4.940     4.618  0.0000 -0.5734  0.8192
 
              Baa    -0.3596   -48.253   -17.218   -16.095  0.0000  1.0000  0.0000
     3 C(13)  Bbb    -0.3440   -46.168   -16.474   -15.400  0.0000  0.0000  1.0000
              Bcc     0.7036    94.420    33.692    31.495  1.0000 -0.0000  0.0000
 
              Baa    -0.1950   -26.163    -9.336    -8.727  1.0000  0.0000  0.0000
     4 C(13)  Bbb     0.0918    12.319     4.396     4.109 -0.0000  0.8192 -0.5734
              Bcc     0.1032    13.844     4.940     4.618 -0.0000  0.5734  0.8192
 
              Baa    -0.2532   -33.971   -12.122   -11.332 -0.0000 -0.4425  0.8967
     5 C(13)  Bbb    -0.2324   -31.192   -11.130   -10.405  0.0000  0.8967  0.4425
              Bcc     0.4856    65.163    23.252    21.736  1.0000 -0.0000  0.0000
 
              Baa    -0.0081    -4.297    -1.533    -1.433  1.0000  0.0000 -0.0000
     6 H(1)   Bbb     0.0002     0.130     0.047     0.044  0.0000  0.0000  1.0000
              Bcc     0.0078     4.167     1.487     1.390 -0.0000  1.0000 -0.0000
 
              Baa    -0.0322   -17.156    -6.122    -5.723 -0.0000  0.6711  0.7414
     7 H(1)   Bbb    -0.0066    -3.525    -1.258    -1.176  1.0000  0.0000  0.0000
              Bcc     0.0388    20.681     7.379     6.898 -0.0000  0.7414 -0.6711
 
              Baa    -0.0062    -3.319    -1.184    -1.107  1.0000  0.0000  0.0000
     8 H(1)   Bbb    -0.0044    -2.338    -0.834    -0.780 -0.0000  0.8829  0.4695
              Bcc     0.0106     5.658     2.019     1.887  0.0000 -0.4695  0.8829
 
              Baa    -0.0458   -24.436    -8.719    -8.151  0.0000  1.0000 -0.0000
     9 H(1)   Bbb    -0.0085    -4.558    -1.627    -1.520  1.0000 -0.0000  0.0000
              Bcc     0.0543    28.994    10.346     9.671  0.0000  0.0000  1.0000
 
              Baa    -0.0062    -3.319    -1.184    -1.107  1.0000 -0.0000  0.0000
    10 H(1)   Bbb    -0.0044    -2.338    -0.834    -0.780  0.0000  0.8829 -0.4695
              Bcc     0.0106     5.658     2.019     1.887  0.0000  0.4695  0.8829
 
              Baa    -0.0322   -17.156    -6.122    -5.723  0.0000 -0.6711  0.7414
    11 H(1)   Bbb    -0.0066    -3.525    -1.258    -1.176  1.0000  0.0000  0.0000
              Bcc     0.0388    20.681     7.379     6.898 -0.0000  0.7414  0.6711
 

 ---------------------------------------------------------------------------------

 No NMR shielding tensors so no spin-rotation constants.
 Leave Link  601 at Thu Mar  5 12:53:30 2020, MaxMem=  6710886400 cpu:               3.0 elap:               0.2
 (Enter /opt/ohpc/pub/libs/gaussian/g16-A.03/sandybridge/g16/l9999.exe)

 Test job not archived.
 1\1\GINC-CNODE212\SP\ULC-wHPBE\6-31G\C5H6(1+,2)\SMGO234\05-Mar-2020\0\
 \#P uLC-wHPBE/6-31G iop(3/130=0243900000, 3/131=0243900000, 3/119=0756
 100000, 3/120=0756100000) scf=(conver=6,fermi,ndamp=35,noincfock,novar
 acc,vshift=500,xqc)\\H6 C5\\1,2\C,0,0.,0.878804,-0.931542\C,0,0.,1.128
 157,0.423457\C,0,0.,0.,1.240879\C,0,0.,-1.128157,0.423457\C,0,0.,-0.87
 8804,-0.931542\H,0,0.,0.,-1.732269\H,0,0.,1.6083,-1.734053\H,0,0.,2.15
 6626,0.76567\H,0,0.,0.,2.320778\H,0,0.,-2.156626,0.76567\H,0,0.,-1.608
 3,-1.734053\\Version=EM64L-G16RevA.03\State=2-B1\HF=-196.9670737\S2=0.
 815351\S2-1=0.\S2A=0.752422\RMSD=6.467e-07\Dipole=0.,0.,-0.8043213\Qua
 drupole=-7.9403172,2.3641793,5.576138,0.,0.,0.\PG=C02V [C2(H1C1H1),SGV
 (C4H4)]\\@


 THE DIFFICULTY IN SCIENCE IS OFTEN NOT SO MUCH HOW
 TO MAKE A DISCOVERY BUT RATHER TO KNOW ONE HAS MADE IT.

                                                   -- J. D. BERNAL
 Job cpu time:       0 days  0 hours  1 minutes  3.0 seconds.
 Elapsed time:       0 days  0 hours  0 minutes  4.3 seconds.
 File lengths (MBytes):  RWF=    272 Int=      0 D2E=      0 Chk=     32 Scr=     32
 Normal termination of Gaussian 16 at Thu Mar  5 12:53:30 2020.
