 Entering Gaussian System, Link 0=g16
 Input=a1b_tune_c6.gjf
 Output=a1b_tune_c6.log
 Initial command:
 /opt/ohpc/pub/libs/gaussian/g16-A.03/sandybridge/g16/l1.exe "/scratch/smgo234/Ocelot/test/a1b/tuning_a1b_acycle1/Gau-80525.inp" -scrdir="/scratch/smgo234/Ocelot/test/a1b/tuning_a1b_acycle1/"
 Entering Link 1 = /opt/ohpc/pub/libs/gaussian/g16-A.03/sandybridge/g16/l1.exe PID=     80526.
  
 Copyright (c) 1988,1990,1992,1993,1995,1998,2003,2009,2016,
            Gaussian, Inc.  All Rights Reserved.
  
 This is part of the Gaussian(R) 16 program.  It is based on
 the Gaussian(R) 09 system (copyright 2009, Gaussian, Inc.),
 the Gaussian(R) 03 system (copyright 2003, Gaussian, Inc.),
 the Gaussian(R) 98 system (copyright 1998, Gaussian, Inc.),
 the Gaussian(R) 94 system (copyright 1995, Gaussian, Inc.),
 the Gaussian 92(TM) system (copyright 1992, Gaussian, Inc.),
 the Gaussian 90(TM) system (copyright 1990, Gaussian, Inc.),
 the Gaussian 88(TM) system (copyright 1988, Gaussian, Inc.),
 the Gaussian 86(TM) system (copyright 1986, Carnegie Mellon
 University), and the Gaussian 82(TM) system (copyright 1983,
 Carnegie Mellon University). Gaussian is a federally registered
 trademark of Gaussian, Inc.
  
 This software contains proprietary and confidential information,
 including trade secrets, belonging to Gaussian, Inc.
  
 This software is provided under written license and may be
 used, copied, transmitted, or stored only in accord with that
 written license.
  
 The following legend is applicable only to US Government
 contracts under FAR:
  
                    RESTRICTED RIGHTS LEGEND
  
 Use, reproduction and disclosure by the US Government is
 subject to restrictions as set forth in subparagraphs (a)
 and (c) of the Commercial Computer Software - Restricted
 Rights clause in FAR 52.227-19.
  
 Gaussian, Inc.
 340 Quinnipiac St., Bldg. 40, Wallingford CT 06492
  
  
 ---------------------------------------------------------------
 Warning -- This program may not be used in any manner that
 competes with the business of Gaussian, Inc. or will provide
 assistance to any competitor of Gaussian, Inc.  The licensee
 of this program is prohibited from giving any competitor of
 Gaussian, Inc. access to this program.  By using this program,
 the user acknowledges that Gaussian, Inc. is engaged in the
 business of creating and licensing software in the field of
 computational chemistry and represents and warrants to the
 licensee that it is not a competitor of Gaussian, Inc. and that
 it will not use this program in any manner prohibited above.
 ---------------------------------------------------------------
  

 Cite this work as:
 Gaussian 16, Revision A.03,
 M. J. Frisch, G. W. Trucks, H. B. Schlegel, G. E. Scuseria, 
 M. A. Robb, J. R. Cheeseman, G. Scalmani, V. Barone, 
 G. A. Petersson, H. Nakatsuji, X. Li, M. Caricato, A. V. Marenich, 
 J. Bloino, B. G. Janesko, R. Gomperts, B. Mennucci, H. P. Hratchian, 
 J. V. Ortiz, A. F. Izmaylov, J. L. Sonnenberg, D. Williams-Young, 
 F. Ding, F. Lipparini, F. Egidi, J. Goings, B. Peng, A. Petrone, 
 T. Henderson, D. Ranasinghe, V. G. Zakrzewski, J. Gao, N. Rega, 
 G. Zheng, W. Liang, M. Hada, M. Ehara, K. Toyota, R. Fukuda, 
 J. Hasegawa, M. Ishida, T. Nakajima, Y. Honda, O. Kitao, H. Nakai, 
 T. Vreven, K. Throssell, J. A. Montgomery, Jr., J. E. Peralta, 
 F. Ogliaro, M. J. Bearpark, J. J. Heyd, E. N. Brothers, K. N. Kudin, 
 V. N. Staroverov, T. A. Keith, R. Kobayashi, J. Normand, 
 K. Raghavachari, A. P. Rendell, J. C. Burant, S. S. Iyengar, 
 J. Tomasi, M. Cossi, J. M. Millam, M. Klene, C. Adamo, R. Cammi, 
 J. W. Ochterski, R. L. Martin, K. Morokuma, O. Farkas, 
 J. B. Foresman, and D. J. Fox, Gaussian, Inc., Wallingford CT, 2016.
 
 ******************************************
 Gaussian 16:  EM64L-G16RevA.03 25-Dec-2016
                 5-Mar-2020 
 ******************************************
 %mem=50GB
 %nproc=16
 Will use up to   16 processors via shared memory.
 ----------------------------------------------------------------------
 #P uLC-wHPBE/6-31G iop(3/130=0245600000, 3/131=0245600000, 3/119=07544
 00000, 3/120=0754400000) scf=(conver=6,fermi,ndamp=35,noincfock,novara
 cc,vshift=500,xqc)
 ----------------------------------------------------------------------
 1/38=1,172=1/1;
 2/12=2,17=6,18=5,40=1/2;
 3/5=1,6=6,11=2,25=1,30=1,74=-71,116=2,119=754400000,120=754400000,130=245600000,131=245600000/1,2,3;
 4//1;
 5/5=100002,6=6,8=3,10=500,13=1,18=-1,22=13,38=1,93=35/2,8;
 6/7=2,8=2,9=2,10=2,28=1/1;
 99/5=1,9=1/99;
 Leave Link    1 at Thu Mar  5 12:52:30 2020, MaxMem=  6710886400 cpu:              18.1 elap:               1.2
 (Enter /opt/ohpc/pub/libs/gaussian/g16-A.03/sandybridge/g16/l101.exe)
 -----
 H6 C5
 -----
 Symbolic Z-matrix:
 Charge =  1 Multiplicity = 2
 C                     0.        0.8788   -0.93154 
 C                     0.        1.12816   0.42346 
 C                     0.        0.        1.24088 
 C                     0.       -1.12816   0.42346 
 C                     0.       -0.8788   -0.93154 
 H                     0.        0.       -1.73227 
 H                     0.        1.6083   -1.73405 
 H                     0.        2.15663   0.76567 
 H                     0.        0.        2.32078 
 H                     0.       -2.15663   0.76567 
 H                     0.       -1.6083   -1.73405 
 
 ITRead=  0  0  0  0  0  0  0  0  0  0  0
 MicOpt= -1 -1 -1 -1 -1 -1 -1 -1 -1 -1 -1
 NAtoms=     11 NQM=       11 NQMF=       0 NMMI=      0 NMMIF=      0
                NMic=       0 NMicF=      0.
                    Isotopes and Nuclear Properties:
 (Nuclear quadrupole moments (NQMom) in fm**2, nuclear magnetic moments (NMagM)
  in nuclear magnetons)

  Atom         1           2           3           4           5           6           7           8           9          10
 IAtWgt=          12          12          12          12          12           1           1           1           1           1
 AtmWgt=  12.0000000  12.0000000  12.0000000  12.0000000  12.0000000   1.0078250   1.0078250   1.0078250   1.0078250   1.0078250
 NucSpn=           0           0           0           0           0           1           1           1           1           1
 AtZEff=  -0.0000000  -0.0000000  -0.0000000  -0.0000000  -0.0000000  -0.0000000  -0.0000000  -0.0000000  -0.0000000  -0.0000000
 NQMom=    0.0000000   0.0000000   0.0000000   0.0000000   0.0000000   0.0000000   0.0000000   0.0000000   0.0000000   0.0000000
 NMagM=    0.0000000   0.0000000   0.0000000   0.0000000   0.0000000   2.7928460   2.7928460   2.7928460   2.7928460   2.7928460
 AtZNuc=   6.0000000   6.0000000   6.0000000   6.0000000   6.0000000   1.0000000   1.0000000   1.0000000   1.0000000   1.0000000

  Atom        11
 IAtWgt=           1
 AtmWgt=   1.0078250
 NucSpn=           1
 AtZEff=  -0.0000000
 NQMom=    0.0000000
 NMagM=    2.7928460
 AtZNuc=   1.0000000
 Leave Link  101 at Thu Mar  5 12:52:30 2020, MaxMem=  6710886400 cpu:               3.0 elap:               0.2
 (Enter /opt/ohpc/pub/libs/gaussian/g16-A.03/sandybridge/g16/l202.exe)
                          Input orientation:                          
 ---------------------------------------------------------------------
 Center     Atomic      Atomic             Coordinates (Angstroms)
 Number     Number       Type             X           Y           Z
 ---------------------------------------------------------------------
      1          6           0        0.000000    0.878804   -0.931542
      2          6           0        0.000000    1.128157    0.423457
      3          6           0        0.000000    0.000000    1.240879
      4          6           0        0.000000   -1.128157    0.423457
      5          6           0        0.000000   -0.878804   -0.931542
      6          1           0        0.000000    0.000000   -1.732269
      7          1           0        0.000000    1.608300   -1.734053
      8          1           0        0.000000    2.156626    0.765670
      9          1           0        0.000000    0.000000    2.320778
     10          1           0        0.000000   -2.156626    0.765670
     11          1           0        0.000000   -1.608300   -1.734053
 ---------------------------------------------------------------------
                    Distance matrix (angstroms):
                    1          2          3          4          5
     1  C    0.000000
     2  C    1.377752   0.000000
     3  C    2.343440   1.393168   0.000000
     4  C    2.421552   2.256314   1.393168   0.000000
     5  C    1.757608   2.421552   2.343440   1.377752   0.000000
     6  H    1.188890   2.433083   2.973148   2.433083   1.188890
     7  H    1.084522   2.210291   3.381841   3.484687   2.613371
     8  H    2.124466   1.083909   2.208361   3.302561   3.477695
     9  H    3.368959   2.207389   1.079899   2.207389   3.368959
    10  H    3.477695   3.302561   2.208361   1.083909   2.124466
    11  H    2.613371   3.484687   3.381841   2.210291   1.084522
                    6          7          8          9         10
     6  H    0.000000
     7  H    1.608301   0.000000
     8  H    3.300111   2.559155   0.000000
     9  H    4.053047   4.362142   2.658834   0.000000
    10  H    3.300111   4.519213   4.313252   2.658834   0.000000
    11  H    1.608301   3.216600   4.519213   4.362142   2.559155
                   11
    11  H    0.000000
 Stoichiometry    C5H6(1+,2)
 Framework group  C2V[C2(HCH),SGV(C4H4)]
 Deg. of freedom    10
 Full point group                 C2V     NOp   4
 Largest Abelian subgroup         C2V     NOp   4
 Largest concise Abelian subgroup C2      NOp   2
                         Standard orientation:                         
 ---------------------------------------------------------------------
 Center     Atomic      Atomic             Coordinates (Angstroms)
 Number     Number       Type             X           Y           Z
 ---------------------------------------------------------------------
      1          6           0        0.000000    0.878804   -0.931542
      2          6           0        0.000000    1.128157    0.423457
      3          6           0        0.000000   -0.000000    1.240879
      4          6           0       -0.000000   -1.128157    0.423457
      5          6           0       -0.000000   -0.878804   -0.931542
      6          1           0       -0.000000    0.000000   -1.732269
      7          1           0        0.000000    1.608300   -1.734053
      8          1           0        0.000000    2.156626    0.765670
      9          1           0        0.000000   -0.000000    2.320778
     10          1           0       -0.000000   -2.156626    0.765670
     11          1           0       -0.000000   -1.608300   -1.734053
 ---------------------------------------------------------------------
 Rotational constants (GHZ):           8.5259551           7.9375455           4.1106177
 Leave Link  202 at Thu Mar  5 12:52:30 2020, MaxMem=  6710886400 cpu:               0.3 elap:               0.0
 (Enter /opt/ohpc/pub/libs/gaussian/g16-A.03/sandybridge/g16/l301.exe)
 Standard basis: 6-31G (6D, 7F)
 Ernie: Thresh=  0.10000D-02 Tol=  0.10000D-05 Strict=F.
 There are    27 symmetry adapted cartesian basis functions of A1  symmetry.
 There are     4 symmetry adapted cartesian basis functions of A2  symmetry.
 There are     6 symmetry adapted cartesian basis functions of B1  symmetry.
 There are    20 symmetry adapted cartesian basis functions of B2  symmetry.
 There are    27 symmetry adapted basis functions of A1  symmetry.
 There are     4 symmetry adapted basis functions of A2  symmetry.
 There are     6 symmetry adapted basis functions of B1  symmetry.
 There are    20 symmetry adapted basis functions of B2  symmetry.
    57 basis functions,   134 primitive gaussians,    57 cartesian basis functions
    18 alpha electrons       17 beta electrons
       nuclear repulsion energy       156.0127424860 Hartrees.
 IExCor=33909 DFT=T Ex+Corr=LC-wHPBE ExCW=0 ScaHFX=  1.000000
 ScaDFX=  1.000000  1.000000  1.000000  1.000000 ScalE2=  1.000000  1.000000
 IRadAn=      5 IRanWt=     -1 IRanGd=            0 ICorTp=0 IEmpDi=  4
 HFx  wShort=  0.000000 wLong=  0.400000 cFull=  0.000000 cShort=  0.000000 cLong=  0.754400
 DFx  wShort=  0.000000 wLong=  0.400000 cFull=  0.000000 cShort=  1.000000 cLong=  0.754400
 NAtoms=   11 NActive=   11 NUniq=    7 SFac= 2.47D+00 NAtFMM=   60 NAOKFM=F Big=F
 Integral buffers will be    131072 words long.
 Raffenetti 2 integral format.
 Two-electron integral symmetry is turned on.
 Leave Link  301 at Thu Mar  5 12:52:30 2020, MaxMem=  6710886400 cpu:               0.9 elap:               0.1
 (Enter /opt/ohpc/pub/libs/gaussian/g16-A.03/sandybridge/g16/l302.exe)
 NPDir=0 NMtPBC=     1 NCelOv=     1 NCel=       1 NClECP=     1 NCelD=      1
         NCelK=      1 NCelE2=     1 NClLst=     1 CellRange=     0.0.
 One-electron integrals computed using PRISM.
 One-electron integral symmetry used in STVInt
 NBasis=    57 RedAO= T EigKep=  1.84D-03  NBF=    27     4     6    20
 NBsUse=    57 1.00D-06 EigRej= -1.00D+00 NBFU=    27     4     6    20
 Precomputing XC quadrature grid using
 IXCGrd= 4 IRadAn=           5 IRanWt=          -1 IRanGd=           0 AccXCQ= 0.00D+00.
 Generated NRdTot=       0 NPtTot=           0 NUsed=           0 NTot=          32
 NSgBfM=    57    57    57    57    57 MxSgAt=    11 MxSgA2=    11.
 Leave Link  302 at Thu Mar  5 12:52:31 2020, MaxMem=  6710886400 cpu:               1.9 elap:               0.1
 (Enter /opt/ohpc/pub/libs/gaussian/g16-A.03/sandybridge/g16/l303.exe)
 DipDrv:  MaxL=1.
 Leave Link  303 at Thu Mar  5 12:52:31 2020, MaxMem=  6710886400 cpu:               0.4 elap:               0.0
 (Enter /opt/ohpc/pub/libs/gaussian/g16-A.03/sandybridge/g16/l401.exe)
 ExpMin= 1.61D-01 ExpMax= 3.05D+03 ExpMxC= 4.57D+02 IAcc=3 IRadAn=         5 AccDes= 0.00D+00
 Harris functional with IExCor=33909 and IRadAn=       5 diagonalized for initial guess.
 HarFok:  IExCor=33909 AccDes= 0.00D+00 IRadAn=         5 IDoV= 1 UseB2=F ITyADJ=14
 ICtDFT=  3500011 ScaDFX=  1.000000  1.000000  1.000000  1.000000
 FoFCou: FMM=F IPFlag=           0 FMFlag=      100000 FMFlg1=           0
         NFxFlg=           0 DoJE=T BraDBF=F KetDBF=T FulRan=T
         wScrn=  0.000000 ICntrl=       500 IOpCl=  0 I1Cent=   200000004 NGrid=           0
         NMat0=    1 NMatS0=      1 NMatT0=    0 NMatD0=    1 NMtDS0=    0 NMtDT0=    0
 Petite list used in FoFCou.
 Harris En= -191.810594004496    
 JPrj=0 DoOrth=F DoCkMO=F.
 Initial guess orbital symmetries:
 Alpha Orbitals:
       Occupied  (A1) (B2) (A1) (B2) (A1) (A1) (A1) (B2) (A1) (B2)
                 (A1) (B2) (A1) (B2) (A1) (B1) (A2) (B1)
       Virtual   (A2) (B2) (B1) (A1) (A1) (B2) (A1) (B2) (A1) (B2)
                 (A1) (B2) (A1) (B2) (B1) (A1) (A2) (B1) (B2) (A1)
                 (A1) (A2) (B1) (B2) (B2) (A1) (B2) (A1) (A1) (B2)
                 (A1) (A1) (A1) (B2) (A1) (B2) (A1) (A1) (B2)
 Beta  Orbitals:
       Occupied  (A1) (B2) (A1) (B2) (A1) (A1) (A1) (B2) (A1) (B2)
                 (A1) (B2) (A1) (B2) (A1) (B1) (A2)
       Virtual   (B1) (A2) (B2) (B1) (A1) (A1) (B2) (A1) (B2) (A1)
                 (B2) (A1) (B2) (A1) (B2) (B1) (A1) (A2) (B1) (B2)
                 (A1) (A1) (A2) (B1) (B2) (B2) (A1) (B2) (A1) (A1)
                 (B2) (A1) (A1) (A1) (B2) (A1) (B2) (A1) (A1) (B2)
 The electronic state of the initial guess is 2-B1.
 Initial guess <Sx>= 0.0000 <Sy>= 0.0000 <Sz>= 0.5000 <S**2>= 0.7500 S= 0.5000
 Leave Link  401 at Thu Mar  5 12:52:31 2020, MaxMem=  6710886400 cpu:               3.2 elap:               0.2
 (Enter /opt/ohpc/pub/libs/gaussian/g16-A.03/sandybridge/g16/l502.exe)
 Keep R1 and R2 ints in memory in symmetry-blocked form, NReq=16815681.
 FoFCou: FMM=F IPFlag=           0 FMFlag=           0 FMFlg1=           0
         NFxFlg=           0 DoJE=F BraDBF=F KetDBF=F FulRan=T
         wScrn=  0.000000 ICntrl=       600 IOpCl=  0 I1Cent=           0 NGrid=           0
         NMat0=    1 NMatS0=   1653 NMatT0=    0 NMatD0=    1 NMtDS0=    0 NMtDT0=    0
 Petite list used in FoFCou.
 UHF open shell SCF:
 Using DIIS extrapolation, IDIIS=    10.
 NGot=  6710886400 LenX=  6710059561 LenY=  6710055871
 Requested convergence on RMS density matrix=1.00D-06 within  32 cycles.
 Requested convergence on MAX density matrix=1.00D-04.
 Requested convergence on             energy=1.00D-04.
 Virtual orbitals will be shifted by   0.500 hartree.
 No special actions if energy rises.
 Dynamic level shift is on during FON iterations.

 Cycle   1  Pass 1  IDiag  1:
 E= -196.877867441467    
 DIIS: error= 4.84D-02 at cycle   1 NSaved=   1.
 NSaved= 1 IEnMin= 1 EnMin= -196.877867441467     IErMin= 1 ErrMin= 4.84D-02
 ErrMax= 4.84D-02  0.00D+00 EMaxC= 1.00D+00 BMatC= 1.95D-01 BMatP= 1.95D-01
 IDIUse=1 WtCom= 1.00D+00 WtEn= 0.00D+00
 Coeff-Com:  0.100D+01
 Coeff:      0.100D+01
 Gap=     0.326 Goal=   None    Shift=    0.500
 T= 1783. Gap= 0.799 NK=0 IS=   19 IE=   57 IFin=   18
          NO(<0.9)=   0  NV(>0.1)=   0     18.00e < EF      0.00e >EF  Err=0.0D+00
 Gap=     0.202 Goal=   None    Shift=    0.500
 T= 1783. Gap= 0.705 NK=0 IS=   18 IE=   57 IFin=   17
          NO(<0.9)=   0  NV(>0.1)=   0     17.00e < EF      0.00e >EF  Err=0.0D+00
 GapD=    0.202 DampG=1.000 DampE=0.500 DampFc=0.5000 IDamp=-1.
 Damping current iteration by 5.00D-01
 RMSDP=6.98D-03 MaxDP=5.29D-02              OVMax= 1.06D-01

 Cycle   2  Pass 1  IDiag  1:
 E= -196.915660451928     Delta-E=       -0.037793010461 Rises=F Damp=T
 DIIS: error= 2.27D-02 at cycle   2 NSaved=   2.
 NSaved= 2 IEnMin= 2 EnMin= -196.915660451928     IErMin= 2 ErrMin= 2.27D-02
 ErrMax= 2.27D-02  0.00D+00 EMaxC= 1.00D+00 BMatC= 3.29D-02 BMatP= 1.95D-01
 IDIUse=1 WtCom= 1.00D+00 WtEn= 0.00D+00
 Coeff-Com: -0.522D+00 0.152D+01
 Coeff:     -0.522D+00 0.152D+01
 Gap=     0.396 Goal=   None    Shift=    0.500
 T= 1666. Gap= 0.882 NK=4 IS=   19 IE=   23 IFin=   18
          NO(<0.9)=   0  NV(>0.1)=   0     18.00e < EF      0.00e >EF  Err=0.0D+00
 Gap=     0.231 Goal=   None    Shift=    0.500
 T= 1666. Gap= 0.729 NK=4 IS=   18 IE=   23 IFin=   17
          NO(<0.9)=   0  NV(>0.1)=   0     17.00e < EF      0.00e >EF  Err=0.0D+00
 GapD=    0.231 DampG=1.000 DampE=0.500 DampFc=0.5000 IDamp=-1.
 Damping current iteration by 5.00D-01
 RMSDP=4.18D-03 MaxDP=3.23D-02 DE=-3.78D-02 OVMax= 1.72D-02

 Cycle   3  Pass 1  IDiag  1:
 E= -196.928827734335     Delta-E=       -0.013167282407 Rises=F Damp=T
 DIIS: error= 1.28D-02 at cycle   3 NSaved=   3.
 NSaved= 3 IEnMin= 3 EnMin= -196.928827734335     IErMin= 3 ErrMin= 1.28D-02
 ErrMax= 1.28D-02  0.00D+00 EMaxC= 1.00D+00 BMatC= 7.54D-03 BMatP= 3.29D-02
 IDIUse=1 WtCom= 1.00D+00 WtEn= 0.00D+00
 Coeff-Com:  0.318D+00-0.177D+01 0.245D+01
 Coeff:      0.318D+00-0.177D+01 0.245D+01
 Gap=     0.385 Goal=   None    Shift=    0.500
 T= 1454. Gap= 0.885 NK=0 IS=   19 IE=   57 IFin=   18
          NO(<0.9)=   0  NV(>0.1)=   0     18.00e < EF      0.00e >EF  Err=0.0D+00
 Gap=     0.235 Goal=   None    Shift=    0.500
 T= 1454. Gap= 0.735 NK=0 IS=   18 IE=   57 IFin=   17
          NO(<0.9)=   0  NV(>0.1)=   0     17.00e < EF      0.00e >EF  Err=0.0D+00
 GapD=    0.235 DampG=1.000 DampE=0.500 DampFc=0.5000 IDamp=-1.
 Damping current iteration by 5.00D-01
 RMSDP=2.30D-03 MaxDP=1.87D-02 DE=-1.32D-02 OVMax= 1.55D-02

 Cycle   4  Pass 1  IDiag  1:
 E= -196.935051144497     Delta-E=       -0.006223410163 Rises=F Damp=T
 DIIS: error= 8.10D-03 at cycle   4 NSaved=   4.
 NSaved= 4 IEnMin= 4 EnMin= -196.935051144497     IErMin= 4 ErrMin= 8.10D-03
 ErrMax= 8.10D-03  0.00D+00 EMaxC= 1.00D+00 BMatC= 2.63D-03 BMatP= 7.54D-03
 IDIUse=1 WtCom= 1.00D+00 WtEn= 0.00D+00
 Coeff-Com:  0.289D-01 0.674D+00-0.344D+01 0.374D+01
 Coeff:      0.289D-01 0.674D+00-0.344D+01 0.374D+01
 Gap=     0.390 Goal=   None    Shift=    0.500
 T= 1061. Gap= 0.890 NK=0 IS=   19 IE=   57 IFin=   18
          NO(<0.9)=   0  NV(>0.1)=   0     18.00e < EF      0.00e >EF  Err=0.0D+00
 Gap=     0.240 Goal=   None    Shift=    0.500
 T= 1061. Gap= 0.740 NK=0 IS=   18 IE=   57 IFin=   17
          NO(<0.9)=   0  NV(>0.1)=   0     17.00e < EF      0.00e >EF  Err=0.0D+00
 GapD=    0.240 DampG=1.000 DampE=1.000 DampFc=1.0000 IDamp=-1.
 RMSDP=1.45D-03 MaxDP=1.52D-02 DE=-6.22D-03 OVMax= 1.46D-02

 Cycle   5  Pass 1  IDiag  1:
 E= -196.942313626834     Delta-E=       -0.007262482337 Rises=F Damp=F
 DIIS: error= 3.84D-03 at cycle   5 NSaved=   5.
 NSaved= 5 IEnMin= 5 EnMin= -196.942313626834     IErMin= 5 ErrMin= 3.84D-03
 ErrMax= 3.84D-03  0.00D+00 EMaxC= 1.00D+00 BMatC= 4.33D-04 BMatP= 2.63D-03
 IDIUse=1 WtCom= 1.00D+00 WtEn= 0.00D+00
 Coeff-Com: -0.175D+00 0.902D+00-0.804D+00-0.810D+00 0.189D+01
 Coeff:     -0.175D+00 0.902D+00-0.804D+00-0.810D+00 0.189D+01
 Gap=     0.392 Goal=   None    Shift=    0.500
 T=  721. Gap= 0.893 NK=0 IS=   19 IE=   57 IFin=   18
          NO(<0.9)=   0  NV(>0.1)=   0     18.00e < EF      0.00e >EF  Err=0.0D+00
 Gap=     0.244 Goal=   None    Shift=    0.500
 T=  721. Gap= 0.744 NK=0 IS=   18 IE=   57 IFin=   17
          NO(<0.9)=   0  NV(>0.1)=   0     17.00e < EF      0.00e >EF  Err=0.0D+00
 GapD=    0.244 DampG=1.000 DampE=1.000 DampFc=1.0000 IDamp=-1.
 RMSDP=4.28D-04 MaxDP=6.85D-03 DE=-7.26D-03 OVMax= 1.43D-02

 Cycle   6  Pass 1  IDiag  1:
 E= -196.942929493521     Delta-E=       -0.000615866686 Rises=F Damp=F
 DIIS: error= 3.07D-03 at cycle   6 NSaved=   6.
 NSaved= 6 IEnMin= 6 EnMin= -196.942929493521     IErMin= 6 ErrMin= 3.07D-03
 ErrMax= 3.07D-03  0.00D+00 EMaxC= 1.00D+00 BMatC= 2.00D-04 BMatP= 4.33D-04
 IDIUse=1 WtCom= 1.00D+00 WtEn= 0.00D+00
 Coeff-Com: -0.668D-02-0.226D+00 0.761D+00-0.565D+00-0.163D+01 0.266D+01
 Coeff:     -0.668D-02-0.226D+00 0.761D+00-0.565D+00-0.163D+01 0.266D+01
 Gap=     0.395 Goal=   None    Shift=    0.500
 T=  422. Gap= 0.895 NK=0 IS=   19 IE=   57 IFin=   18
          NO(<0.9)=   0  NV(>0.1)=   0     18.00e < EF      0.00e >EF  Err=0.0D+00
 Gap=     0.246 Goal=   None    Shift=    0.500
 T=  422. Gap= 0.746 NK=0 IS=   18 IE=   57 IFin=   17
          NO(<0.9)=   0  NV(>0.1)=   0     17.00e < EF      0.00e >EF  Err=0.0D+00
 GapD=    0.246 DampG=1.000 DampE=1.000 DampFc=1.0000 IDamp=-1.
 RMSDP=3.42D-04 MaxDP=5.59D-03 DE=-6.16D-04 OVMax= 1.31D-02

 Cycle   7  Pass 1  IDiag  1:
 E= -196.943284203623     Delta-E=       -0.000354710103 Rises=F Damp=F
 DIIS: error= 2.27D-03 at cycle   7 NSaved=   7.
 NSaved= 7 IEnMin= 7 EnMin= -196.943284203623     IErMin= 7 ErrMin= 2.27D-03
 ErrMax= 2.27D-03  0.00D+00 EMaxC= 1.00D+00 BMatC= 9.15D-05 BMatP= 2.00D-04
 IDIUse=1 WtCom= 1.00D+00 WtEn= 0.00D+00
 Coeff-Com:  0.193D-01-0.105D+00-0.975D-02 0.302D+00-0.482D+00-0.871D+00
 Coeff-Com:  0.215D+01
 Coeff:      0.193D-01-0.105D+00-0.975D-02 0.302D+00-0.482D+00-0.871D+00
 Coeff:      0.215D+01
 Gap=     0.395 Goal=   None    Shift=    0.500
 T=  127. Gap= 0.895 NK=0 IS=   19 IE=   57 IFin=   18
          NO(<0.9)=   0  NV(>0.1)=   0     18.00e < EF      0.00e >EF  Err=0.0D+00
 Gap=     0.247 Goal=   None    Shift=    0.500
 T=  127. Gap= 0.747 NK=0 IS=   18 IE=   57 IFin=   17
          NO(<0.9)=   0  NV(>0.1)=   0     17.00e < EF      0.00e >EF  Err=0.0D+00
 GapD=    0.247 DampG=1.000 DampE=1.000 DampFc=1.0000 IDamp=-1.
 RMSDP=2.33D-04 MaxDP=3.43D-03 DE=-3.55D-04 OVMax= 9.80D-03

 Cycle   8  Pass 1  IDiag  1:
 E= -196.943446667271     Delta-E=       -0.000162463648 Rises=F Damp=F
 DIIS: error= 1.66D-03 at cycle   8 NSaved=   8.
 NSaved= 8 IEnMin= 8 EnMin= -196.943446667271     IErMin= 8 ErrMin= 1.66D-03
 ErrMax= 1.66D-03  0.00D+00 EMaxC= 1.00D+00 BMatC= 4.56D-05 BMatP= 9.15D-05
 IDIUse=1 WtCom= 1.00D+00 WtEn= 0.00D+00
 Coeff-Com: -0.423D-02 0.228D+00-0.719D+00 0.542D+00 0.125D+01-0.261D+01
 Coeff-Com: -0.150D+00 0.246D+01
 Coeff:     -0.423D-02 0.228D+00-0.719D+00 0.542D+00 0.125D+01-0.261D+01
 Coeff:     -0.150D+00 0.246D+01
 Gap=     0.396 Goal=   None    Shift=    0.500
 Gap=     0.248 Goal=   None    Shift=    0.500
 GapD=    0.248 DampG=1.000 DampE=1.000 DampFc=1.0000 IDamp=-1.
 RMSDP=1.93D-04 MaxDP=2.79D-03 DE=-1.62D-04 OVMax= 8.60D-03

 Cycle   9  Pass 1  IDiag  1:
 E= -196.943535544339     Delta-E=       -0.000088877068 Rises=F Damp=F
 DIIS: error= 1.14D-03 at cycle   9 NSaved=   9.
 NSaved= 9 IEnMin= 9 EnMin= -196.943535544339     IErMin= 9 ErrMin= 1.14D-03
 ErrMax= 1.14D-03  0.00D+00 EMaxC= 1.00D+00 BMatC= 2.04D-05 BMatP= 4.56D-05
 IDIUse=1 WtCom= 1.00D+00 WtEn= 0.00D+00
 Coeff-Com: -0.773D-02-0.944D-01 0.489D+00-0.540D+00-0.428D+00 0.192D+01
 Coeff-Com: -0.956D+00-0.352D+01 0.414D+01
 Coeff:     -0.773D-02-0.944D-01 0.489D+00-0.540D+00-0.428D+00 0.192D+01
 Coeff:     -0.956D+00-0.352D+01 0.414D+01
 Gap=     0.396 Goal=   None    Shift=    0.500
 Gap=     0.248 Goal=   None    Shift=    0.500
 GapD=    0.248 DampG=1.000 DampE=1.000 DampFc=1.0000 IDamp=-1.
 RMSDP=1.51D-04 MaxDP=2.28D-03 DE=-8.89D-05 OVMax= 7.22D-03

 Cycle  10  Pass 1  IDiag  1:
 E= -196.943580067815     Delta-E=       -0.000044523475 Rises=F Damp=F
 DIIS: error= 7.02D-04 at cycle  10 NSaved=  10.
 NSaved=10 IEnMin=10 EnMin= -196.943580067815     IErMin=10 ErrMin= 7.02D-04
 ErrMax= 7.02D-04  0.00D+00 EMaxC= 1.00D+00 BMatC= 8.04D-06 BMatP= 2.04D-05
 IDIUse=1 WtCom= 1.00D+00 WtEn= 0.00D+00
 Coeff-Com:  0.276D-02 0.703D-03-0.302D-01 0.397D-01 0.204D-01-0.138D+00
 Coeff-Com:  0.236D+00 0.133D+00-0.188D+01 0.261D+01
 Coeff:      0.276D-02 0.703D-03-0.302D-01 0.397D-01 0.204D-01-0.138D+00
 Coeff:      0.236D+00 0.133D+00-0.188D+01 0.261D+01
 Gap=     0.396 Goal=   None    Shift=    0.500
 Gap=     0.248 Goal=   None    Shift=    0.500
 RMSDP=8.92D-05 MaxDP=1.38D-03 DE=-4.45D-05 OVMax= 4.47D-03

 Cycle  11  Pass 1  IDiag  1:
 E= -196.943596523052     Delta-E=       -0.000016455238 Rises=F Damp=F
 DIIS: error= 4.34D-04 at cycle  11 NSaved=  11.
 NSaved=11 IEnMin=11 EnMin= -196.943596523052     IErMin=11 ErrMin= 4.34D-04
 ErrMax= 4.34D-04  0.00D+00 EMaxC= 1.00D+00 BMatC= 3.38D-06 BMatP= 8.04D-06
 IDIUse=1 WtCom= 1.00D+00 WtEn= 0.00D+00
 Coeff-Com: -0.232D-02-0.305D-02 0.591D-01-0.883D-01 0.272D-01 0.209D+00
 Coeff-Com: -0.326D+00-0.494D+00 0.261D+01-0.567D+01 0.467D+01
 Coeff:     -0.232D-02-0.305D-02 0.591D-01-0.883D-01 0.272D-01 0.209D+00
 Coeff:     -0.326D+00-0.494D+00 0.261D+01-0.567D+01 0.467D+01
 Gap=     0.396 Goal=   None    Shift=    0.500
 Gap=     0.248 Goal=   None    Shift=    0.500
 RMSDP=5.92D-05 MaxDP=8.78D-04 DE=-1.65D-05 OVMax= 3.02D-03

 Cycle  12  Pass 1  IDiag  1:
 E= -196.943603344471     Delta-E=       -0.000006821419 Rises=F Damp=F
 DIIS: error= 2.57D-04 at cycle  12 NSaved=  12.
 NSaved=12 IEnMin=12 EnMin= -196.943603344471     IErMin=12 ErrMin= 2.57D-04
 ErrMax= 2.57D-04  0.00D+00 EMaxC= 1.00D+00 BMatC= 1.25D-06 BMatP= 3.38D-06
 IDIUse=1 WtCom= 1.00D+00 WtEn= 0.00D+00
 Coeff-Com: -0.104D-02-0.163D-01 0.815D-01-0.895D-01-0.638D-01 0.291D+00
 Coeff-Com: -0.783D-01-0.638D+00 0.653D+00 0.458D+00-0.246D+01 0.286D+01
 Coeff:     -0.104D-02-0.163D-01 0.815D-01-0.895D-01-0.638D-01 0.291D+00
 Coeff:     -0.783D-01-0.638D+00 0.653D+00 0.458D+00-0.246D+01 0.286D+01
 Gap=     0.396 Goal=   None    Shift=    0.500
 Gap=     0.248 Goal=   None    Shift=    0.500
 RMSDP=3.57D-05 MaxDP=5.18D-04 DE=-6.82D-06 OVMax= 1.83D-03

 Cycle  13  Pass 1  IDiag  1:
 E= -196.943605810561     Delta-E=       -0.000002466089 Rises=F Damp=F
 DIIS: error= 1.50D-04 at cycle  13 NSaved=  13.
 NSaved=13 IEnMin=13 EnMin= -196.943605810561     IErMin=13 ErrMin= 1.50D-04
 ErrMax= 1.50D-04  0.00D+00 EMaxC= 1.00D+00 BMatC= 4.48D-07 BMatP= 1.25D-06
 IDIUse=1 WtCom= 1.00D+00 WtEn= 0.00D+00
 Coeff-Com:  0.746D-03 0.608D-02-0.293D-01 0.295D-01 0.416D-01-0.113D+00
 Coeff-Com: -0.123D-01 0.253D+00 0.752D-02-0.109D+01 0.266D+01-0.484D+01
 Coeff-Com:  0.408D+01
 Coeff:      0.746D-03 0.608D-02-0.293D-01 0.295D-01 0.416D-01-0.113D+00
 Coeff:     -0.123D-01 0.253D+00 0.752D-02-0.109D+01 0.266D+01-0.484D+01
 Coeff:      0.408D+01
 Gap=     0.396 Goal=   None    Shift=    0.500
 Gap=     0.248 Goal=   None    Shift=    0.500
 RMSDP=2.18D-05 MaxDP=3.23D-04 DE=-2.47D-06 OVMax= 1.13D-03

 Cycle  14  Pass 1  IDiag  1:
 E= -196.943606702641     Delta-E=       -0.000000892081 Rises=F Damp=F
 DIIS: error= 8.45D-05 at cycle  14 NSaved=  14.
 NSaved=14 IEnMin=14 EnMin= -196.943606702641     IErMin=14 ErrMin= 8.45D-05
 ErrMax= 8.45D-05  0.00D+00 EMaxC= 1.00D+00 BMatC= 1.63D-07 BMatP= 4.48D-07
 IDIUse=1 WtCom= 1.00D+00 WtEn= 0.00D+00
 Coeff-Com: -0.253D-03-0.294D-02 0.192D-01-0.245D-01-0.471D-02 0.540D-01
 Coeff-Com: -0.151D-01-0.153D+00 0.347D+00-0.480D+00-0.298D-01 0.145D+01
 Coeff-Com: -0.345D+01 0.329D+01
 Coeff:     -0.253D-03-0.294D-02 0.192D-01-0.245D-01-0.471D-02 0.540D-01
 Coeff:     -0.151D-01-0.153D+00 0.347D+00-0.480D+00-0.298D-01 0.145D+01
 Coeff:     -0.345D+01 0.329D+01
 Gap=     0.396 Goal=   None    Shift=    0.500
 Gap=     0.248 Goal=   None    Shift=    0.500
 RMSDP=1.29D-05 MaxDP=1.91D-04 DE=-8.92D-07 OVMax= 6.78D-04

 Cycle  15  Pass 1  IDiag  1:
 E= -196.943607011817     Delta-E=       -0.000000309175 Rises=F Damp=F
 DIIS: error= 4.71D-05 at cycle  15 NSaved=  15.
 NSaved=15 IEnMin=15 EnMin= -196.943607011817     IErMin=15 ErrMin= 4.71D-05
 ErrMax= 4.71D-05  0.00D+00 EMaxC= 1.00D+00 BMatC= 5.65D-08 BMatP= 1.63D-07
 IDIUse=1 WtCom= 1.00D+00 WtEn= 0.00D+00
 Coeff-Com:  0.179D-03 0.829D-03-0.748D-02 0.104D-01 0.455D-03-0.200D-01
 Coeff-Com:  0.102D-01 0.651D-01-0.166D+00 0.262D+00-0.869D-01-0.805D+00
 Coeff-Com:  0.247D+01-0.465D+01 0.392D+01
 Coeff:      0.179D-03 0.829D-03-0.748D-02 0.104D-01 0.455D-03-0.200D-01
 Coeff:      0.102D-01 0.651D-01-0.166D+00 0.262D+00-0.869D-01-0.805D+00
 Coeff:      0.247D+01-0.465D+01 0.392D+01
 Gap=     0.396 Goal=   None    Shift=    0.500
 Gap=     0.248 Goal=   None    Shift=    0.500
 RMSDP=7.45D-06 MaxDP=1.08D-04 DE=-3.09D-07 OVMax= 3.93D-04

 Cycle  16  Pass 1  IDiag  1:
 E= -196.943607113766     Delta-E=       -0.000000101950 Rises=F Damp=F
 DIIS: error= 2.56D-05 at cycle  16 NSaved=  16.
 NSaved=16 IEnMin=16 EnMin= -196.943607113766     IErMin=16 ErrMin= 2.56D-05
 ErrMax= 2.56D-05  0.00D+00 EMaxC= 1.00D+00 BMatC= 1.98D-08 BMatP= 5.65D-08
 IDIUse=1 WtCom= 1.00D+00 WtEn= 0.00D+00
 Coeff-Com:  0.196D-04 0.553D-03-0.660D-03-0.923D-03 0.734D-02-0.136D-01
 Coeff-Com:  0.571D-02 0.799D-02 0.475D-01-0.197D+00 0.304D+00-0.279D+00
 Coeff-Com: -0.247D+00 0.160D+01-0.365D+01 0.342D+01
 Coeff:      0.196D-04 0.553D-03-0.660D-03-0.923D-03 0.734D-02-0.136D-01
 Coeff:      0.571D-02 0.799D-02 0.475D-01-0.197D+00 0.304D+00-0.279D+00
 Coeff:     -0.247D+00 0.160D+01-0.365D+01 0.342D+01
 Gap=     0.396 Goal=   None    Shift=    0.500
 Gap=     0.248 Goal=   None    Shift=    0.500
 RMSDP=4.18D-06 MaxDP=5.86D-05 DE=-1.02D-07 OVMax= 2.21D-04

 Cycle  17  Pass 1  IDiag  1:
 E= -196.943607146348     Delta-E=       -0.000000032582 Rises=F Damp=F
 DIIS: error= 1.37D-05 at cycle  17 NSaved=  17.
 NSaved=17 IEnMin=17 EnMin= -196.943607146348     IErMin=17 ErrMin= 1.37D-05
 ErrMax= 1.37D-05  0.00D+00 EMaxC= 1.00D+00 BMatC= 6.81D-09 BMatP= 1.98D-08
 IDIUse=1 WtCom= 1.00D+00 WtEn= 0.00D+00
 Coeff-Com:  0.444D-04-0.288D-03-0.339D-04 0.966D-03-0.312D-02 0.326D-02
 Coeff-Com:  0.206D-02 0.113D-03-0.289D-01 0.889D-01-0.120D+00 0.496D-01
 Coeff-Com:  0.274D+00-0.111D+01 0.263D+01-0.470D+01 0.392D+01
 Coeff:      0.444D-04-0.288D-03-0.339D-04 0.966D-03-0.312D-02 0.326D-02
 Coeff:      0.206D-02 0.113D-03-0.289D-01 0.889D-01-0.120D+00 0.496D-01
 Coeff:      0.274D+00-0.111D+01 0.263D+01-0.470D+01 0.392D+01
 Gap=     0.396 Goal=   None    Shift=    0.500
 Gap=     0.248 Goal=   None    Shift=    0.500
 RMSDP=2.27D-06 MaxDP=3.09D-05 DE=-3.26D-08 OVMax= 1.21D-04

 Cycle  18  Pass 1  IDiag  1:
 E= -196.943607156460     Delta-E=       -0.000000010112 Rises=F Damp=F
 DIIS: error= 7.36D-06 at cycle  18 NSaved=  18.
 NSaved=18 IEnMin=18 EnMin= -196.943607156460     IErMin=18 ErrMin= 7.36D-06
 ErrMax= 7.36D-06  0.00D+00 EMaxC= 1.00D+00 BMatC= 2.27D-09 BMatP= 6.81D-09
 IDIUse=1 WtCom= 1.00D+00 WtEn= 0.00D+00
 Coeff-Com:  0.230D-04 0.297D-03-0.153D-02 0.170D-02 0.182D-02-0.745D-02
 Coeff-Com:  0.429D-02 0.116D-01-0.187D-01 0.747D-02 0.342D-01-0.123D+00
 Coeff-Com:  0.218D+00-0.209D+00-0.220D+00 0.143D+01-0.356D+01 0.343D+01
 Coeff:      0.230D-04 0.297D-03-0.153D-02 0.170D-02 0.182D-02-0.745D-02
 Coeff:      0.429D-02 0.116D-01-0.187D-01 0.747D-02 0.342D-01-0.123D+00
 Coeff:      0.218D+00-0.209D+00-0.220D+00 0.143D+01-0.356D+01 0.343D+01
 Gap=     0.396 Goal=   None    Shift=    0.500
 Gap=     0.248 Goal=   None    Shift=    0.500
 RMSDP=1.21D-06 MaxDP=1.64D-05 DE=-1.01D-08 OVMax= 6.45D-05

 Cycle  19  Pass 1  IDiag  1:
 E= -196.943607159557     Delta-E=       -0.000000003098 Rises=F Damp=F
 DIIS: error= 4.15D-06 at cycle  19 NSaved=  19.
 NSaved=19 IEnMin=19 EnMin= -196.943607159557     IErMin=19 ErrMin= 4.15D-06
 ErrMax= 4.15D-06  0.00D+00 EMaxC= 1.00D+00 BMatC= 7.36D-10 BMatP= 2.27D-09
 IDIUse=1 WtCom= 1.00D+00 WtEn= 0.00D+00
 Coeff-Com:  0.450D-05 0.937D-04-0.322D-03 0.260D-03 0.632D-03-0.225D-02
 Coeff-Com:  0.196D-02 0.219D-02-0.399D-02 0.362D-03 0.585D-02-0.893D-02
 Coeff-Com: -0.323D-02 0.386D-01-0.335D-01-0.327D+00 0.126D+01-0.302D+01
 Coeff-Com:  0.308D+01
 Coeff:      0.450D-05 0.937D-04-0.322D-03 0.260D-03 0.632D-03-0.225D-02
 Coeff:      0.196D-02 0.219D-02-0.399D-02 0.362D-03 0.585D-02-0.893D-02
 Coeff:     -0.323D-02 0.386D-01-0.335D-01-0.327D+00 0.126D+01-0.302D+01
 Coeff:      0.308D+01
 Gap=     0.396 Goal=   None    Shift=    0.500
 Gap=     0.248 Goal=   None    Shift=    0.500
 RMSDP=6.47D-07 MaxDP=8.91D-06 DE=-3.10D-09 OVMax= 3.46D-05

 SCF Done:  E(ULC-wHPBE) =  -196.943607160     A.U. after   19 cycles
            NFock= 19  Conv=0.65D-06     -V/T= 2.0208
 <Sx>= 0.0000 <Sy>= 0.0000 <Sz>= 0.5000 <S**2>= 0.8151 S= 0.5320
 <L.S>= 0.000000000000E+00
 KE= 1.929277702711D+02 PE=-7.526227763958D+02 EE= 2.067386564791D+02
 Annihilation of the first spin contaminant:
 S**2 before annihilation     0.8151,   after     0.7524
 Leave Link  502 at Thu Mar  5 12:52:33 2020, MaxMem=  6710886400 cpu:              31.6 elap:               2.0
 (Enter /opt/ohpc/pub/libs/gaussian/g16-A.03/sandybridge/g16/l508.exe)
 QCSCF skips out because SCF is already converged.
 Leave Link  508 at Thu Mar  5 12:52:33 2020, MaxMem=  6710886400 cpu:               0.2 elap:               0.0
 (Enter /opt/ohpc/pub/libs/gaussian/g16-A.03/sandybridge/g16/l601.exe)
 Copying SCF densities to generalized density rwf, IOpCl= 1 IROHF=0.

 **********************************************************************

            Population analysis using the SCF density.

 **********************************************************************

 Orbital symmetries:
 Alpha Orbitals:
       Occupied  (B2) (A1) (A1) (B2) (A1) (A1) (A1) (B2) (A1) (B2)
                 (A1) (B2) (A1) (A1) (B1) (B2) (A2) (B1)
       Virtual   (A2) (B2) (B1) (A1) (A1) (B2) (A1) (A1) (B2) (A1)
                 (B2) (A1) (B2) (B1) (B2) (B1) (A2) (A1) (A1) (B2)
                 (A1) (A2) (B1) (B2) (B2) (A1) (A1) (A1) (B2) (A1)
                 (B2) (A1) (A1) (B2) (A1) (B2) (A1) (A1) (B2)
 Beta  Orbitals:
       Occupied  (B2) (A1) (B2) (A1) (A1) (A1) (A1) (B2) (A1) (B2)
                 (A1) (B2) (A1) (A1) (B2) (B1) (A2)
       Virtual   (B1) (B2) (A2) (A1) (B1) (A1) (B2) (A1) (B2) (A1)
                 (A1) (B2) (A1) (B2) (B2) (B1) (A2) (A1) (B1) (A1)
                 (B2) (A1) (A2) (B1) (B2) (B2) (A1) (A1) (B2) (A1)
                 (B2) (A1) (A1) (A1) (B2) (A1) (B2) (A1) (A1) (B2)
 The electronic state is 2-B1.
 Alpha  occ. eigenvalues --  -10.45430 -10.45426 -10.40421 -10.39558 -10.39557
 Alpha  occ. eigenvalues --   -1.32090  -1.19164  -1.14227  -1.00447  -0.98150
 Alpha  occ. eigenvalues --   -0.93456  -0.83603  -0.81409  -0.80263  -0.79118
 Alpha  occ. eigenvalues --   -0.77915  -0.64300  -0.63283
 Alpha virt. eigenvalues --   -0.23635  -0.23125  -0.16714  -0.16059  -0.09484
 Alpha virt. eigenvalues --   -0.04726  -0.02750  -0.00327  -0.00316   0.10422
 Alpha virt. eigenvalues --    0.10757   0.20977   0.21352   0.29515   0.30441
 Alpha virt. eigenvalues --    0.37191   0.37744   0.38552   0.40504   0.41328
 Alpha virt. eigenvalues --    0.41679   0.45117   0.46599   0.54367   0.61100
 Alpha virt. eigenvalues --    0.63403   0.64499   0.67053   0.67114   0.73180
 Alpha virt. eigenvalues --    0.73327   0.77636   0.81868   0.88490   0.96560
 Alpha virt. eigenvalues --    0.97513   1.03399   1.24845   1.26373
  Beta  occ. eigenvalues --  -10.44811 -10.44805 -10.39886 -10.39886 -10.39447
  Beta  occ. eigenvalues --   -1.30784  -1.17225  -1.13995  -0.99347  -0.97405
  Beta  occ. eigenvalues --   -0.93206  -0.83327  -0.81144  -0.79701  -0.77770
  Beta  occ. eigenvalues --   -0.74543  -0.62917
  Beta virt. eigenvalues --   -0.38084  -0.21589  -0.20585  -0.15831  -0.13195
  Beta virt. eigenvalues --   -0.09068  -0.04460  -0.02548  -0.00384   0.00328
  Beta virt. eigenvalues --    0.10912   0.11092   0.21394   0.21718   0.30851
  Beta virt. eigenvalues --    0.31940   0.38846   0.39119   0.40145   0.40878
  Beta virt. eigenvalues --    0.41705   0.42825   0.45684   0.48267   0.54935
  Beta virt. eigenvalues --    0.61535   0.64308   0.64974   0.67003   0.67513
  Beta virt. eigenvalues --    0.73620   0.73868   0.78458   0.82670   0.88479
  Beta virt. eigenvalues --    0.97048   0.98037   1.04600   1.25794   1.27248
          Condensed to atoms (all electrons):
               1          2          3          4          5          6
     1  C    5.372933   0.495967  -0.043749  -0.123944   0.178743   0.161969
     2  C    0.495967   4.963901   0.458826  -0.027450  -0.123944  -0.021022
     3  C   -0.043749   0.458826   4.885123   0.458826  -0.043749   0.007188
     4  C   -0.123944  -0.027450   0.458826   4.963901   0.495967  -0.021022
     5  C    0.178743  -0.123944  -0.043749   0.495967   5.372933   0.161969
     6  H    0.161969  -0.021022   0.007188  -0.021022   0.161969   0.347796
     7  H    0.335220   0.004607  -0.000353   0.003144  -0.015535  -0.009635
     8  H   -0.023305   0.360361  -0.011716   0.003789   0.000834   0.000362
     9  H    0.004893  -0.026180   0.363082  -0.026180   0.004893  -0.000036
    10  H    0.000834   0.003789  -0.011716   0.360361  -0.023305   0.000362
    11  H   -0.015535   0.003144  -0.000353   0.004607   0.335220  -0.009635
               7          8          9         10         11
     1  C    0.335220  -0.023305   0.004893   0.000834  -0.015535
     2  C    0.004607   0.360361  -0.026180   0.003789   0.003144
     3  C   -0.000353  -0.011716   0.363082  -0.011716  -0.000353
     4  C    0.003144   0.003789  -0.026180   0.360361   0.004607
     5  C   -0.015535   0.000834   0.004893  -0.023305   0.335220
     6  H   -0.009635   0.000362  -0.000036   0.000362  -0.009635
     7  H    0.340044   0.000114  -0.000050  -0.000016   0.000393
     8  H    0.000114   0.378974  -0.001154  -0.000081  -0.000016
     9  H   -0.000050  -0.001154   0.397993  -0.001154  -0.000050
    10  H   -0.000016  -0.000081  -0.001154   0.378974   0.000114
    11  H    0.000393  -0.000016  -0.000050   0.000114   0.340044
          Atomic-Atomic Spin Densities.
               1          2          3          4          5          6
     1  C    0.521474  -0.040663  -0.022748  -0.009532   0.022821  -0.004175
     2  C   -0.040663  -0.271276   0.027793   0.000022  -0.009532   0.000370
     3  C   -0.022748   0.027793   0.730599   0.027793  -0.022748   0.000208
     4  C   -0.009532   0.000022   0.027793  -0.271276  -0.040663   0.000370
     5  C    0.022821  -0.009532  -0.022748  -0.040663   0.521474  -0.004175
     6  H   -0.004175   0.000370   0.000208   0.000370  -0.004175  -0.016028
     7  H   -0.003008  -0.000549   0.000119  -0.000109   0.000190  -0.000137
     8  H   -0.000392   0.002116  -0.001119  -0.000134   0.000070   0.000024
     9  H   -0.000015  -0.000026  -0.001268  -0.000026  -0.000015  -0.000001
    10  H    0.000070  -0.000134  -0.001119   0.002116  -0.000392   0.000024
    11  H    0.000190  -0.000109   0.000119  -0.000549  -0.003008  -0.000137
               7          8          9         10         11
     1  C   -0.003008  -0.000392  -0.000015   0.000070   0.000190
     2  C   -0.000549   0.002116  -0.000026  -0.000134  -0.000109
     3  C    0.000119  -0.001119  -0.001268  -0.001119   0.000119
     4  C   -0.000109  -0.000134  -0.000026   0.002116  -0.000549
     5  C    0.000190   0.000070  -0.000015  -0.000392  -0.003008
     6  H   -0.000137   0.000024  -0.000001   0.000024  -0.000137
     7  H   -0.018984   0.000053   0.000004  -0.000000  -0.000076
     8  H    0.000053   0.007942   0.000008   0.000000  -0.000000
     9  H    0.000004   0.000008  -0.028861   0.000008   0.000004
    10  H   -0.000000   0.000000   0.000008   0.007942   0.000053
    11  H   -0.000076  -0.000000   0.000004   0.000053  -0.018984
 Mulliken charges and spin densities:
               1          2
     1  C   -0.344025   0.464024
     2  C   -0.091999  -0.291988
     3  C   -0.061408   0.737628
     4  C   -0.091999  -0.291988
     5  C   -0.344025   0.464024
     6  H    0.381704  -0.023655
     7  H    0.342066  -0.022497
     8  H    0.291838   0.008568
     9  H    0.283944  -0.030187
    10  H    0.291838   0.008568
    11  H    0.342066  -0.022497
 Sum of Mulliken charges =   1.00000   1.00000
 Mulliken charges and spin densities with hydrogens summed into heavy atoms:
               1          2
     1  C    0.379745   0.417872
     2  C    0.199839  -0.283420
     3  C    0.222536   0.707441
     4  C    0.199839  -0.283420
     5  C   -0.001959   0.441527
 Electronic spatial extent (au):  <R**2>=            317.8303
 Charge=              1.0000 electrons
 Dipole moment (field-independent basis, Debye):
    X=             -0.0000    Y=             -0.0000    Z=             -2.0441  Tot=              2.0441
 Quadrupole moment (field-independent basis, Debye-Ang):
   XX=            -30.8676   YY=            -17.0081   ZZ=            -12.6876
   XY=              0.0000   XZ=              0.0000   YZ=             -0.0000
 Traceless Quadrupole moment (field-independent basis, Debye-Ang):
   XX=            -10.6798   YY=              3.1797   ZZ=              7.5001
   XY=              0.0000   XZ=              0.0000   YZ=             -0.0000
 Octapole moment (field-independent basis, Debye-Ang**2):
  XXX=              0.0000  YYY=              0.0000  ZZZ=             -7.5838  XYY=             -0.0000
  XXY=             -0.0000  XXZ=              0.6542  XZZ=              0.0000  YZZ=              0.0000
  YYZ=             -2.7175  XYZ=             -0.0000
 Hexadecapole moment (field-independent basis, Debye-Ang**3):
 XXXX=            -30.3808 YYYY=           -140.2139 ZZZZ=           -121.1238 XXXY=             -0.0000
 XXXZ=             -0.0000 YYYX=             -0.0000 YYYZ=             -0.0000 ZZZX=              0.0000
 ZZZY=              0.0000 XXYY=            -41.4434 XXZZ=            -38.0455 YYZZ=            -41.2930
 XXYZ=              0.0000 YYXZ=             -0.0000 ZZXY=             -0.0000
 N-N= 1.560127424860D+02 E-N=-7.526227807726D+02  KE= 1.929277702711D+02
 Symmetry A1   KE= 1.114739526370D+02
 Symmetry A2   KE= 2.556188961831D+00
 Symmetry B1   KE= 3.295101566805D+00
 Symmetry B2   KE= 7.560252710548D+01
 Symmetry A1   SP=-1.895462885498D-14
 Symmetry A2   SP= 3.652893959538D-15
 Symmetry B1   SP= 1.000000000000D+00
 Symmetry B2   SP= 1.703890121444D-14
                          Isotropic Fermi Contact Couplings
        Atom                 a.u.       MegaHertz       Gauss      10(-4) cm-1
     1  C(13)              0.07451      83.76539      29.88957      27.94113
     2  C(13)             -0.05221     -58.69454     -20.94367     -19.57839
     3  C(13)              0.11027     123.96103      44.23238      41.34895
     4  C(13)             -0.05221     -58.69454     -20.94367     -19.57839
     5  C(13)              0.07451      83.76539      29.88957      27.94113
     6  H(1)              -0.00898     -40.13928     -14.32269     -13.38902
     7  H(1)              -0.00976     -43.61760     -15.56384     -14.54926
     8  H(1)               0.00346      15.47382       5.52144       5.16151
     9  H(1)              -0.01379     -61.64027     -21.99478     -20.56098
    10  H(1)               0.00346      15.47382       5.52144       5.16151
    11  H(1)              -0.00976     -43.61760     -15.56384     -14.54926
 --------------------------------------------------------
       Center         ----  Spin Dipole Couplings  ----
                      3XX-RR        3YY-RR        3ZZ-RR
 --------------------------------------------------------
     1   Atom        0.485071     -0.236243     -0.248828
     2   Atom       -0.194422      0.095273      0.099149
     3   Atom        0.703272     -0.359396     -0.343876
     4   Atom       -0.194422      0.095273      0.099149
     5   Atom        0.485071     -0.236243     -0.248828
     6   Atom       -0.008036      0.007788      0.000248
     7   Atom       -0.006600      0.006814     -0.000213
     8   Atom       -0.006224     -0.001046      0.007270
     9   Atom       -0.008540     -0.045778      0.054318
    10   Atom       -0.006224     -0.001046      0.007270
    11   Atom       -0.006600      0.006814     -0.000213
 --------------------------------------------------------
                        XY            XZ            YZ
 --------------------------------------------------------
     1   Atom       -0.000000      0.000000     -0.008212
     2   Atom       -0.000000      0.000000     -0.005345
     3   Atom       -0.000000     -0.000000      0.000000
     4   Atom       -0.000000     -0.000000      0.005345
     5   Atom        0.000000      0.000000      0.008212
     6   Atom       -0.000000      0.000000      0.000000
     7   Atom        0.000000      0.000000     -0.035251
     8   Atom       -0.000000      0.000000     -0.006195
     9   Atom       -0.000000     -0.000000     -0.000000
    10   Atom        0.000000     -0.000000      0.006195
    11   Atom       -0.000000     -0.000000      0.035251
 --------------------------------------------------------


 ---------------------------------------------------------------------------------
              Anisotropic Spin Dipole Couplings in Principal Axis System
 ---------------------------------------------------------------------------------

       Atom             a.u.   MegaHertz   Gauss  10(-4) cm-1        Axes

              Baa    -0.2529   -33.934   -12.109   -11.319 -0.0000  0.4426  0.8967
     1 C(13)  Bbb    -0.2322   -31.158   -11.118   -10.393 -0.0000  0.8967 -0.4426
              Bcc     0.4851    65.092    23.226    21.712  1.0000  0.0000  0.0000
 
              Baa    -0.1944   -26.090    -9.309    -8.703  1.0000  0.0000  0.0000
     2 C(13)  Bbb     0.0915    12.282     4.382     4.097 -0.0000  0.8188  0.5741
              Bcc     0.1029    13.808     4.927     4.606  0.0000 -0.5741  0.8188
 
              Baa    -0.3594   -48.228   -17.209   -16.087  0.0000  1.0000  0.0000
     3 C(13)  Bbb    -0.3439   -46.145   -16.466   -15.392  0.0000  0.0000  1.0000
              Bcc     0.7033    94.372    33.674    31.479  1.0000  0.0000  0.0000
 
              Baa    -0.1944   -26.090    -9.309    -8.703  1.0000  0.0000  0.0000
     4 C(13)  Bbb     0.0915    12.282     4.382     4.097 -0.0000  0.8188 -0.5741
              Bcc     0.1029    13.808     4.927     4.606 -0.0000  0.5741  0.8188
 
              Baa    -0.2529   -33.934   -12.109   -11.319 -0.0000 -0.4426  0.8967
     5 C(13)  Bbb    -0.2322   -31.158   -11.118   -10.393  0.0000  0.8967  0.4426
              Bcc     0.4851    65.092    23.226    21.712  1.0000 -0.0000  0.0000
 
              Baa    -0.0080    -4.288    -1.530    -1.430  1.0000  0.0000 -0.0000
     6 H(1)   Bbb     0.0002     0.132     0.047     0.044  0.0000 -0.0000  1.0000
              Bcc     0.0078     4.155     1.483     1.386 -0.0000  1.0000  0.0000
 
              Baa    -0.0321   -17.140    -6.116    -5.717 -0.0000  0.6711  0.7413
     7 H(1)   Bbb    -0.0066    -3.522    -1.257    -1.175  1.0000  0.0000  0.0000
              Bcc     0.0387    20.662     7.373     6.892 -0.0000  0.7413 -0.6711
 
              Baa    -0.0062    -3.321    -1.185    -1.108  1.0000  0.0000  0.0000
     8 H(1)   Bbb    -0.0043    -2.320    -0.828    -0.774 -0.0000  0.8824  0.4705
              Bcc     0.0106     5.641     2.013     1.882  0.0000 -0.4705  0.8824
 
              Baa    -0.0458   -24.425    -8.715    -8.147 -0.0000  1.0000 -0.0000
     9 H(1)   Bbb    -0.0085    -4.557    -1.626    -1.520  1.0000  0.0000  0.0000
              Bcc     0.0543    28.981    10.341     9.667  0.0000  0.0000  1.0000
 
              Baa    -0.0062    -3.321    -1.185    -1.108  1.0000 -0.0000  0.0000
    10 H(1)   Bbb    -0.0043    -2.320    -0.828    -0.774  0.0000  0.8824 -0.4705
              Bcc     0.0106     5.641     2.013     1.882  0.0000  0.4705  0.8824
 
              Baa    -0.0321   -17.140    -6.116    -5.717  0.0000 -0.6711  0.7413
    11 H(1)   Bbb    -0.0066    -3.522    -1.257    -1.175  1.0000  0.0000  0.0000
              Bcc     0.0387    20.662     7.373     6.892 -0.0000  0.7413  0.6711
 

 ---------------------------------------------------------------------------------

 No NMR shielding tensors so no spin-rotation constants.
 Leave Link  601 at Thu Mar  5 12:52:33 2020, MaxMem=  6710886400 cpu:               4.0 elap:               0.3
 (Enter /opt/ohpc/pub/libs/gaussian/g16-A.03/sandybridge/g16/l9999.exe)

 Test job not archived.
 1\1\GINC-CNODE212\SP\ULC-wHPBE\6-31G\C5H6(1+,2)\SMGO234\05-Mar-2020\0\
 \#P uLC-wHPBE/6-31G iop(3/130=0245600000, 3/131=0245600000, 3/119=0754
 400000, 3/120=0754400000) scf=(conver=6,fermi,ndamp=35,noincfock,novar
 acc,vshift=500,xqc)\\H6 C5\\1,2\C,0,0.,0.878804,-0.931542\C,0,0.,1.128
 157,0.423457\C,0,0.,0.,1.240879\C,0,0.,-1.128157,0.423457\C,0,0.,-0.87
 8804,-0.931542\H,0,0.,0.,-1.732269\H,0,0.,1.6083,-1.734053\H,0,0.,2.15
 6626,0.76567\H,0,0.,0.,2.320778\H,0,0.,-2.156626,0.76567\H,0,0.,-1.608
 3,-1.734053\\Version=EM64L-G16RevA.03\State=2-B1\HF=-196.9436072\S2=0.
 815071\S2-1=0.\S2A=0.752402\RMSD=6.467e-07\Dipole=0.,0.,-0.8042006\Qua
 drupole=-7.9401925,2.3640268,5.5761657,0.,0.,0.\PG=C02V [C2(H1C1H1),SG
 V(C4H4)]\\@


 AND THIS OUR LIFE, EXEMPT FROM PUBLIC HAUNT,
 FINDS TONGUES IN TREES, BOOKS IN THE RUNNING BROOKS,
 SERMONS IN STONES, AND GOOD IN EVERYTHING.
 I WOULD NOT CHANGE IT. -- W. SHAKESPEARE
 AS YOU LIKE IT, ACT II, SCENE 1.
 Job cpu time:       0 days  0 hours  1 minutes  4.3 seconds.
 Elapsed time:       0 days  0 hours  0 minutes  4.5 seconds.
 File lengths (MBytes):  RWF=    272 Int=      0 D2E=      0 Chk=     32 Scr=     32
 Normal termination of Gaussian 16 at Thu Mar  5 12:52:33 2020.
