<?xml version="1.0" encoding="ISO-8859-1"?>
<modeling>
 <generator>
  <i name="program" type="string">vasp </i>
  <i name="version" type="string">5.4.4.18Apr17-6-g9f103f2a35  </i>
  <i name="subversion" type="string">(build Feb 01 2019 03:23:26) complex            parallel </i>
  <i name="platform" type="string">LinuxIFC </i>
  <i name="date" type="string">2020 01 04 </i>
  <i name="time" type="string">03:49:42 </i>
 </generator>
 <incar>
  <i type="string" name="PREC">high</i>
  <i type="int" name="NSIM">    16</i>
  <i type="int" name="ICHARG">    11</i>
  <i type="int" name="NELM">   200</i>
  <i name="EDIFF">      0.00000100</i>
  <i name="ENCUT">   1000.00000000</i>
  <i type="int" name="NEDOS">  2000</i>
  <i type="string" name="LREAL"> Auto</i>
  <i type="int" name="ISMEAR">     0</i>
  <i name="SIGMA">      0.05000000</i>
  <v type="int" name="KPOINT_BSE">    -1     0     0     0</v>
  <i type="int" name="NELM">   200</i>
 </incar>
 <structure name="primitive_cell" >
  <crystal>
   <varray name="basis" >
    <v>       8.19597172       0.08687475       0.02684671 </v>
    <v>      -1.07767888       7.69236170      -0.09681698 </v>
    <v>       0.23313944      -3.71271844      16.61424604 </v>
   </varray>
   <i name="volume">   1046.13476195 </i>
   <varray name="rec_basis" >
    <v>       0.12182306       0.01709364       0.00211036 </v>
    <v>      -0.00147498       0.13015879       0.02910676 </v>
    <v>      -0.00020545       0.00073086       0.06035551 </v>
   </varray>
  </crystal>
  <varray name="positions" >
   <v>      -0.32100233       0.32887647       0.27455248 </v>
   <v>      -0.37558496       0.38357854       0.34208670 </v>
   <v>      -0.22436781       0.23825893       0.17135061 </v>
   <v>      -0.43808196       0.44244075       0.42019052 </v>
   <v>      -0.37399484      -0.04561226       0.26118175 </v>
   <v>       0.46093226       0.09876848       0.35282433 </v>
   <v>      -0.24675760      -0.29704996       0.36982489 </v>
   <v>       0.43414406       0.34597712       0.14870543 </v>
   <v>       0.03087360       0.29509474       0.30944206 </v>
   <v>      -0.00310797      -0.41362344       0.25490969 </v>
   <v>       0.01845032       0.31753242       0.18437121 </v>
   <v>      -0.32524606       0.34842508       0.09116212 </v>
   <v>      -0.27981285      -0.02873364       0.14151502 </v>
   <v>      -0.29303191       0.49288308       0.11531704 </v>
   <v>      -0.29314024      -0.11124624       0.21501054 </v>
   <v>       0.48746572       0.30475563       0.08876618 </v>
   <v>       0.09128918       0.24859460       0.25172012 </v>
   <v>      -0.40181838      -0.05095076       0.11180538 </v>
   <v>       0.45714649       0.31990757       0.45526223 </v>
   <v>      -0.39475928      -0.37764080       0.46392574 </v>
   <v>       0.05380836      -0.47935295       0.19893472 </v>
   <v>       0.41338848       0.14153871       0.41336956 </v>
   <v>      -0.17205015      -0.10135029       0.24380887 </v>
   <v>      -0.29342009      -0.25287524       0.43049809 </v>
   <v>       0.22376572       0.29647304       0.26057755 </v>
   <v>      -0.34134808      -0.25406883       0.19767248 </v>
   <v>       0.07746382       0.10215798       0.23894141 </v>
   <v>       0.44880836       0.16074633       0.06663699 </v>
   <v>      -0.03372616       0.31971985       0.45495236 </v>
   <v>       0.00809079      -0.42886369       0.14929074 </v>
   <v>      -0.10131658       0.00801615       0.37837620 </v>
   <v>       0.07162349       0.25694210       0.12625823 </v>
   <v>      -0.11211255       0.22413255       0.48130730 </v>
   <v>      -0.14977641       0.05133735       0.43865987 </v>
   <v>       0.14353478      -0.41926891       0.40673115 </v>
   <v>       0.43162478       0.37227303       0.04760163 </v>
   <v>      -0.15662137      -0.11250240       0.08063559 </v>
   <v>      -0.25061266       0.29701282       0.00748618 </v>
   <v>       0.18732340      -0.43553065       0.20523286 </v>
   <v>      -0.03229793      -0.09134351       0.10747376 </v>
   <v>      -0.11605544       0.33031412       0.00870983 </v>
   <v>       0.31971679      -0.20596654       0.34423724 </v>
   <v>      -0.27890460       0.15312017      -0.01906129 </v>
   <v>      -0.14838440      -0.05827025       0.02632028 </v>
   <v>       0.31368713       0.01880457       0.44695845 </v>
   <v>       0.39475928       0.37764080      -0.46392574 </v>
   <v>      -0.45714649      -0.31990757      -0.45526223 </v>
   <v>      -0.25189892      -0.07609067       0.47227512 </v>
   <v>      -0.17367626       0.28077159      -0.43943123 </v>
   <v>       0.17367626      -0.28077159       0.43943123 </v>
   <v>      -0.30067298       0.36645295      -0.03460933 </v>
   <v>      -0.19161928      -0.25780614       0.06064328 </v>
   <v>       0.03372616      -0.31971985      -0.45495236 </v>
   <v>      -0.14353478       0.41926891      -0.40673115 </v>
   <v>       0.43808196      -0.44244075      -0.42019052 </v>
   <v>       0.27120759      -0.16278329       0.40461896 </v>
   <v>       0.11211255      -0.22413255      -0.48130730 </v>
   <v>       0.27890460      -0.15312017       0.01906129 </v>
   <v>      -0.27120759       0.16278329      -0.40461896 </v>
   <v>      -0.31368713      -0.01880457      -0.44695845 </v>
   <v>       0.29342009       0.25287524      -0.43049809 </v>
   <v>      -0.41338848      -0.14153871      -0.41336956 </v>
   <v>       0.25189892       0.07609067      -0.47227512 </v>
   <v>      -0.44880836      -0.16074633      -0.06663699 </v>
   <v>       0.30067298      -0.36645295       0.03460933 </v>
   <v>       0.14838440       0.05827025      -0.02632028 </v>
   <v>      -0.43162478      -0.37227303      -0.04760163 </v>
   <v>       0.25061266      -0.29701282      -0.00748618 </v>
   <v>       0.40181838       0.05095076      -0.11180538 </v>
   <v>      -0.31971679       0.20596654      -0.34423724 </v>
   <v>       0.11605544      -0.33031412      -0.00870983 </v>
   <v>       0.14977641      -0.05133735      -0.43865987 </v>
   <v>       0.19161928       0.25780614      -0.06064328 </v>
   <v>       0.37558496      -0.38357854      -0.34208670 </v>
   <v>      -0.48746572      -0.30475563      -0.08876618 </v>
   <v>       0.24675760       0.29704996      -0.36982489 </v>
   <v>       0.03229793       0.09134351      -0.10747376 </v>
   <v>      -0.46093226      -0.09876848      -0.35282433 </v>
   <v>       0.15662137       0.11250240      -0.08063559 </v>
   <v>      -0.03087360      -0.29509474      -0.30944206 </v>
   <v>       0.10131658      -0.00801615      -0.37837620 </v>
   <v>       0.32524606      -0.34842508      -0.09116212 </v>
   <v>       0.27981285       0.02873364      -0.14151502 </v>
   <v>      -0.07162349      -0.25694210      -0.12625823 </v>
   <v>      -0.22376572      -0.29647304      -0.26057755 </v>
   <v>      -0.00809079       0.42886369      -0.14929074 </v>
   <v>      -0.43414406      -0.34597712      -0.14870543 </v>
   <v>       0.29303191      -0.49288308      -0.11531704 </v>
   <v>      -0.09128918      -0.24859460      -0.25172012 </v>
   <v>       0.32100233      -0.32887647      -0.27455248 </v>
   <v>       0.00310797       0.41362344      -0.25490969 </v>
   <v>       0.34134808       0.25406883      -0.19767248 </v>
   <v>      -0.18732340       0.43553065      -0.20523286 </v>
   <v>       0.22436781      -0.23825893      -0.17135061 </v>
   <v>      -0.07746382      -0.10215798      -0.23894141 </v>
   <v>      -0.05380836       0.47935295      -0.19893472 </v>
   <v>       0.29314024       0.11124624      -0.21501054 </v>
   <v>      -0.01845032      -0.31753242      -0.18437121 </v>
   <v>       0.37399484       0.04561226      -0.26118175 </v>
   <v>       0.17205015       0.10135029      -0.24380887 </v>
  </varray>
 </structure>
 <varray name="primitive_index" >
  <v type="int" >        1 </v>
  <v type="int" >        5 </v>
  <v type="int" >       45 </v>
  <v type="int" >       12 </v>
  <v type="int" >       66 </v>
  <v type="int" >       68 </v>
  <v type="int" >       69 </v>
  <v type="int" >       60 </v>
  <v type="int" >       52 </v>
  <v type="int" >       54 </v>
  <v type="int" >        2 </v>
  <v type="int" >        3 </v>
  <v type="int" >        4 </v>
  <v type="int" >       48 </v>
  <v type="int" >       11 </v>
  <v type="int" >        9 </v>
  <v type="int" >        6 </v>
  <v type="int" >       49 </v>
  <v type="int" >       13 </v>
  <v type="int" >       14 </v>
  <v type="int" >        7 </v>
  <v type="int" >       15 </v>
  <v type="int" >       67 </v>
  <v type="int" >       18 </v>
  <v type="int" >       50 </v>
  <v type="int" >       65 </v>
  <v type="int" >       51 </v>
  <v type="int" >       61 </v>
  <v type="int" >       77 </v>
  <v type="int" >       55 </v>
  <v type="int" >       73 </v>
  <v type="int" >       47 </v>
  <v type="int" >       33 </v>
  <v type="int" >       28 </v>
  <v type="int" >       74 </v>
  <v type="int" >       59 </v>
  <v type="int" >       10 </v>
  <v type="int" >        8 </v>
  <v type="int" >       53 </v>
  <v type="int" >       63 </v>
  <v type="int" >       58 </v>
  <v type="int" >       72 </v>
  <v type="int" >       57 </v>
  <v type="int" >       64 </v>
  <v type="int" >       19 </v>
  <v type="int" >       16 </v>
  <v type="int" >       17 </v>
  <v type="int" >       23 </v>
  <v type="int" >       35 </v>
  <v type="int" >       29 </v>
  <v type="int" >       56 </v>
  <v type="int" >       62 </v>
  <v type="int" >       78 </v>
  <v type="int" >       79 </v>
  <v type="int" >       20 </v>
  <v type="int" >       24 </v>
  <v type="int" >       34 </v>
  <v type="int" >       90 </v>
  <v type="int" >       32 </v>
  <v type="int" >       27 </v>
  <v type="int" >       21 </v>
  <v type="int" >       22 </v>
  <v type="int" >       25 </v>
  <v type="int" >       94 </v>
  <v type="int" >       89 </v>
  <v type="int" >       97 </v>
  <v type="int" >       92 </v>
  <v type="int" >       41 </v>
  <v type="int" >       82 </v>
  <v type="int" >       76 </v>
  <v type="int" >       91 </v>
  <v type="int" >       30 </v>
  <v type="int" >       95 </v>
  <v type="int" >       26 </v>
  <v type="int" >       42 </v>
  <v type="int" >       70 </v>
  <v type="int" >       96 </v>
  <v type="int" >       71 </v>
  <v type="int" >       43 </v>
  <v type="int" >       85 </v>
  <v type="int" >       75 </v>
  <v type="int" >       37 </v>
  <v type="int" >       38 </v>
  <v type="int" >       80 </v>
  <v type="int" >       83 </v>
  <v type="int" >       88 </v>
  <v type="int" >       93 </v>
  <v type="int" >       81 </v>
  <v type="int" >       39 </v>
  <v type="int" >       31 </v>
  <v type="int" >       87 </v>
  <v type="int" >       98 </v>
  <v type="int" >       86 </v>
  <v type="int" >       46 </v>
  <v type="int" >       84 </v>
  <v type="int" >       40 </v>
  <v type="int" >       44 </v>
  <v type="int" >       36 </v>
  <v type="int" >       99 </v>
  <v type="int" >      100 </v>
 </varray>
 <kpoints>
  <varray name="kpointlist" >
   <v>       0.00000000       0.00000000       0.00000000 </v>
   <v>      -0.08627550       0.01134427      -0.00245416 </v>
   <v>       0.08627550      -0.01134427       0.00245416 </v>
   <v>      -0.00091449      -0.08097421       0.03908220 </v>
   <v>       0.00091449       0.08097421      -0.03908220 </v>
   <v>      -0.00028260       0.00101915      -0.17489109 </v>
   <v>       0.00028260      -0.00101915       0.17489109 </v>
   <v>      -0.08719000      -0.06962995       0.03662805 </v>
   <v>       0.08719000       0.06962995      -0.03662805 </v>
   <v>       0.08536101      -0.09231848       0.04153636 </v>
   <v>      -0.08536101       0.09231848      -0.04153636 </v>
   <v>      -0.08655811       0.01236342      -0.17734525 </v>
   <v>       0.08655811      -0.01236342       0.17734525 </v>
   <v>       0.08599290      -0.01032512      -0.17243693 </v>
   <v>      -0.08599290       0.01032512       0.17243693 </v>
   <v>      -0.00119710      -0.07995506      -0.13580888 </v>
   <v>       0.00119710       0.07995506       0.13580888 </v>
   <v>       0.00063189       0.08199336      -0.21397329 </v>
   <v>      -0.00063189      -0.08199336       0.21397329 </v>
  </varray>
  <varray name="weights" >
   <v>       0.05263158 </v>
   <v>       0.05263158 </v>
   <v>       0.05263158 </v>
   <v>       0.05263158 </v>
   <v>       0.05263158 </v>
   <v>       0.05263158 </v>
   <v>       0.05263158 </v>
   <v>       0.05263158 </v>
   <v>       0.05263158 </v>
   <v>       0.05263158 </v>
   <v>       0.05263158 </v>
   <v>       0.05263158 </v>
   <v>       0.05263158 </v>
   <v>       0.05263158 </v>
   <v>       0.05263158 </v>
   <v>       0.05263158 </v>
   <v>       0.05263158 </v>
   <v>       0.05263158 </v>
   <v>       0.05263158 </v>
  </varray>
 </kpoints>
 <parameters>
  <separator name="general" >
   <i type="string" name="SYSTEM">unknown system</i>
   <i type="logical" name="LCOMPAT"> F  </i>
  </separator>
  <separator name="electronic" >
   <i type="string" name="PREC">high</i>
   <i name="ENMAX">   1000.00000000</i>
   <i name="ENAUG">    644.87300000</i>
   <i name="EDIFF">      0.00000100</i>
   <i type="int" name="IALGO">    38</i>
   <i type="int" name="IWAVPR">    10</i>
   <i type="int" name="NBANDS">   174</i>
   <i name="NELECT">    238.00000000</i>
   <i type="int" name="TURBO">     0</i>
   <i type="int" name="IRESTART">     0</i>
   <i type="int" name="NREBOOT">     0</i>
   <i type="int" name="NMIN">     0</i>
   <i name="EREF">      0.00000000</i>
   <separator name="electronic smearing" >
    <i type="int" name="ISMEAR">     0</i>
    <i name="SIGMA">      0.05000000</i>
    <i name="KSPACING">      0.50000000</i>
    <i type="logical" name="KGAMMA"> T  </i>
   </separator>
   <separator name="electronic projectors" >
    <i type="logical" name="LREAL"> T  </i>
    <v name="ROPT">     -0.00040000     -0.00040000     -0.00040000</v>
    <i type="int" name="LMAXPAW">  -100</i>
    <i type="int" name="LMAXMIX">     2</i>
    <i type="logical" name="NLSPLINE"> F  </i>
   </separator>
   <separator name="electronic startup" >
    <i type="int" name="ISTART">     0</i>
    <i type="int" name="ICHARG">    11</i>
    <i type="int" name="INIWAV">     1</i>
   </separator>
   <separator name="electronic spin" >
    <i type="int" name="ISPIN">     1</i>
    <i type="logical" name="LNONCOLLINEAR"> F  </i>
    <v name="MAGMOM">      1.00000000      1.00000000      1.00000000      1.00000000      1.00000000      1.00000000      1.00000000      1.00000000      1.00000000      1.00000000      1.00000000      1.00000000      1.00000000      1.00000000      1.00000000      1.00000000      1.00000000      1.00000000      1.00000000      1.00000000
      1.00000000      1.00000000      1.00000000      1.00000000      1.00000000      1.00000000      1.00000000      1.00000000      1.00000000      1.00000000      1.00000000      1.00000000      1.00000000      1.00000000      1.00000000      1.00000000      1.00000000      1.00000000      1.00000000      1.00000000
      1.00000000      1.00000000      1.00000000      1.00000000      1.00000000      1.00000000      1.00000000      1.00000000      1.00000000      1.00000000      1.00000000      1.00000000      1.00000000      1.00000000      1.00000000      1.00000000      1.00000000      1.00000000      1.00000000      1.00000000
      1.00000000      1.00000000      1.00000000      1.00000000      1.00000000      1.00000000      1.00000000      1.00000000      1.00000000      1.00000000      1.00000000      1.00000000      1.00000000      1.00000000      1.00000000      1.00000000      1.00000000      1.00000000      1.00000000      1.00000000
      1.00000000      1.00000000      1.00000000      1.00000000      1.00000000      1.00000000      1.00000000      1.00000000      1.00000000      1.00000000      1.00000000      1.00000000      1.00000000      1.00000000      1.00000000      1.00000000      1.00000000      1.00000000      1.00000000      1.00000000
</v>
    <i name="NUPDOWN">     -1.00000000</i>
    <i type="logical" name="LSORBIT"> F  </i>
    <v name="SAXIS">      0.00000000      0.00000000      1.00000000</v>
    <i type="logical" name="LSPIRAL"> F  </i>
    <v name="QSPIRAL">      0.00000000      0.00000000      0.00000000</v>
    <i type="logical" name="LZEROZ"> F  </i>
   </separator>
   <separator name="electronic exchange-correlation" >
    <i type="logical" name="LASPH"> F  </i>
    <i type="logical" name="LMETAGGA"> F  </i>
   </separator>
   <separator name="electronic convergence" >
    <i type="int" name="NELM">   200</i>
    <i type="int" name="NELMDL">    -5</i>
    <i type="int" name="NELMIN">     2</i>
    <i name="ENINI">   1000.00000000</i>
    <separator name="electronic convergence detail" >
     <i type="logical" name="LDIAG"> T  </i>
     <i type="logical" name="LSUBROT"> F  </i>
     <i name="WEIMIN">      0.00000000</i>
     <i name="EBREAK">      0.00000000</i>
     <i name="DEPER">      0.30000000</i>
     <i type="int" name="NRMM">     4</i>
     <i name="TIME">      0.40000000</i>
    </separator>
   </separator>
   <separator name="electronic mixer" >
    <i name="AMIX">      0.40000000</i>
    <i name="BMIX">      1.00000000</i>
    <i name="AMIN">      0.10000000</i>
    <i name="AMIX_MAG">      1.60000000</i>
    <i name="BMIX_MAG">      1.00000000</i>
    <separator name="electronic mixer details" >
     <i type="int" name="IMIX">     4</i>
     <i type="logical" name="MIXFIRST"> F  </i>
     <i type="int" name="MAXMIX">   -45</i>
     <i name="WC">    100.00000000</i>
     <i type="int" name="INIMIX">     1</i>
     <i type="int" name="MIXPRE">     1</i>
     <i type="int" name="MREMOVE">     5</i>
    </separator>
   </separator>
   <separator name="electronic dipolcorrection" >
    <i type="logical" name="LDIPOL"> F  </i>
    <i type="logical" name="LMONO"> F  </i>
    <i type="int" name="IDIPOL">     0</i>
    <i name="EPSILON">      1.00000000</i>
    <v name="DIPOL">   -100.00000000   -100.00000000   -100.00000000</v>
    <i name="EFIELD">      0.00000000</i>
   </separator>
  </separator>
  <separator name="grids" >
   <i type="int" name="NGX">    90</i>
   <i type="int" name="NGY">    80</i>
   <i type="int" name="NGZ">   180</i>
   <i type="int" name="NGXF">    90</i>
   <i type="int" name="NGYF">    90</i>
   <i type="int" name="NGZF">   192</i>
   <i type="logical" name="ADDGRID"> F  </i>
  </separator>
  <separator name="ionic" >
   <i type="int" name="NSW">     0</i>
   <i type="int" name="IBRION">    -1</i>
   <i type="int" name="MDALGO">     0</i>
   <i type="int" name="ISIF">     2</i>
   <i name="PSTRESS">      0.00000000</i>
   <i name="EDIFFG">      0.00001000</i>
   <i type="int" name="NFREE">     0</i>
   <i name="POTIM">      0.50000000</i>
   <i name="SMASS">     -3.00000000</i>
   <i name="SCALEE">      1.00000000</i>
  </separator>
  <separator name="ionic md" >
   <i name="TEBEG">      0.00010000</i>
   <i name="TEEND">      0.00010000</i>
   <i type="int" name="NBLOCK">     1</i>
   <i type="int" name="KBLOCK">     1</i>
   <i type="int" name="NPACO">   256</i>
   <i name="APACO">     16.00000000</i>
  </separator>
  <separator name="symmetry" >
   <i type="int" name="ISYM">     2</i>
   <i name="SYMPREC">      0.00001000</i>
  </separator>
  <separator name="dos" >
   <i type="int" name="LORBIT">     0</i>
   <v name="RWIGS">     -1.00000000     -1.00000000     -1.00000000</v>
   <i type="int" name="NEDOS">  2000</i>
   <i name="EMIN">     10.00000000</i>
   <i name="EMAX">    -10.00000000</i>
   <i name="EFERMI">      0.00000000</i>
  </separator>
  <separator name="writing" >
   <i type="int" name="NWRITE">     2</i>
   <i type="logical" name="LWAVE"> T  </i>
   <i type="logical" name="LDOWNSAMPLE"> F  </i>
   <i type="logical" name="LCHARG"> T  </i>
   <i type="logical" name="LPARD"> F  </i>
   <i type="logical" name="LVTOT"> F  </i>
   <i type="logical" name="LVHAR"> F  </i>
   <i type="logical" name="LELF"> F  </i>
   <i type="logical" name="LOPTICS"> F  </i>
   <v name="STM">      0.00000000      0.00000000      0.00000000      0.00000000      0.00000000      0.00000000      0.00000000</v>
  </separator>
  <separator name="performance" >
   <i type="int" name="NPAR">     6</i>
   <i type="int" name="NSIM">    16</i>
   <i type="int" name="NBLK">    -1</i>
   <i type="logical" name="LPLANE"> T  </i>
   <i type="logical" name="LSCALAPACK"> T  </i>
   <i type="logical" name="LSCAAWARE"> F  </i>
   <i type="logical" name="LSCALU"> F  </i>
   <i type="logical" name="LASYNC"> F  </i>
   <i type="logical" name="LORBITALREAL"> F  </i>
  </separator>
  <separator name="miscellaneous" >
   <i type="int" name="IDIOT">     3</i>
   <i type="int" name="ISPECIAL">     0</i>
   <i type="logical" name="LMUSIC"> F  </i>
   <v name="POMASS">     12.01100000     72.61000000      1.00000000</v>
   <v name="DARWINR">      0.00000000      0.00000000      0.00000000</v>
   <v name="DARWINV">      1.00000000      1.00000000      1.00000000</v>
   <i type="logical" name="LCORR"> T  </i>
  </separator>
  <i type="logical" name="GGA_COMPAT"> T  </i>
  <i type="logical" name="LBERRY"> F  </i>
  <i type="int" name="ICORELEVEL">     0</i>
  <i type="logical" name="LDAU"> F  </i>
  <i type="int" name="I_CONSTRAINED_M">     0</i>
  <separator name="electronic exchange-correlation" >
   <i type="string" name="GGA">--</i>
   <i type="int" name="VOSKOWN">     0</i>
   <i type="logical" name="LHFCALC"> F  </i>
   <i type="string" name="PRECFOCK"></i>
   <i type="logical" name="LSYMGRAD"> F  </i>
   <i type="logical" name="LHFONE"> F  </i>
   <i type="logical" name="LRHFCALC"> F  </i>
   <i type="logical" name="LTHOMAS"> F  </i>
   <i type="logical" name="LMODELHF"> F  </i>
   <i name="ENCUT4O">     -1.00000000</i>
   <i type="int" name="EXXOEP">     0</i>
   <i type="int" name="FOURORBIT">     0</i>
   <i name="AEXX">      0.00000000</i>
   <i name="HFALPHA">      0.00000000</i>
   <i name="MCALPHA">      0.00000000</i>
   <i name="ALDAX">      1.00000000</i>
   <i name="AGGAX">      1.00000000</i>
   <i name="ALDAC">      1.00000000</i>
   <i name="AGGAC">      1.00000000</i>
   <i type="int" name="NKREDX">     1</i>
   <i type="int" name="NKREDY">     1</i>
   <i type="int" name="NKREDZ">     1</i>
   <i type="logical" name="SHIFTRED"> F  </i>
   <i type="logical" name="ODDONLY"> F  </i>
   <i type="logical" name="EVENONLY"> F  </i>
   <i type="int" name="LMAXFOCK">     0</i>
   <i type="int" name="NMAXFOCKAE">     0</i>
   <i type="logical" name="LFOCKAEDFT"> F  </i>
   <i name="HFSCREEN">      0.00000000</i>
   <i name="HFSCREENC">      0.00000000</i>
   <i type="int" name="NBANDSGWLOW">     0</i>
  </separator>
  <separator name="vdW DFT" >
   <i type="logical" name="LUSE_VDW"> F  </i>
   <i name="Zab_VDW">     -0.84910000</i>
   <i name="PARAM1">      0.12340000</i>
   <i name="PARAM2">      1.00000000</i>
   <i name="PARAM3">      0.00000000</i>
  </separator>
  <separator name="model GW" >
   <i type="int" name="MODEL_GW">     0</i>
   <i name="MODEL_EPS0">      6.27680857</i>
   <i name="MODEL_ALPHA">      1.00000000</i>
  </separator>
  <separator name="linear response parameters" >
   <i type="logical" name="LEPSILON"> F  </i>
   <i type="logical" name="LRPA"> F  </i>
   <i type="logical" name="LNABLA"> F  </i>
   <i type="logical" name="LVEL"> F  </i>
   <i type="int" name="KINTER">     0</i>
   <i name="CSHIFT">      0.10000000</i>
   <i name="OMEGAMAX">     -1.00000000</i>
   <i name="DEG_THRESHOLD">      0.00200000</i>
   <i name="RTIME">     -0.10000000</i>
   <i name="WPLASMAI">      0.00000000</i>
   <v name="DFIELD">      0.00000000      0.00000000      0.00000000</v>
   <v name="WPLASMA">      0.00000000      0.00000000      0.00000000      0.00000000      0.00000000      0.00000000      0.00000000      0.00000000      0.00000000</v>
  </separator>
  <separator name="orbital magnetization" >
   <i type="logical" name="NUCIND"> F  </i>
   <v name="MAGPOS">      0.00000000      0.00000000      0.00000000</v>
   <i type="logical" name="LNICSALL"> T  </i>
   <i type="logical" name="ORBITALMAG"> F  </i>
   <i type="logical" name="LMAGBLOCH"> F  </i>
   <i type="logical" name="LCHIMAG"> F  </i>
   <i type="logical" name="LGAUGE"> T  </i>
   <i type="int" name="MAGATOM">     0</i>
   <v name="MAGDIPOL">      0.00000000      0.00000000      0.00000000</v>
   <v name="AVECCONST">      0.00000000      0.00000000      0.00000000</v>
  </separator>
  <separator name="response functions" >
   <i type="logical" name="LADDER"> F  </i>
   <i type="logical" name="LRPAFORCE"> F  </i>
   <i type="logical" name="LFXC"> F  </i>
   <i type="logical" name="LHARTREE"> T  </i>
   <i type="int" name="IBSE">     0</i>
   <v type="int" name="KPOINT">    -1     0     0     0</v>
   <i type="logical" name="LTCTE"> F  </i>
   <i type="logical" name="LTETE"> F  </i>
   <i type="logical" name="LTRIPLET"> F  </i>
   <i type="logical" name="LFXCEPS"> F  </i>
   <i type="logical" name="LFXHEG"> F  </i>
   <i type="int" name="NATURALO">     2</i>
   <i type="logical" name="L2ORDER"> F  </i>
   <i type="logical" name="LMP2LT"> F  </i>
   <i type="logical" name="LUSEW"> F  </i>
   <i name="ENCUTGW">     -2.00000000</i>
   <i name="ENCUTGWSOFT">     -2.00000000</i>
   <i name="ENCUTLF">     -1.00000000</i>
   <i type="int" name="LMAXMP2">    -1</i>
   <i name="SCISSOR">      0.00000000</i>
   <i type="int" name="NOMEGA">     0</i>
   <i type="int" name="NOMEGAR">     0</i>
   <i type="int" name="NBANDSGW">    -1</i>
   <i type="int" name="NBANDSO">    -1</i>
   <i type="int" name="NBANDSV">    -1</i>
   <i type="int" name="NELM">   200</i>
   <i type="int" name="NELMHF">     1</i>
   <i type="int" name="DIM">     3</i>
   <i type="int" name="ANTIRES">     0</i>
   <i name="OMEGAMAX">    -30.00000000</i>
   <i name="OMEGAMIN">    -30.00000000</i>
   <i name="OMEGATL">   -200.00000000</i>
   <i type="int" name="OMEGAGRID">   140</i>
   <i name="CSHIFT">     -0.10000000</i>
   <i type="logical" name="SELFENERGY"> F  </i>
   <i type="logical" name="LSPECTRAL"> F  </i>
   <i type="logical" name="LSPECTRALGW"> F  </i>
   <i type="logical" name="LSINGLES"> F  </i>
   <i type="logical" name="LFERMIGW"> F  </i>
   <i type="logical" name="ODDONLYGW"> F  </i>
   <i type="logical" name="EVENONLYGW"> F  </i>
   <i type="int" name="NKREDLFX">     1</i>
   <i type="int" name="NKREDLFY">     1</i>
   <i type="int" name="NKREDLFZ">     1</i>
   <i type="int" name="MAXMEM">  2800</i>
   <i type="int" name="TELESCOPE">     0</i>
   <i type="int" name="TAUPAR">     1</i>
   <i type="int" name="OMEGAPAR">    -1</i>
   <i name="LAMBDA">      1.00000000</i>
  </separator>
  <separator name="External order field" >
   <i name="OFIELD_KAPPA">      0.00000000</i>
   <v name="OFIELD_K">      0.00000000      0.00000000      0.00000000</v>
   <i name="OFIELD_Q6_NEAR">      0.00000000</i>
   <i name="OFIELD_Q6_FAR">      0.00000000</i>
   <i name="OFIELD_A">      0.00000000</i>
  </separator>
 </parameters>
 <atominfo>
  <atoms>     100 </atoms>
  <types>       3 </types>
  <array name="atoms" >
   <dimension dim="1">ion</dimension>
   <field type="string">element</field>
   <field type="int">atomtype</field>
   <set>
    <rc><c>C </c><c>   1</c></rc>
    <rc><c>C </c><c>   1</c></rc>
    <rc><c>C </c><c>   1</c></rc>
    <rc><c>C </c><c>   1</c></rc>
    <rc><c>C </c><c>   1</c></rc>
    <rc><c>C </c><c>   1</c></rc>
    <rc><c>C </c><c>   1</c></rc>
    <rc><c>C </c><c>   1</c></rc>
    <rc><c>C </c><c>   1</c></rc>
    <rc><c>C </c><c>   1</c></rc>
    <rc><c>C </c><c>   1</c></rc>
    <rc><c>C </c><c>   1</c></rc>
    <rc><c>C </c><c>   1</c></rc>
    <rc><c>C </c><c>   1</c></rc>
    <rc><c>C </c><c>   1</c></rc>
    <rc><c>C </c><c>   1</c></rc>
    <rc><c>C </c><c>   1</c></rc>
    <rc><c>C </c><c>   1</c></rc>
    <rc><c>C </c><c>   1</c></rc>
    <rc><c>C </c><c>   1</c></rc>
    <rc><c>C </c><c>   1</c></rc>
    <rc><c>C </c><c>   1</c></rc>
    <rc><c>C </c><c>   1</c></rc>
    <rc><c>C </c><c>   1</c></rc>
    <rc><c>C </c><c>   1</c></rc>
    <rc><c>C </c><c>   1</c></rc>
    <rc><c>C </c><c>   1</c></rc>
    <rc><c>C </c><c>   1</c></rc>
    <rc><c>C </c><c>   1</c></rc>
    <rc><c>C </c><c>   1</c></rc>
    <rc><c>C </c><c>   1</c></rc>
    <rc><c>C </c><c>   1</c></rc>
    <rc><c>C </c><c>   1</c></rc>
    <rc><c>C </c><c>   1</c></rc>
    <rc><c>C </c><c>   1</c></rc>
    <rc><c>C </c><c>   1</c></rc>
    <rc><c>C </c><c>   1</c></rc>
    <rc><c>C </c><c>   1</c></rc>
    <rc><c>C </c><c>   1</c></rc>
    <rc><c>C </c><c>   1</c></rc>
    <rc><c>C </c><c>   1</c></rc>
    <rc><c>C </c><c>   1</c></rc>
    <rc><c>C </c><c>   1</c></rc>
    <rc><c>C </c><c>   1</c></rc>
    <rc><c>Ge</c><c>   2</c></rc>
    <rc><c>Ge</c><c>   2</c></rc>
    <rc><c>H </c><c>   3</c></rc>
    <rc><c>H </c><c>   3</c></rc>
    <rc><c>H </c><c>   3</c></rc>
    <rc><c>H </c><c>   3</c></rc>
    <rc><c>H </c><c>   3</c></rc>
    <rc><c>H </c><c>   3</c></rc>
    <rc><c>H </c><c>   3</c></rc>
    <rc><c>H </c><c>   3</c></rc>
    <rc><c>H </c><c>   3</c></rc>
    <rc><c>H </c><c>   3</c></rc>
    <rc><c>H </c><c>   3</c></rc>
    <rc><c>H </c><c>   3</c></rc>
    <rc><c>H </c><c>   3</c></rc>
    <rc><c>H </c><c>   3</c></rc>
    <rc><c>H </c><c>   3</c></rc>
    <rc><c>H </c><c>   3</c></rc>
    <rc><c>H </c><c>   3</c></rc>
    <rc><c>H </c><c>   3</c></rc>
    <rc><c>H </c><c>   3</c></rc>
    <rc><c>H </c><c>   3</c></rc>
    <rc><c>H </c><c>   3</c></rc>
    <rc><c>H </c><c>   3</c></rc>
    <rc><c>H </c><c>   3</c></rc>
    <rc><c>H </c><c>   3</c></rc>
    <rc><c>H </c><c>   3</c></rc>
    <rc><c>H </c><c>   3</c></rc>
    <rc><c>H </c><c>   3</c></rc>
    <rc><c>H </c><c>   3</c></rc>
    <rc><c>H </c><c>   3</c></rc>
    <rc><c>H </c><c>   3</c></rc>
    <rc><c>H </c><c>   3</c></rc>
    <rc><c>H </c><c>   3</c></rc>
    <rc><c>H </c><c>   3</c></rc>
    <rc><c>H </c><c>   3</c></rc>
    <rc><c>H </c><c>   3</c></rc>
    <rc><c>H </c><c>   3</c></rc>
    <rc><c>H </c><c>   3</c></rc>
    <rc><c>H </c><c>   3</c></rc>
    <rc><c>H </c><c>   3</c></rc>
    <rc><c>H </c><c>   3</c></rc>
    <rc><c>H </c><c>   3</c></rc>
    <rc><c>H </c><c>   3</c></rc>
    <rc><c>H </c><c>   3</c></rc>
    <rc><c>H </c><c>   3</c></rc>
    <rc><c>H </c><c>   3</c></rc>
    <rc><c>H </c><c>   3</c></rc>
    <rc><c>H </c><c>   3</c></rc>
    <rc><c>H </c><c>   3</c></rc>
    <rc><c>H </c><c>   3</c></rc>
    <rc><c>H </c><c>   3</c></rc>
    <rc><c>H </c><c>   3</c></rc>
    <rc><c>H </c><c>   3</c></rc>
    <rc><c>H </c><c>   3</c></rc>
    <rc><c>H </c><c>   3</c></rc>
   </set>
  </array>
  <array name="atomtypes" >
   <dimension dim="1">type</dimension>
   <field type="int">atomspertype</field>
   <field type="string">element</field>
   <field>mass</field>
   <field>valence</field>
   <field type="string">pseudopotential</field>
   <set>
    <rc><c>  44</c><c>C </c><c>     12.01100000</c><c>      4.00000000</c><c>  PAW_PBE C 08Apr2002                   </c></rc>
    <rc><c>   2</c><c>Ge</c><c>     72.61000000</c><c>      4.00000000</c><c>  PAW_PBE Ge 05Jan2001                  </c></rc>
    <rc><c>  54</c><c>H </c><c>      1.00000000</c><c>      1.00000000</c><c>  PAW_PBE H 15Jun2001                   </c></rc>
   </set>
  </array>
 </atominfo>
 <structure name="initialpos" >
  <crystal>
   <varray name="basis" >
    <v>       8.19597172       0.08687475       0.02684671 </v>
    <v>      -1.07767888       7.69236170      -0.09681698 </v>
    <v>       0.23313944      -3.71271844      16.61424604 </v>
   </varray>
   <i name="volume">   1046.13476195 </i>
   <varray name="rec_basis" >
    <v>       0.12182306       0.01709364       0.00211036 </v>
    <v>      -0.00147498       0.13015879       0.02910676 </v>
    <v>      -0.00020545       0.00073086       0.06035551 </v>
   </varray>
  </crystal>
  <varray name="positions" >
   <v>       0.67899767       0.32887647       0.27455248 </v>
   <v>       0.01845032       0.31753242       0.18437121 </v>
   <v>       0.67475394       0.34842508       0.09116212 </v>
   <v>       0.72018715       0.97126636       0.14151502 </v>
   <v>       0.62441504       0.38357854       0.34208670 </v>
   <v>       0.09128918       0.24859460       0.25172012 </v>
   <v>       0.05380836       0.52064705       0.19893472 </v>
   <v>       0.74938734       0.29701282       0.00748618 </v>
   <v>       0.48746572       0.30475563       0.08876618 </v>
   <v>       0.84337863       0.88749760       0.08063559 </v>
   <v>       0.70685976       0.88875376       0.21501054 </v>
   <v>       0.56191804       0.44244075       0.42019052 </v>
   <v>       0.45714649       0.31990757       0.45526223 </v>
   <v>       0.60524072       0.62235920       0.46392574 </v>
   <v>       0.41338848       0.14153871       0.41336956 </v>
   <v>       0.39475928       0.37764080       0.53607426 </v>
   <v>       0.54285351       0.68009243       0.54473777 </v>
   <v>       0.70657991       0.74712476       0.43049809 </v>
   <v>       0.31368713       0.01880457       0.44695845 </v>
   <v>       0.43808196       0.55755925       0.57980948 </v>
   <v>       0.29342009       0.25287524       0.56950191 </v>
   <v>       0.58661152       0.85846129       0.58663044 </v>
   <v>       0.74810108       0.92390933       0.47227512 </v>
   <v>       0.27120759       0.83721671       0.40461896 </v>
   <v>       0.25189892       0.07609067       0.52772488 </v>
   <v>       0.37558496       0.61642146       0.65791330 </v>
   <v>       0.68631287       0.98119543       0.55304155 </v>
   <v>       0.85022359       0.05133735       0.43865987 </v>
   <v>       0.17367626       0.71922841       0.43943123 </v>
   <v>       0.14977641       0.94866265       0.56134013 </v>
   <v>       0.32100233       0.67112353       0.72544752 </v>
   <v>       0.72879241       0.16278329       0.59538104 </v>
   <v>       0.88788745       0.22413255       0.48130730 </v>
   <v>       0.11211255       0.77586745       0.51869270 </v>
   <v>       0.82632374       0.28077159       0.56056877 </v>
   <v>       0.98154968       0.68246758       0.81562879 </v>
   <v>       0.32524606       0.65157492       0.90883788 </v>
   <v>       0.27981285       0.02873364       0.85848498 </v>
   <v>       0.90871082       0.75140540       0.74827988 </v>
   <v>       0.94619164       0.47935295       0.80106528 </v>
   <v>       0.25061266       0.70298718       0.99251382 </v>
   <v>       0.51253428       0.69524437       0.91123382 </v>
   <v>       0.15662137       0.11250240       0.91936441 </v>
   <v>       0.29314024       0.11124624       0.78498946 </v>
   <v>       0.77563219       0.23825893       0.17135061 </v>
   <v>       0.22436781       0.76174107       0.82864939 </v>
   <v>       0.07162349       0.25694210       0.12625823 </v>
   <v>       0.70696809       0.49288308       0.11531704 </v>
   <v>       0.59818162       0.94904924       0.11180538 </v>
   <v>       0.22376572       0.29647304       0.26057755 </v>
   <v>       0.07746382       0.10215798       0.23894141 </v>
   <v>       0.03087360       0.29509474       0.30944206 </v>
   <v>       0.18732340       0.56446935       0.20523286 </v>
   <v>       0.99689203       0.58637656       0.25490969 </v>
   <v>       0.00809079       0.57113631       0.14929074 </v>
   <v>       0.69932702       0.36645295       0.96539067 </v>
   <v>       0.72109540       0.15312017       0.98093871 </v>
   <v>       0.88394456       0.33031412       0.00870983 </v>
   <v>       0.43162478       0.37227303       0.04760163 </v>
   <v>       0.43414406       0.34597712       0.14870543 </v>
   <v>       0.44880836       0.16074633       0.06663699 </v>
   <v>       0.80838072       0.74219386       0.06064328 </v>
   <v>       0.96770207       0.90865649       0.10747376 </v>
   <v>       0.85161560       0.94172975       0.02632028 </v>
   <v>       0.65865192       0.74593117       0.19767248 </v>
   <v>       0.62600516       0.95438774       0.26118175 </v>
   <v>       0.82794985       0.89864971       0.24380887 </v>
   <v>       0.46093226       0.09876848       0.35282433 </v>
   <v>       0.75324240       0.70295004       0.36982489 </v>
   <v>       0.24675760       0.29704996       0.63017511 </v>
   <v>       0.53906774       0.90123152       0.64717567 </v>
   <v>       0.31971679       0.79403346       0.34423724 </v>
   <v>       0.89868342       0.00801615       0.37837620 </v>
   <v>       0.14353478       0.58073109       0.40673115 </v>
   <v>       0.10131658       0.99198385       0.62162380 </v>
   <v>       0.68028321       0.20596654       0.65576276 </v>
   <v>       0.96627384       0.31971985       0.45495236 </v>
   <v>       0.03372616       0.68028015       0.54504764 </v>
   <v>       0.85646522       0.41926891       0.59326885 </v>
   <v>       0.92837651       0.74305790       0.87374177 </v>
   <v>       0.29303191       0.50711692       0.88468296 </v>
   <v>       0.40181838       0.05095076       0.88819462 </v>
   <v>       0.77623428       0.70352696       0.73942245 </v>
   <v>       0.92253618       0.89784202       0.76105859 </v>
   <v>       0.96912640       0.70490526       0.69055794 </v>
   <v>       0.81267660       0.43553065       0.79476714 </v>
   <v>       0.00310797       0.41362344       0.74509031 </v>
   <v>       0.99190921       0.42886369       0.85070926 </v>
   <v>       0.30067298       0.63354705       0.03460933 </v>
   <v>       0.27890460       0.84687983       0.01906129 </v>
   <v>       0.11605544       0.66968588       0.99129017 </v>
   <v>       0.56837522       0.62772697       0.95239837 </v>
   <v>       0.56585594       0.65402288       0.85129457 </v>
   <v>       0.55119164       0.83925367       0.93336301 </v>
   <v>       0.19161928       0.25780614       0.93935672 </v>
   <v>       0.03229793       0.09134351       0.89252624 </v>
   <v>       0.14838440       0.05827025       0.97367972 </v>
   <v>       0.34134808       0.25406883       0.80232752 </v>
   <v>       0.37399484       0.04561226       0.73881825 </v>
   <v>       0.17205015       0.10135029       0.75619113 </v>
  </varray>
 </structure>
 <calculation>
  <scstep>
   <time name="dav">   32.35   32.50</time>
   <time name="total">   32.38   32.54</time>
   <energy>
    <i name="alphaZ">    257.24646823 </i>
    <i name="ewald">  -1430.02610980 </i>
    <i name="hartreedc">  -5702.39822512 </i>
    <i name="XCdc">    738.23518448 </i>
    <i name="pawpsdc">  18804.91891191 </i>
    <i name="pawaedc"> -18807.73323486 </i>
    <i name="eentropy">     -0.00889821 </i>
    <i name="bandstr">     16.40768194 </i>
    <i name="atom">   7359.18108745 </i>
    <i name="e_fr_energy">   1235.82286603 </i>
    <i name="e_wo_entrp">   1235.83176424 </i>
    <i name="e_0_energy">   1235.82731513 </i>
   </energy>
  </scstep>
  <scstep>
   <time name="dav">   39.70   39.84</time>
   <time name="total">   39.70   39.84</time>
   <energy>
    <i name="e_fr_energy">   -443.34354030 </i>
    <i name="e_wo_entrp">   -443.34354030 </i>
    <i name="e_0_energy">   -443.34354030 </i>
   </energy>
  </scstep>
  <scstep>
   <time name="dav">   39.13   39.27</time>
   <time name="total">   39.13   39.28</time>
   <energy>
    <i name="e_fr_energy">   -598.29689551 </i>
    <i name="e_wo_entrp">   -598.29689551 </i>
    <i name="e_0_energy">   -598.29689551 </i>
   </energy>
  </scstep>
  <scstep>
   <time name="dav">   38.75   38.90</time>
   <time name="total">   38.75   38.90</time>
   <energy>
    <i name="e_fr_energy">   -601.44126045 </i>
    <i name="e_wo_entrp">   -601.44126045 </i>
    <i name="e_0_energy">   -601.44126045 </i>
   </energy>
  </scstep>
  <scstep>
   <time name="dav">   38.38   38.54</time>
   <time name="total">   38.38   38.54</time>
   <energy>
    <i name="e_fr_energy">   -601.51746124 </i>
    <i name="e_wo_entrp">   -601.51746124 </i>
    <i name="e_0_energy">   -601.51746124 </i>
   </energy>
  </scstep>
  <scstep>
   <time name="dav">   41.41   41.58</time>
   <time name="total">   41.42   41.58</time>
   <energy>
    <i name="e_fr_energy">   -601.52041492 </i>
    <i name="e_wo_entrp">   -601.52041492 </i>
    <i name="e_0_energy">   -601.52041492 </i>
   </energy>
  </scstep>
  <scstep>
   <time name="dav">   39.15   39.30</time>
   <time name="total">   39.15   39.31</time>
   <energy>
    <i name="e_fr_energy">   -601.52050455 </i>
    <i name="e_wo_entrp">   -601.52050455 </i>
    <i name="e_0_energy">   -601.52050455 </i>
   </energy>
  </scstep>
  <scstep>
   <time name="dav">   41.99   42.17</time>
   <time name="total">   41.99   42.17</time>
   <energy>
    <i name="e_fr_energy">   -601.52050817 </i>
    <i name="e_wo_entrp">   -601.52050817 </i>
    <i name="e_0_energy">   -601.52050817 </i>
   </energy>
  </scstep>
  <scstep>
   <time name="dav">   33.95   34.09</time>
   <time name="total">   33.95   34.09</time>
   <energy>
    <i name="alphaZ">    257.24646823 </i>
    <i name="ewald">  -1430.02610980 </i>
    <i name="hartreedc">  -5702.39822512 </i>
    <i name="XCdc">    738.23518448 </i>
    <i name="pawpsdc">  18804.91891191 </i>
    <i name="pawaedc"> -18807.73323486 </i>
    <i name="eentropy">     -0.00000000 </i>
    <i name="bandstr">  -1820.94459063 </i>
    <i name="atom">   7359.18108745 </i>
    <i name="e_fr_energy">   -601.52050834 </i>
    <i name="e_wo_entrp">   -601.52050834 </i>
    <i name="e_0_energy">   -601.52050834 </i>
   </energy>
  </scstep>
  <structure>
   <crystal>
    <varray name="basis" >
     <v>       8.19597172       0.08687475       0.02684671 </v>
     <v>      -1.07767888       7.69236170      -0.09681698 </v>
     <v>       0.23313944      -3.71271844      16.61424604 </v>
    </varray>
    <i name="volume">   1046.13476195 </i>
    <varray name="rec_basis" >
     <v>       0.12182306       0.01709364       0.00211036 </v>
     <v>      -0.00147498       0.13015879       0.02910676 </v>
     <v>      -0.00020545       0.00073086       0.06035551 </v>
    </varray>
   </crystal>
   <varray name="positions" >
    <v>       0.67899767       0.32887647       0.27455248 </v>
    <v>       0.01845032       0.31753242       0.18437121 </v>
    <v>       0.67475394       0.34842508       0.09116212 </v>
    <v>       0.72018715       0.97126636       0.14151502 </v>
    <v>       0.62441504       0.38357854       0.34208670 </v>
    <v>       0.09128918       0.24859460       0.25172012 </v>
    <v>       0.05380836       0.52064705       0.19893472 </v>
    <v>       0.74938734       0.29701282       0.00748618 </v>
    <v>       0.48746572       0.30475563       0.08876618 </v>
    <v>       0.84337863       0.88749760       0.08063559 </v>
    <v>       0.70685976       0.88875376       0.21501054 </v>
    <v>       0.56191804       0.44244075       0.42019052 </v>
    <v>       0.45714649       0.31990757       0.45526223 </v>
    <v>       0.60524072       0.62235920       0.46392574 </v>
    <v>       0.41338848       0.14153871       0.41336956 </v>
    <v>       0.39475928       0.37764080       0.53607426 </v>
    <v>       0.54285351       0.68009243       0.54473777 </v>
    <v>       0.70657991       0.74712476       0.43049809 </v>
    <v>       0.31368713       0.01880457       0.44695845 </v>
    <v>       0.43808196       0.55755925       0.57980948 </v>
    <v>       0.29342009       0.25287524       0.56950191 </v>
    <v>       0.58661152       0.85846129       0.58663044 </v>
    <v>       0.74810108       0.92390933       0.47227512 </v>
    <v>       0.27120759       0.83721671       0.40461896 </v>
    <v>       0.25189892       0.07609067       0.52772488 </v>
    <v>       0.37558496       0.61642146       0.65791330 </v>
    <v>       0.68631287       0.98119543       0.55304155 </v>
    <v>       0.85022359       0.05133735       0.43865987 </v>
    <v>       0.17367626       0.71922841       0.43943123 </v>
    <v>       0.14977641       0.94866265       0.56134013 </v>
    <v>       0.32100233       0.67112353       0.72544752 </v>
    <v>       0.72879241       0.16278329       0.59538104 </v>
    <v>       0.88788745       0.22413255       0.48130730 </v>
    <v>       0.11211255       0.77586745       0.51869270 </v>
    <v>       0.82632374       0.28077159       0.56056877 </v>
    <v>       0.98154968       0.68246758       0.81562879 </v>
    <v>       0.32524606       0.65157492       0.90883788 </v>
    <v>       0.27981285       0.02873364       0.85848498 </v>
    <v>       0.90871082       0.75140540       0.74827988 </v>
    <v>       0.94619164       0.47935295       0.80106528 </v>
    <v>       0.25061266       0.70298718       0.99251382 </v>
    <v>       0.51253428       0.69524437       0.91123382 </v>
    <v>       0.15662137       0.11250240       0.91936441 </v>
    <v>       0.29314024       0.11124624       0.78498946 </v>
    <v>       0.77563219       0.23825893       0.17135061 </v>
    <v>       0.22436781       0.76174107       0.82864939 </v>
    <v>       0.07162349       0.25694210       0.12625823 </v>
    <v>       0.70696809       0.49288308       0.11531704 </v>
    <v>       0.59818162       0.94904924       0.11180538 </v>
    <v>       0.22376572       0.29647304       0.26057755 </v>
    <v>       0.07746382       0.10215798       0.23894141 </v>
    <v>       0.03087360       0.29509474       0.30944206 </v>
    <v>       0.18732340       0.56446935       0.20523286 </v>
    <v>       0.99689203       0.58637656       0.25490969 </v>
    <v>       0.00809079       0.57113631       0.14929074 </v>
    <v>       0.69932702       0.36645295       0.96539067 </v>
    <v>       0.72109540       0.15312017       0.98093871 </v>
    <v>       0.88394456       0.33031412       0.00870983 </v>
    <v>       0.43162478       0.37227303       0.04760163 </v>
    <v>       0.43414406       0.34597712       0.14870543 </v>
    <v>       0.44880836       0.16074633       0.06663699 </v>
    <v>       0.80838072       0.74219386       0.06064328 </v>
    <v>       0.96770207       0.90865649       0.10747376 </v>
    <v>       0.85161560       0.94172975       0.02632028 </v>
    <v>       0.65865192       0.74593117       0.19767248 </v>
    <v>       0.62600516       0.95438774       0.26118175 </v>
    <v>       0.82794985       0.89864971       0.24380887 </v>
    <v>       0.46093226       0.09876848       0.35282433 </v>
    <v>       0.75324240       0.70295004       0.36982489 </v>
    <v>       0.24675760       0.29704996       0.63017511 </v>
    <v>       0.53906774       0.90123152       0.64717567 </v>
    <v>       0.31971679       0.79403346       0.34423724 </v>
    <v>       0.89868342       0.00801615       0.37837620 </v>
    <v>       0.14353478       0.58073109       0.40673115 </v>
    <v>       0.10131658       0.99198385       0.62162380 </v>
    <v>       0.68028321       0.20596654       0.65576276 </v>
    <v>       0.96627384       0.31971985       0.45495236 </v>
    <v>       0.03372616       0.68028015       0.54504764 </v>
    <v>       0.85646522       0.41926891       0.59326885 </v>
    <v>       0.92837651       0.74305790       0.87374177 </v>
    <v>       0.29303191       0.50711692       0.88468296 </v>
    <v>       0.40181838       0.05095076       0.88819462 </v>
    <v>       0.77623428       0.70352696       0.73942245 </v>
    <v>       0.92253618       0.89784202       0.76105859 </v>
    <v>       0.96912640       0.70490526       0.69055794 </v>
    <v>       0.81267660       0.43553065       0.79476714 </v>
    <v>       0.00310797       0.41362344       0.74509031 </v>
    <v>       0.99190921       0.42886369       0.85070926 </v>
    <v>       0.30067298       0.63354705       0.03460933 </v>
    <v>       0.27890460       0.84687983       0.01906129 </v>
    <v>       0.11605544       0.66968588       0.99129017 </v>
    <v>       0.56837522       0.62772697       0.95239837 </v>
    <v>       0.56585594       0.65402288       0.85129457 </v>
    <v>       0.55119164       0.83925367       0.93336301 </v>
    <v>       0.19161928       0.25780614       0.93935672 </v>
    <v>       0.03229793       0.09134351       0.89252624 </v>
    <v>       0.14838440       0.05827025       0.97367972 </v>
    <v>       0.34134808       0.25406883       0.80232752 </v>
    <v>       0.37399484       0.04561226       0.73881825 </v>
    <v>       0.17205015       0.10135029       0.75619113 </v>
   </varray>
  </structure>
  <varray name="forces" >
   <v>       0.05621996      -0.01243629      -0.06169992 </v>
   <v>       0.03950498       0.05892613       0.01805827 </v>
   <v>       0.05863586      -0.08969039       0.05492303 </v>
   <v>       0.03845978      -0.04410103      -0.04369918 </v>
   <v>      -0.07743812       0.04617968       0.13937399 </v>
   <v>       0.01658410      -0.02925420      -0.00344706 </v>
   <v>      -0.02769793      -0.05763480      -0.02543021 </v>
   <v>      -0.00633482      -0.01675667      -0.03781557 </v>
   <v>      -0.04590483      -0.02759210       0.02373684 </v>
   <v>      -0.06209213       0.04224034       0.07293599 </v>
   <v>       0.03457095       0.07217932      -0.04457746 </v>
   <v>       0.10987482       0.37402093      -0.00383797 </v>
   <v>      -0.06549074      -0.18962823       0.13114228 </v>
   <v>      -0.16271015      -0.39470796       0.01488132 </v>
   <v>       0.00470589       0.22638618       0.00743079 </v>
   <v>       0.16271015       0.39470796      -0.01488132 </v>
   <v>       0.06549074       0.18962823      -0.13114228 </v>
   <v>       0.15128596       0.24362427      -0.00516894 </v>
   <v>      -0.04731107      -0.04869683       0.10283704 </v>
   <v>      -0.10987482      -0.37402093       0.00383797 </v>
   <v>      -0.15128596      -0.24362427       0.00516894 </v>
   <v>      -0.00470589      -0.22638618      -0.00743079 </v>
   <v>      -0.02248699      -0.19639760       0.01649101 </v>
   <v>      -0.00109594       0.07873582      -0.01246990 </v>
   <v>       0.02248699       0.19639760      -0.01649101 </v>
   <v>       0.07743812      -0.04617968      -0.13937399 </v>
   <v>       0.04731107       0.04869683      -0.10283704 </v>
   <v>       0.07952808       0.09479774      -0.00363513 </v>
   <v>       0.01478438       0.05961770       0.05280254 </v>
   <v>      -0.07952808      -0.09479774       0.00363513 </v>
   <v>      -0.05621996       0.01243629       0.06169992 </v>
   <v>       0.00109594      -0.07873582       0.01246990 </v>
   <v>       0.03206167      -0.07284367      -0.04991079 </v>
   <v>      -0.03206167       0.07284367       0.04991079 </v>
   <v>      -0.01478438      -0.05961770      -0.05280254 </v>
   <v>      -0.03950498      -0.05892613      -0.01805827 </v>
   <v>      -0.05863586       0.08969039      -0.05492303 </v>
   <v>      -0.03845978       0.04410103       0.04369918 </v>
   <v>      -0.01658410       0.02925420       0.00344706 </v>
   <v>       0.02769793       0.05763480       0.02543021 </v>
   <v>       0.00633482       0.01675667       0.03781557 </v>
   <v>       0.04590483       0.02759210      -0.02373684 </v>
   <v>       0.06209213      -0.04224034      -0.07293599 </v>
   <v>      -0.03457095      -0.07217932       0.04457746 </v>
   <v>      -0.10895515       0.05404781       0.04683059 </v>
   <v>       0.10895515      -0.05404781      -0.04683059 </v>
   <v>      -0.00653460      -0.00478607      -0.00371005 </v>
   <v>       0.02719140       0.13535920       0.09755379 </v>
   <v>      -0.00880289      -0.00375954      -0.00042635 </v>
   <v>      -0.00362675       0.00210523      -0.01117212 </v>
   <v>      -0.00125174       0.05118891       0.01413082 </v>
   <v>       0.00746639      -0.00267668      -0.01155935 </v>
   <v>      -0.00234260       0.00387330       0.00168671 </v>
   <v>      -0.00011993       0.00274456       0.00571998 </v>
   <v>       0.00227556      -0.00230275       0.00760597 </v>
   <v>       0.01195932      -0.01512106       0.00799839 </v>
   <v>       0.00373194       0.00947855       0.01745203 </v>
   <v>      -0.00182748       0.00279712      -0.00173144 </v>
   <v>      -0.00260910       0.00197566       0.01561960 </v>
   <v>      -0.00119698       0.00433638       0.00635666 </v>
   <v>       0.01355738       0.00583376       0.00203639 </v>
   <v>      -0.03176491      -0.08256535       0.03315259 </v>
   <v>       0.00572115      -0.00408647       0.00266488 </v>
   <v>      -0.00080220      -0.00005264      -0.00756343 </v>
   <v>       0.00500250      -0.03461659      -0.09008969 </v>
   <v>      -0.00753551      -0.00451179       0.00587450 </v>
   <v>       0.01776307       0.00512488       0.00654245 </v>
   <v>      -0.00165442       0.00361150       0.00756152 </v>
   <v>      -0.00310213       0.01047510       0.00208485 </v>
   <v>       0.00310213      -0.01047510      -0.00208485 </v>
   <v>       0.00165442      -0.00361150      -0.00756152 </v>
   <v>       0.01061332       0.00226667       0.00735259 </v>
   <v>       0.00016847       0.00446375      -0.00189131 </v>
   <v>       0.01077250      -0.02631175      -0.00559087 </v>
   <v>      -0.00016847      -0.00446375       0.00189131 </v>
   <v>      -0.01061332      -0.00226667      -0.00735259 </v>
   <v>      -0.00305561      -0.00638858       0.00003818 </v>
   <v>       0.00305561       0.00638858      -0.00003818 </v>
   <v>      -0.01077250       0.02631175       0.00559087 </v>
   <v>       0.00653460       0.00478607       0.00371005 </v>
   <v>      -0.02719140      -0.13535920      -0.09755379 </v>
   <v>       0.00880289       0.00375954       0.00042635 </v>
   <v>       0.00362675      -0.00210523       0.01117212 </v>
   <v>       0.00125174      -0.05118891      -0.01413082 </v>
   <v>      -0.00746639       0.00267668       0.01155935 </v>
   <v>       0.00234260      -0.00387330      -0.00168671 </v>
   <v>       0.00011993      -0.00274456      -0.00571998 </v>
   <v>      -0.00227556       0.00230275      -0.00760597 </v>
   <v>      -0.01195932       0.01512106      -0.00799839 </v>
   <v>      -0.00373194      -0.00947855      -0.01745203 </v>
   <v>       0.00182748      -0.00279712       0.00173144 </v>
   <v>       0.00260910      -0.00197566      -0.01561960 </v>
   <v>       0.00119698      -0.00433638      -0.00635666 </v>
   <v>      -0.01355738      -0.00583376      -0.00203639 </v>
   <v>       0.03176491       0.08256535      -0.03315259 </v>
   <v>      -0.00572115       0.00408647      -0.00266488 </v>
   <v>       0.00080220       0.00005264       0.00756343 </v>
   <v>      -0.00500250       0.03461659       0.09008969 </v>
   <v>       0.00753551       0.00451179      -0.00587450 </v>
   <v>      -0.01776307      -0.00512488      -0.00654245 </v>
  </varray>
  <varray name="stress" >
   <v>      -2.05559603      -1.50666816      -0.36660134 </v>
   <v>      -1.50666812      -2.52325683      -1.77707006 </v>
   <v>      -0.36660137      -1.77707003      -7.15637510 </v>
  </varray>
  <energy>
   <i name="e_fr_energy">   -607.84016829 </i>
   <i name="e_wo_entrp">   -607.84016829 </i>
   <i name="e_0_energy">     -0.00000000 </i>
  </energy>
  <time name="totalsc">  400.78  403.07</time>
  <eigenvalues>
   <array>
    <dimension dim="1">band</dimension>
    <dimension dim="2">kpoint</dimension>
    <dimension dim="3">spin</dimension>
    <field>eigene</field>
    <field>occ</field>
    <set>
     <set comment="spin 1">
      <set comment="kpoint 1">
       <r>  -17.9826    1.0000 </r>
       <r>  -17.3462    1.0000 </r>
       <r>  -16.9146    1.0000 </r>
       <r>  -16.0767    1.0000 </r>
       <r>  -16.0502    1.0000 </r>
       <r>  -15.6390    1.0000 </r>
       <r>  -15.5741    1.0000 </r>
       <r>  -15.2185    1.0000 </r>
       <r>  -15.2036    1.0000 </r>
       <r>  -15.1548    1.0000 </r>
       <r>  -15.1337    1.0000 </r>
       <r>  -15.1207    1.0000 </r>
       <r>  -14.8879    1.0000 </r>
       <r>  -14.6129    1.0000 </r>
       <r>  -14.1064    1.0000 </r>
       <r>  -13.9551    1.0000 </r>
       <r>  -13.5743    1.0000 </r>
       <r>  -13.5380    1.0000 </r>
       <r>  -12.9211    1.0000 </r>
       <r>  -12.9014    1.0000 </r>
       <r>  -12.7867    1.0000 </r>
       <r>  -12.7692    1.0000 </r>
       <r>  -12.6902    1.0000 </r>
       <r>  -12.6808    1.0000 </r>
       <r>  -12.6102    1.0000 </r>
       <r>  -12.2933    1.0000 </r>
       <r>  -11.3336    1.0000 </r>
       <r>  -11.0330    1.0000 </r>
       <r>  -10.8784    1.0000 </r>
       <r>  -10.8406    1.0000 </r>
       <r>  -10.7321    1.0000 </r>
       <r>  -10.3083    1.0000 </r>
       <r>  -10.3021    1.0000 </r>
       <r>  -10.1035    1.0000 </r>
       <r>  -10.0981    1.0000 </r>
       <r>   -9.9479    1.0000 </r>
       <r>   -9.9359    1.0000 </r>
       <r>   -9.8490    1.0000 </r>
       <r>   -8.7839    1.0000 </r>
       <r>   -8.7434    1.0000 </r>
       <r>   -8.6291    1.0000 </r>
       <r>   -8.4196    1.0000 </r>
       <r>   -8.3388    1.0000 </r>
       <r>   -7.9821    1.0000 </r>
       <r>   -7.9678    1.0000 </r>
       <r>   -7.3723    1.0000 </r>
       <r>   -7.2786    1.0000 </r>
       <r>   -7.1449    1.0000 </r>
       <r>   -7.0835    1.0000 </r>
       <r>   -7.0743    1.0000 </r>
       <r>   -7.0047    1.0000 </r>
       <r>   -6.9322    1.0000 </r>
       <r>   -6.8719    1.0000 </r>
       <r>   -6.7785    1.0000 </r>
       <r>   -6.6177    1.0000 </r>
       <r>   -6.4921    1.0000 </r>
       <r>   -6.4146    1.0000 </r>
       <r>   -6.4128    1.0000 </r>
       <r>   -6.3325    1.0000 </r>
       <r>   -6.2943    1.0000 </r>
       <r>   -6.1956    1.0000 </r>
       <r>   -6.1451    1.0000 </r>
       <r>   -6.1289    1.0000 </r>
       <r>   -5.9751    1.0000 </r>
       <r>   -5.9314    1.0000 </r>
       <r>   -5.9169    1.0000 </r>
       <r>   -5.9122    1.0000 </r>
       <r>   -5.8073    1.0000 </r>
       <r>   -5.7759    1.0000 </r>
       <r>   -5.7342    1.0000 </r>
       <r>   -5.6395    1.0000 </r>
       <r>   -5.6001    1.0000 </r>
       <r>   -5.5497    1.0000 </r>
       <r>   -5.5202    1.0000 </r>
       <r>   -5.4110    1.0000 </r>
       <r>   -5.3836    1.0000 </r>
       <r>   -5.3526    1.0000 </r>
       <r>   -5.2246    1.0000 </r>
       <r>   -5.1776    1.0000 </r>
       <r>   -5.1184    1.0000 </r>
       <r>   -5.0728    1.0000 </r>
       <r>   -5.0579    1.0000 </r>
       <r>   -4.7362    1.0000 </r>
       <r>   -4.6286    1.0000 </r>
       <r>   -4.5194    1.0000 </r>
       <r>   -4.3813    1.0000 </r>
       <r>   -4.3175    1.0000 </r>
       <r>   -4.3058    1.0000 </r>
       <r>   -4.2777    1.0000 </r>
       <r>   -4.2675    1.0000 </r>
       <r>   -4.2429    1.0000 </r>
       <r>   -4.1727    1.0000 </r>
       <r>   -4.1495    1.0000 </r>
       <r>   -4.1459    1.0000 </r>
       <r>   -4.1054    1.0000 </r>
       <r>   -4.0635    1.0000 </r>
       <r>   -4.0055    1.0000 </r>
       <r>   -3.9937    1.0000 </r>
       <r>   -3.9745    1.0000 </r>
       <r>   -3.7003    1.0000 </r>
       <r>   -3.6037    1.0000 </r>
       <r>   -3.5951    1.0000 </r>
       <r>   -3.5598    1.0000 </r>
       <r>   -3.5040    1.0000 </r>
       <r>   -3.4612    1.0000 </r>
       <r>   -3.1424    1.0000 </r>
       <r>   -2.8891    1.0000 </r>
       <r>   -2.6923    1.0000 </r>
       <r>   -2.6570    1.0000 </r>
       <r>   -2.6027    1.0000 </r>
       <r>   -2.4008    1.0000 </r>
       <r>   -2.2646    1.0000 </r>
       <r>   -1.9997    1.0000 </r>
       <r>   -1.9399    1.0000 </r>
       <r>   -1.9378    1.0000 </r>
       <r>   -1.8848    1.0000 </r>
       <r>   -1.5548    1.0000 </r>
       <r>   -1.0278    1.0000 </r>
       <r>   -0.0531    1.0000 </r>
       <r>    0.7144    0.0000 </r>
       <r>    2.2866    0.0000 </r>
       <r>    2.6201    0.0000 </r>
       <r>    2.7608    0.0000 </r>
       <r>    3.0966    0.0000 </r>
       <r>    3.5065    0.0000 </r>
       <r>    3.5453    0.0000 </r>
       <r>    3.6062    0.0000 </r>
       <r>    3.7160    0.0000 </r>
       <r>    3.7399    0.0000 </r>
       <r>    3.7640    0.0000 </r>
       <r>    3.9472    0.0000 </r>
       <r>    4.3030    0.0000 </r>
       <r>    4.4224    0.0000 </r>
       <r>    4.5230    0.0000 </r>
       <r>    4.5460    0.0000 </r>
       <r>    4.7263    0.0000 </r>
       <r>    4.7651    0.0000 </r>
       <r>    4.8940    0.0000 </r>
       <r>    5.0381    0.0000 </r>
       <r>    5.0478    0.0000 </r>
       <r>    5.1207    0.0000 </r>
       <r>    5.2743    0.0000 </r>
       <r>    5.3581    0.0000 </r>
       <r>    5.4823    0.0000 </r>
       <r>    5.5006    0.0000 </r>
       <r>    5.5234    0.0000 </r>
       <r>    5.6086    0.0000 </r>
       <r>    5.7148    0.0000 </r>
       <r>    5.7433    0.0000 </r>
       <r>    5.9067    0.0000 </r>
       <r>    5.9182    0.0000 </r>
       <r>    5.9545    0.0000 </r>
       <r>    6.0052    0.0000 </r>
       <r>    6.0879    0.0000 </r>
       <r>    6.1345    0.0000 </r>
       <r>    6.2212    0.0000 </r>
       <r>    6.2505    0.0000 </r>
       <r>    6.3248    0.0000 </r>
       <r>    6.4122    0.0000 </r>
       <r>    6.5182    0.0000 </r>
       <r>    6.5901    0.0000 </r>
       <r>    6.6635    0.0000 </r>
       <r>    6.7528    0.0000 </r>
       <r>    6.8584    0.0000 </r>
       <r>    6.9248    0.0000 </r>
       <r>    6.9361    0.0000 </r>
       <r>    7.0273    0.0000 </r>
       <r>    7.2318    0.0000 </r>
       <r>    7.2483    0.0000 </r>
       <r>    7.3094    0.0000 </r>
       <r>    7.3381    0.0000 </r>
       <r>    7.3873    0.0000 </r>
       <r>    7.4285    0.0000 </r>
       <r>    7.4872    0.0000 </r>
      </set>
      <set comment="kpoint 2">
       <r>  -17.9818    1.0000 </r>
       <r>  -17.3491    1.0000 </r>
       <r>  -16.9117    1.0000 </r>
       <r>  -16.0773    1.0000 </r>
       <r>  -16.0496    1.0000 </r>
       <r>  -15.6372    1.0000 </r>
       <r>  -15.5743    1.0000 </r>
       <r>  -15.2188    1.0000 </r>
       <r>  -15.2049    1.0000 </r>
       <r>  -15.1551    1.0000 </r>
       <r>  -15.1342    1.0000 </r>
       <r>  -15.1218    1.0000 </r>
       <r>  -14.8875    1.0000 </r>
       <r>  -14.6135    1.0000 </r>
       <r>  -14.1066    1.0000 </r>
       <r>  -13.9542    1.0000 </r>
       <r>  -13.5741    1.0000 </r>
       <r>  -13.5384    1.0000 </r>
       <r>  -12.9319    1.0000 </r>
       <r>  -12.8904    1.0000 </r>
       <r>  -12.7876    1.0000 </r>
       <r>  -12.7678    1.0000 </r>
       <r>  -12.6902    1.0000 </r>
       <r>  -12.6811    1.0000 </r>
       <r>  -12.6096    1.0000 </r>
       <r>  -12.2919    1.0000 </r>
       <r>  -11.3319    1.0000 </r>
       <r>  -11.0342    1.0000 </r>
       <r>  -10.8814    1.0000 </r>
       <r>  -10.8433    1.0000 </r>
       <r>  -10.7297    1.0000 </r>
       <r>  -10.3126    1.0000 </r>
       <r>  -10.2976    1.0000 </r>
       <r>  -10.1143    1.0000 </r>
       <r>  -10.0866    1.0000 </r>
       <r>   -9.9456    1.0000 </r>
       <r>   -9.9349    1.0000 </r>
       <r>   -9.8493    1.0000 </r>
       <r>   -8.7823    1.0000 </r>
       <r>   -8.7460    1.0000 </r>
       <r>   -8.6288    1.0000 </r>
       <r>   -8.4191    1.0000 </r>
       <r>   -8.3408    1.0000 </r>
       <r>   -7.9858    1.0000 </r>
       <r>   -7.9636    1.0000 </r>
       <r>   -7.3764    1.0000 </r>
       <r>   -7.2808    1.0000 </r>
       <r>   -7.1446    1.0000 </r>
       <r>   -7.0961    1.0000 </r>
       <r>   -7.0737    1.0000 </r>
       <r>   -6.9959    1.0000 </r>
       <r>   -6.9271    1.0000 </r>
       <r>   -6.8691    1.0000 </r>
       <r>   -6.7801    1.0000 </r>
       <r>   -6.6167    1.0000 </r>
       <r>   -6.4904    1.0000 </r>
       <r>   -6.4147    1.0000 </r>
       <r>   -6.4092    1.0000 </r>
       <r>   -6.3282    1.0000 </r>
       <r>   -6.2935    1.0000 </r>
       <r>   -6.1950    1.0000 </r>
       <r>   -6.1470    1.0000 </r>
       <r>   -6.1293    1.0000 </r>
       <r>   -5.9757    1.0000 </r>
       <r>   -5.9283    1.0000 </r>
       <r>   -5.9142    1.0000 </r>
       <r>   -5.9099    1.0000 </r>
       <r>   -5.8008    1.0000 </r>
       <r>   -5.7748    1.0000 </r>
       <r>   -5.7335    1.0000 </r>
       <r>   -5.6386    1.0000 </r>
       <r>   -5.6015    1.0000 </r>
       <r>   -5.5504    1.0000 </r>
       <r>   -5.5231    1.0000 </r>
       <r>   -5.4140    1.0000 </r>
       <r>   -5.3859    1.0000 </r>
       <r>   -5.3550    1.0000 </r>
       <r>   -5.2265    1.0000 </r>
       <r>   -5.1768    1.0000 </r>
       <r>   -5.1188    1.0000 </r>
       <r>   -5.0731    1.0000 </r>
       <r>   -5.0580    1.0000 </r>
       <r>   -4.7392    1.0000 </r>
       <r>   -4.6570    1.0000 </r>
       <r>   -4.5144    1.0000 </r>
       <r>   -4.3846    1.0000 </r>
       <r>   -4.3239    1.0000 </r>
       <r>   -4.2972    1.0000 </r>
       <r>   -4.2789    1.0000 </r>
       <r>   -4.2622    1.0000 </r>
       <r>   -4.2442    1.0000 </r>
       <r>   -4.1707    1.0000 </r>
       <r>   -4.1558    1.0000 </r>
       <r>   -4.1403    1.0000 </r>
       <r>   -4.1040    1.0000 </r>
       <r>   -4.0629    1.0000 </r>
       <r>   -4.0073    1.0000 </r>
       <r>   -3.9944    1.0000 </r>
       <r>   -3.9766    1.0000 </r>
       <r>   -3.7025    1.0000 </r>
       <r>   -3.6199    1.0000 </r>
       <r>   -3.5784    1.0000 </r>
       <r>   -3.5576    1.0000 </r>
       <r>   -3.5031    1.0000 </r>
       <r>   -3.4646    1.0000 </r>
       <r>   -3.1311    1.0000 </r>
       <r>   -2.8967    1.0000 </r>
       <r>   -2.6896    1.0000 </r>
       <r>   -2.6578    1.0000 </r>
       <r>   -2.6034    1.0000 </r>
       <r>   -2.3946    1.0000 </r>
       <r>   -2.2627    1.0000 </r>
       <r>   -1.9998    1.0000 </r>
       <r>   -1.9411    1.0000 </r>
       <r>   -1.9326    1.0000 </r>
       <r>   -1.8775    1.0000 </r>
       <r>   -1.5545    1.0000 </r>
       <r>   -1.0297    1.0000 </r>
       <r>   -0.0569    1.0000 </r>
       <r>    0.7053    0.0000 </r>
       <r>    2.2992    0.0000 </r>
       <r>    2.6202    0.0000 </r>
       <r>    2.7637    0.0000 </r>
       <r>    3.1031    0.0000 </r>
       <r>    3.4988    0.0000 </r>
       <r>    3.5386    0.0000 </r>
       <r>    3.6212    0.0000 </r>
       <r>    3.6953    0.0000 </r>
       <r>    3.7550    0.0000 </r>
       <r>    3.7689    0.0000 </r>
       <r>    3.9662    0.0000 </r>
       <r>    4.2284    0.0000 </r>
       <r>    4.4501    0.0000 </r>
       <r>    4.5508    0.0000 </r>
       <r>    4.5636    0.0000 </r>
       <r>    4.7200    0.0000 </r>
       <r>    4.7423    0.0000 </r>
       <r>    4.8821    0.0000 </r>
       <r>    5.0058    0.0000 </r>
       <r>    5.0884    0.0000 </r>
       <r>    5.1425    0.0000 </r>
       <r>    5.2367    0.0000 </r>
       <r>    5.3750    0.0000 </r>
       <r>    5.4700    0.0000 </r>
       <r>    5.4918    0.0000 </r>
       <r>    5.5487    0.0000 </r>
       <r>    5.6132    0.0000 </r>
       <r>    5.6837    0.0000 </r>
       <r>    5.7994    0.0000 </r>
       <r>    5.8629    0.0000 </r>
       <r>    5.8914    0.0000 </r>
       <r>    5.9477    0.0000 </r>
       <r>    6.0081    0.0000 </r>
       <r>    6.1344    0.0000 </r>
       <r>    6.1576    0.0000 </r>
       <r>    6.2190    0.0000 </r>
       <r>    6.2399    0.0000 </r>
       <r>    6.3280    0.0000 </r>
       <r>    6.4420    0.0000 </r>
       <r>    6.5034    0.0000 </r>
       <r>    6.5979    0.0000 </r>
       <r>    6.6738    0.0000 </r>
       <r>    6.7245    0.0000 </r>
       <r>    6.8723    0.0000 </r>
       <r>    6.9052    0.0000 </r>
       <r>    6.9482    0.0000 </r>
       <r>    7.0067    0.0000 </r>
       <r>    7.1988    0.0000 </r>
       <r>    7.2632    0.0000 </r>
       <r>    7.2950    0.0000 </r>
       <r>    7.3391    0.0000 </r>
       <r>    7.3788    0.0000 </r>
       <r>    7.4474    0.0000 </r>
       <r>    7.5946    0.0000 </r>
      </set>
      <set comment="kpoint 3">
       <r>  -17.9818    1.0000 </r>
       <r>  -17.3491    1.0000 </r>
       <r>  -16.9117    1.0000 </r>
       <r>  -16.0773    1.0000 </r>
       <r>  -16.0496    1.0000 </r>
       <r>  -15.6372    1.0000 </r>
       <r>  -15.5743    1.0000 </r>
       <r>  -15.2188    1.0000 </r>
       <r>  -15.2049    1.0000 </r>
       <r>  -15.1551    1.0000 </r>
       <r>  -15.1342    1.0000 </r>
       <r>  -15.1218    1.0000 </r>
       <r>  -14.8875    1.0000 </r>
       <r>  -14.6135    1.0000 </r>
       <r>  -14.1066    1.0000 </r>
       <r>  -13.9542    1.0000 </r>
       <r>  -13.5741    1.0000 </r>
       <r>  -13.5384    1.0000 </r>
       <r>  -12.9319    1.0000 </r>
       <r>  -12.8904    1.0000 </r>
       <r>  -12.7876    1.0000 </r>
       <r>  -12.7678    1.0000 </r>
       <r>  -12.6902    1.0000 </r>
       <r>  -12.6811    1.0000 </r>
       <r>  -12.6096    1.0000 </r>
       <r>  -12.2919    1.0000 </r>
       <r>  -11.3319    1.0000 </r>
       <r>  -11.0342    1.0000 </r>
       <r>  -10.8814    1.0000 </r>
       <r>  -10.8433    1.0000 </r>
       <r>  -10.7297    1.0000 </r>
       <r>  -10.3126    1.0000 </r>
       <r>  -10.2976    1.0000 </r>
       <r>  -10.1143    1.0000 </r>
       <r>  -10.0866    1.0000 </r>
       <r>   -9.9456    1.0000 </r>
       <r>   -9.9349    1.0000 </r>
       <r>   -9.8493    1.0000 </r>
       <r>   -8.7823    1.0000 </r>
       <r>   -8.7460    1.0000 </r>
       <r>   -8.6288    1.0000 </r>
       <r>   -8.4191    1.0000 </r>
       <r>   -8.3408    1.0000 </r>
       <r>   -7.9858    1.0000 </r>
       <r>   -7.9636    1.0000 </r>
       <r>   -7.3764    1.0000 </r>
       <r>   -7.2808    1.0000 </r>
       <r>   -7.1446    1.0000 </r>
       <r>   -7.0961    1.0000 </r>
       <r>   -7.0737    1.0000 </r>
       <r>   -6.9959    1.0000 </r>
       <r>   -6.9271    1.0000 </r>
       <r>   -6.8691    1.0000 </r>
       <r>   -6.7801    1.0000 </r>
       <r>   -6.6167    1.0000 </r>
       <r>   -6.4904    1.0000 </r>
       <r>   -6.4147    1.0000 </r>
       <r>   -6.4092    1.0000 </r>
       <r>   -6.3282    1.0000 </r>
       <r>   -6.2935    1.0000 </r>
       <r>   -6.1950    1.0000 </r>
       <r>   -6.1470    1.0000 </r>
       <r>   -6.1293    1.0000 </r>
       <r>   -5.9757    1.0000 </r>
       <r>   -5.9283    1.0000 </r>
       <r>   -5.9142    1.0000 </r>
       <r>   -5.9099    1.0000 </r>
       <r>   -5.8008    1.0000 </r>
       <r>   -5.7748    1.0000 </r>
       <r>   -5.7335    1.0000 </r>
       <r>   -5.6386    1.0000 </r>
       <r>   -5.6015    1.0000 </r>
       <r>   -5.5504    1.0000 </r>
       <r>   -5.5231    1.0000 </r>
       <r>   -5.4140    1.0000 </r>
       <r>   -5.3859    1.0000 </r>
       <r>   -5.3550    1.0000 </r>
       <r>   -5.2265    1.0000 </r>
       <r>   -5.1768    1.0000 </r>
       <r>   -5.1188    1.0000 </r>
       <r>   -5.0731    1.0000 </r>
       <r>   -5.0580    1.0000 </r>
       <r>   -4.7392    1.0000 </r>
       <r>   -4.6570    1.0000 </r>
       <r>   -4.5144    1.0000 </r>
       <r>   -4.3846    1.0000 </r>
       <r>   -4.3239    1.0000 </r>
       <r>   -4.2972    1.0000 </r>
       <r>   -4.2789    1.0000 </r>
       <r>   -4.2622    1.0000 </r>
       <r>   -4.2442    1.0000 </r>
       <r>   -4.1707    1.0000 </r>
       <r>   -4.1558    1.0000 </r>
       <r>   -4.1403    1.0000 </r>
       <r>   -4.1040    1.0000 </r>
       <r>   -4.0629    1.0000 </r>
       <r>   -4.0073    1.0000 </r>
       <r>   -3.9944    1.0000 </r>
       <r>   -3.9766    1.0000 </r>
       <r>   -3.7025    1.0000 </r>
       <r>   -3.6199    1.0000 </r>
       <r>   -3.5784    1.0000 </r>
       <r>   -3.5576    1.0000 </r>
       <r>   -3.5031    1.0000 </r>
       <r>   -3.4646    1.0000 </r>
       <r>   -3.1311    1.0000 </r>
       <r>   -2.8967    1.0000 </r>
       <r>   -2.6896    1.0000 </r>
       <r>   -2.6578    1.0000 </r>
       <r>   -2.6034    1.0000 </r>
       <r>   -2.3946    1.0000 </r>
       <r>   -2.2627    1.0000 </r>
       <r>   -1.9998    1.0000 </r>
       <r>   -1.9411    1.0000 </r>
       <r>   -1.9326    1.0000 </r>
       <r>   -1.8775    1.0000 </r>
       <r>   -1.5545    1.0000 </r>
       <r>   -1.0297    1.0000 </r>
       <r>   -0.0569    1.0000 </r>
       <r>    0.7053    0.0000 </r>
       <r>    2.2992    0.0000 </r>
       <r>    2.6202    0.0000 </r>
       <r>    2.7637    0.0000 </r>
       <r>    3.1031    0.0000 </r>
       <r>    3.4988    0.0000 </r>
       <r>    3.5386    0.0000 </r>
       <r>    3.6212    0.0000 </r>
       <r>    3.6953    0.0000 </r>
       <r>    3.7550    0.0000 </r>
       <r>    3.7689    0.0000 </r>
       <r>    3.9662    0.0000 </r>
       <r>    4.2284    0.0000 </r>
       <r>    4.4501    0.0000 </r>
       <r>    4.5508    0.0000 </r>
       <r>    4.5636    0.0000 </r>
       <r>    4.7200    0.0000 </r>
       <r>    4.7423    0.0000 </r>
       <r>    4.8821    0.0000 </r>
       <r>    5.0058    0.0000 </r>
       <r>    5.0884    0.0000 </r>
       <r>    5.1425    0.0000 </r>
       <r>    5.2367    0.0000 </r>
       <r>    5.3750    0.0000 </r>
       <r>    5.4700    0.0000 </r>
       <r>    5.4918    0.0000 </r>
       <r>    5.5487    0.0000 </r>
       <r>    5.6132    0.0000 </r>
       <r>    5.6837    0.0000 </r>
       <r>    5.7994    0.0000 </r>
       <r>    5.8629    0.0000 </r>
       <r>    5.8914    0.0000 </r>
       <r>    5.9477    0.0000 </r>
       <r>    6.0081    0.0000 </r>
       <r>    6.1344    0.0000 </r>
       <r>    6.1576    0.0000 </r>
       <r>    6.2190    0.0000 </r>
       <r>    6.2399    0.0000 </r>
       <r>    6.3280    0.0000 </r>
       <r>    6.4420    0.0000 </r>
       <r>    6.5034    0.0000 </r>
       <r>    6.5979    0.0000 </r>
       <r>    6.6738    0.0000 </r>
       <r>    6.7245    0.0000 </r>
       <r>    6.8723    0.0000 </r>
       <r>    6.9052    0.0000 </r>
       <r>    6.9482    0.0000 </r>
       <r>    7.0067    0.0000 </r>
       <r>    7.1984    0.0000 </r>
       <r>    7.2634    0.0000 </r>
       <r>    7.2943    0.0000 </r>
       <r>    7.3391    0.0000 </r>
       <r>    7.3740    0.0000 </r>
       <r>    7.4504    0.0000 </r>
       <r>    7.6000    0.0000 </r>
      </set>
      <set comment="kpoint 4">
       <r>  -17.9794    1.0000 </r>
       <r>  -17.3539    1.0000 </r>
       <r>  -16.9121    1.0000 </r>
       <r>  -16.0747    1.0000 </r>
       <r>  -16.0496    1.0000 </r>
       <r>  -15.6364    1.0000 </r>
       <r>  -15.5727    1.0000 </r>
       <r>  -15.2225    1.0000 </r>
       <r>  -15.2037    1.0000 </r>
       <r>  -15.1529    1.0000 </r>
       <r>  -15.1337    1.0000 </r>
       <r>  -15.1206    1.0000 </r>
       <r>  -14.8903    1.0000 </r>
       <r>  -14.6127    1.0000 </r>
       <r>  -14.1060    1.0000 </r>
       <r>  -13.9590    1.0000 </r>
       <r>  -13.5725    1.0000 </r>
       <r>  -13.5377    1.0000 </r>
       <r>  -12.9198    1.0000 </r>
       <r>  -12.9008    1.0000 </r>
       <r>  -12.7880    1.0000 </r>
       <r>  -12.7699    1.0000 </r>
       <r>  -12.6904    1.0000 </r>
       <r>  -12.6822    1.0000 </r>
       <r>  -12.6081    1.0000 </r>
       <r>  -12.2898    1.0000 </r>
       <r>  -11.3319    1.0000 </r>
       <r>  -11.0375    1.0000 </r>
       <r>  -10.8894    1.0000 </r>
       <r>  -10.8433    1.0000 </r>
       <r>  -10.7333    1.0000 </r>
       <r>  -10.3077    1.0000 </r>
       <r>  -10.2992    1.0000 </r>
       <r>  -10.1026    1.0000 </r>
       <r>  -10.0893    1.0000 </r>
       <r>   -9.9438    1.0000 </r>
       <r>   -9.9344    1.0000 </r>
       <r>   -9.8529    1.0000 </r>
       <r>   -8.7733    1.0000 </r>
       <r>   -8.7423    1.0000 </r>
       <r>   -8.6285    1.0000 </r>
       <r>   -8.4146    1.0000 </r>
       <r>   -8.3483    1.0000 </r>
       <r>   -7.9790    1.0000 </r>
       <r>   -7.9593    1.0000 </r>
       <r>   -7.3984    1.0000 </r>
       <r>   -7.2852    1.0000 </r>
       <r>   -7.1346    1.0000 </r>
       <r>   -7.0987    1.0000 </r>
       <r>   -7.0556    1.0000 </r>
       <r>   -7.0024    1.0000 </r>
       <r>   -6.9312    1.0000 </r>
       <r>   -6.8703    1.0000 </r>
       <r>   -6.7846    1.0000 </r>
       <r>   -6.6142    1.0000 </r>
       <r>   -6.4986    1.0000 </r>
       <r>   -6.4304    1.0000 </r>
       <r>   -6.3987    1.0000 </r>
       <r>   -6.3388    1.0000 </r>
       <r>   -6.2888    1.0000 </r>
       <r>   -6.1850    1.0000 </r>
       <r>   -6.1503    1.0000 </r>
       <r>   -6.1213    1.0000 </r>
       <r>   -6.0073    1.0000 </r>
       <r>   -5.9550    1.0000 </r>
       <r>   -5.9226    1.0000 </r>
       <r>   -5.9036    1.0000 </r>
       <r>   -5.7836    1.0000 </r>
       <r>   -5.7422    1.0000 </r>
       <r>   -5.6956    1.0000 </r>
       <r>   -5.6416    1.0000 </r>
       <r>   -5.6014    1.0000 </r>
       <r>   -5.5523    1.0000 </r>
       <r>   -5.5214    1.0000 </r>
       <r>   -5.4102    1.0000 </r>
       <r>   -5.4007    1.0000 </r>
       <r>   -5.3648    1.0000 </r>
       <r>   -5.2260    1.0000 </r>
       <r>   -5.1791    1.0000 </r>
       <r>   -5.1211    1.0000 </r>
       <r>   -5.0779    1.0000 </r>
       <r>   -5.0524    1.0000 </r>
       <r>   -4.7497    1.0000 </r>
       <r>   -4.6331    1.0000 </r>
       <r>   -4.5134    1.0000 </r>
       <r>   -4.3762    1.0000 </r>
       <r>   -4.3217    1.0000 </r>
       <r>   -4.3012    1.0000 </r>
       <r>   -4.2868    1.0000 </r>
       <r>   -4.2567    1.0000 </r>
       <r>   -4.2398    1.0000 </r>
       <r>   -4.1861    1.0000 </r>
       <r>   -4.1600    1.0000 </r>
       <r>   -4.1501    1.0000 </r>
       <r>   -4.0825    1.0000 </r>
       <r>   -4.0560    1.0000 </r>
       <r>   -4.0114    1.0000 </r>
       <r>   -3.9966    1.0000 </r>
       <r>   -3.9704    1.0000 </r>
       <r>   -3.7126    1.0000 </r>
       <r>   -3.6182    1.0000 </r>
       <r>   -3.6041    1.0000 </r>
       <r>   -3.5565    1.0000 </r>
       <r>   -3.5128    1.0000 </r>
       <r>   -3.4574    1.0000 </r>
       <r>   -3.1365    1.0000 </r>
       <r>   -2.8909    1.0000 </r>
       <r>   -2.6897    1.0000 </r>
       <r>   -2.6541    1.0000 </r>
       <r>   -2.5995    1.0000 </r>
       <r>   -2.4051    1.0000 </r>
       <r>   -2.2599    1.0000 </r>
       <r>   -1.9976    1.0000 </r>
       <r>   -1.9394    1.0000 </r>
       <r>   -1.9239    1.0000 </r>
       <r>   -1.8807    1.0000 </r>
       <r>   -1.5543    1.0000 </r>
       <r>   -1.0369    1.0000 </r>
       <r>   -0.0634    1.0000 </r>
       <r>    0.7365    0.0000 </r>
       <r>    2.2808    0.0000 </r>
       <r>    2.6218    0.0000 </r>
       <r>    2.7678    0.0000 </r>
       <r>    3.1095    0.0000 </r>
       <r>    3.5008    0.0000 </r>
       <r>    3.5447    0.0000 </r>
       <r>    3.6185    0.0000 </r>
       <r>    3.7119    0.0000 </r>
       <r>    3.7481    0.0000 </r>
       <r>    3.7705    0.0000 </r>
       <r>    3.9625    0.0000 </r>
       <r>    4.3063    0.0000 </r>
       <r>    4.4279    0.0000 </r>
       <r>    4.4939    0.0000 </r>
       <r>    4.5734    0.0000 </r>
       <r>    4.6850    0.0000 </r>
       <r>    4.7401    0.0000 </r>
       <r>    4.9128    0.0000 </r>
       <r>    5.0031    0.0000 </r>
       <r>    5.0770    0.0000 </r>
       <r>    5.1467    0.0000 </r>
       <r>    5.2728    0.0000 </r>
       <r>    5.3533    0.0000 </r>
       <r>    5.4588    0.0000 </r>
       <r>    5.4919    0.0000 </r>
[...]
       <r>     5.1684    21.8544   281.3676 </r>
       <r>     5.1825    18.8871   281.6335 </r>
       <r>     5.1965    16.3528   281.8638 </r>
       <r>     5.2106    15.0956   282.0764 </r>
       <r>     5.2247    15.4763   282.2943 </r>
       <r>     5.2388    17.1109   282.5352 </r>
       <r>     5.2529    19.0405   282.8033 </r>
       <r>     5.2669    20.2375   283.0883 </r>
       <r>     5.2810    20.1739   283.3723 </r>
       <r>     5.2951    19.1447   283.6419 </r>
       <r>     5.3092    18.1187   283.8971 </r>
       <r>     5.3233    18.1197   284.1522 </r>
       <r>     5.3374    19.4987   284.4268 </r>
       <r>     5.3514    21.6548   284.7317 </r>
       <r>     5.3655    23.4852   285.0624 </r>
       <r>     5.3796    24.2416   285.4037 </r>
       <r>     5.3937    24.1026   285.7431 </r>
       <r>     5.4078    24.0360   286.0815 </r>
       <r>     5.4218    25.1467   286.4356 </r>
       <r>     5.4359    28.0591   286.8307 </r>
       <r>     5.4500    32.6815   287.2909 </r>
       <r>     5.4641    38.2804   287.8299 </r>
       <r>     5.4782    43.6429   288.4445 </r>
       <r>     5.4922    47.3103   289.1106 </r>
       <r>     5.5063    48.0139   289.7867 </r>
       <r>     5.5204    45.2693   290.4241 </r>
       <r>     5.5345    39.7837   290.9843 </r>
       <r>     5.5486    33.3086   291.4534 </r>
       <r>     5.5626    27.8954   291.8462 </r>
       <r>     5.5767    24.9159   292.1970 </r>
       <r>     5.5908    24.4170   292.5408 </r>
       <r>     5.6049    25.2425   292.8962 </r>
       <r>     5.6190    25.8823   293.2607 </r>
       <r>     5.6331    25.4704   293.6193 </r>
       <r>     5.6471    24.2161   293.9603 </r>
       <r>     5.6612    23.0313   294.2846 </r>
       <r>     5.6753    22.7714   294.6053 </r>
       <r>     5.6894    23.6982   294.9390 </r>
       <r>     5.7035    25.4146   295.2968 </r>
       <r>     5.7175    27.1361   295.6789 </r>
       <r>     5.7316    28.0990   296.0746 </r>
       <r>     5.7457    27.9612   296.4683 </r>
       <r>     5.7598    27.0097   296.8486 </r>
       <r>     5.7739    25.9865   297.2145 </r>
       <r>     5.7879    25.6084   297.5751 </r>
       <r>     5.8020    26.1500   297.9433 </r>
       <r>     5.8161    27.3977   298.3291 </r>
       <r>     5.8302    28.9032   298.7361 </r>
       <r>     5.8443    30.2450   299.1620 </r>
       <r>     5.8583    31.1518   299.6006 </r>
       <r>     5.8724    31.5560   300.0450 </r>
       <r>     5.8865    31.6374   300.4904 </r>
       <r>     5.9006    31.7869   300.9380 </r>
       <r>     5.9147    32.4014   301.3943 </r>
       <r>     5.9288    33.5741   301.8670 </r>
       <r>     5.9428    34.9093   302.3586 </r>
       <r>     5.9569    35.6704   302.8609 </r>
       <r>     5.9710    35.2216   303.3568 </r>
       <r>     5.9851    33.4553   303.8279 </r>
       <r>     5.9992    30.8810   304.2627 </r>
       <r>     6.0132    28.3329   304.6617 </r>
       <r>     6.0273    26.5395   305.0354 </r>
       <r>     6.0414    25.8282   305.3991 </r>
       <r>     6.0555    26.0746   305.7662 </r>
       <r>     6.0696    26.8715   306.1446 </r>
       <r>     6.0836    27.8218   306.5363 </r>
       <r>     6.0977    28.7894   306.9417 </r>
       <r>     6.1118    29.9073   307.3629 </r>
       <r>     6.1259    31.3071   307.8037 </r>
       <r>     6.1400    32.8187   308.2658 </r>
       <r>     6.1540    33.9941   308.7445 </r>
       <r>     6.1681    34.4995   309.2303 </r>
       <r>     6.1822    34.4898   309.7159 </r>
       <r>     6.1963    34.5250   310.2020 </r>
       <r>     6.2104    35.0355   310.6954 </r>
       <r>     6.2245    35.8301   311.1999 </r>
       <r>     6.2385    36.1484   311.7089 </r>
       <r>     6.2526    35.2680   312.2055 </r>
       <r>     6.2667    33.1496   312.6723 </r>
       <r>     6.2808    30.5628   313.1026 </r>
       <r>     6.2949    28.5897   313.5052 </r>
       <r>     6.3089    27.9189   313.8983 </r>
       <r>     6.3230    28.4418   314.2988 </r>
       <r>     6.3371    29.3627   314.7123 </r>
       <r>     6.3512    29.6764   315.1301 </r>
       <r>     6.3653    28.7220   315.5346 </r>
       <r>     6.3793    26.5498   315.9084 </r>
       <r>     6.3934    23.9234   316.2453 </r>
       <r>     6.4075    21.9246   316.5540 </r>
       <r>     6.4216    21.3611   316.8548 </r>
       <r>     6.4357    22.3497   317.1695 </r>
       <r>     6.4497    24.3376   317.5122 </r>
       <r>     6.4638    26.4708   317.8849 </r>
       <r>     6.4779    27.9640   318.2787 </r>
       <r>     6.4920    28.2629   318.6766 </r>
       <r>     6.5061    27.1247   319.0586 </r>
       <r>     6.5202    24.7895   319.4076 </r>
       <r>     6.5342    22.0957   319.7188 </r>
       <r>     6.5483    20.2168   320.0034 </r>
       <r>     6.5624    20.0221   320.2854 </r>
       <r>     6.5765    21.5391   320.5887 </r>
       <r>     6.5906    23.9946   320.9265 </r>
       <r>     6.6046    26.3853   321.2980 </r>
       <r>     6.6187    28.0570   321.6931 </r>
       <r>     6.6328    28.8476   322.0993 </r>
       <r>     6.6469    28.8379   322.5054 </r>
       <r>     6.6610    28.0927   322.9009 </r>
       <r>     6.6750    26.6547   323.2763 </r>
       <r>     6.6891    24.7079   323.6242 </r>
       <r>     6.7032    22.6557   323.9432 </r>
       <r>     6.7173    20.9853   324.2387 </r>
       <r>     6.7314    20.0168   324.5205 </r>
       <r>     6.7454    19.7380   324.7985 </r>
       <r>     6.7595    19.8475   325.0779 </r>
       <r>     6.7736    19.9776   325.3592 </r>
       <r>     6.7877    19.9494   325.6402 </r>
       <r>     6.8018    19.8865   325.9202 </r>
       <r>     6.8158    20.1087   326.2033 </r>
       <r>     6.8299    20.9067   326.4977 </r>
       <r>     6.8440    22.3957   326.8131 </r>
       <r>     6.8581    24.5366   327.1586 </r>
       <r>     6.8722    27.2201   327.5418 </r>
       <r>     6.8863    30.2697   327.9681 </r>
       <r>     6.9003    33.3661   328.4379 </r>
       <r>     6.9144    36.0342   328.9453 </r>
       <r>     6.9285    37.7917   329.4774 </r>
       <r>     6.9426    38.4007   330.0181 </r>
       <r>     6.9567    38.0200   330.5535 </r>
       <r>     6.9707    37.0944   331.0758 </r>
       <r>     6.9848    36.0120   331.5829 </r>
       <r>     6.9989    34.7663   332.0724 </r>
       <r>     7.0130    32.8944   332.5356 </r>
       <r>     7.0271    29.7845   332.9550 </r>
       <r>     7.0411    25.1673   333.3094 </r>
       <r>     7.0552    19.4345   333.5831 </r>
       <r>     7.0693    13.5334   333.7736 </r>
       <r>     7.0834     8.5205   333.8936 </r>
       <r>     7.0975     5.1274   333.9658 </r>
       <r>     7.1115     3.6332   334.0170 </r>
       <r>     7.1256     4.0355   334.0738 </r>
       <r>     7.1397     6.2773   334.1622 </r>
       <r>     7.1538    10.3088   334.3073 </r>
       <r>     7.1679    15.9426   334.5318 </r>
       <r>     7.1820    22.6391   334.8506 </r>
       <r>     7.1960    29.4386   335.2651 </r>
       <r>     7.2101    35.1923   335.7606 </r>
       <r>     7.2242    39.0270   336.3102 </r>
       <r>     7.2383    40.7511   336.8840 </r>
       <r>     7.2524    40.8927   337.4598 </r>
       <r>     7.2664    40.3422   338.0279 </r>
       <r>     7.2805    39.8803   338.5894 </r>
       <r>     7.2946    39.9027   339.1513 </r>
       <r>     7.3087    40.3905   339.7200 </r>
       <r>     7.3228    40.9903   340.2972 </r>
       <r>     7.3368    41.1489   340.8766 </r>
       <r>     7.3509    40.3563   341.4449 </r>
       <r>     7.3650    38.4497   341.9863 </r>
       <r>     7.3791    35.7778   342.4900 </r>
       <r>     7.3932    33.0812   342.9559 </r>
       <r>     7.4072    31.1341   343.3943 </r>
       <r>     7.4213    30.3297   343.8213 </r>
       <r>     7.4354    30.4433   344.2500 </r>
       <r>     7.4495    30.7564   344.6831 </r>
       <r>     7.4636    30.4915   345.1124 </r>
       <r>     7.4777    29.2318   345.5240 </r>
       <r>     7.4917    27.0219   345.9045 </r>
       <r>     7.5058    24.1806   346.2450 </r>
       <r>     7.5199    21.0981   346.5421 </r>
       <r>     7.5340    18.1648   346.7979 </r>
       <r>     7.5481    15.7312   347.0194 </r>
       <r>     7.5621    13.9747   347.2162 </r>
       <r>     7.5762    12.7483   347.3957 </r>
       <r>     7.5903    11.6137   347.5592 </r>
       <r>     7.6044    10.1161   347.7016 </r>
       <r>     7.6185     8.1021   347.8157 </r>
       <r>     7.6325     5.8095   347.8975 </r>
       <r>     7.6466     3.6709   347.9492 </r>
       <r>     7.6607     2.0259   347.9777 </r>
       <r>     7.6748     0.9716   347.9914 </r>
       <r>     7.6889     0.4037   347.9971 </r>
       <r>     7.7029     0.1450   347.9991 </r>
       <r>     7.7170     0.0450   347.9998 </r>
       <r>     7.7311     0.0120   348.0000 </r>
       <r>     7.7452     0.0028   348.0000 </r>
       <r>     7.7593     0.0006   348.0000 </r>
       <r>     7.7734     0.0001   348.0000 </r>
       <r>     7.7874     0.0000   348.0000 </r>
       <r>     7.8015     0.0000   348.0000 </r>
       <r>     7.8156     0.0000   348.0000 </r>
       <r>     7.8297     0.0000   348.0000 </r>
       <r>     7.8438     0.0000   348.0000 </r>
       <r>     7.8578     0.0000   348.0000 </r>
       <r>     7.8719     0.0000   348.0000 </r>
       <r>     7.8860     0.0000   348.0000 </r>
       <r>     7.9001     0.0000   348.0000 </r>
       <r>     7.9142     0.0000   348.0000 </r>
       <r>     7.9282     0.0000   348.0000 </r>
       <r>     7.9423     0.0000   348.0000 </r>
       <r>     7.9564     0.0000   348.0000 </r>
       <r>     7.9705     0.0000   348.0000 </r>
       <r>     7.9846     0.0000   348.0000 </r>
       <r>     7.9986     0.0000   348.0000 </r>
       <r>     8.0127     0.0000   348.0000 </r>
       <r>     8.0268     0.0000   348.0000 </r>
       <r>     8.0409     0.0000   348.0000 </r>
       <r>     8.0550     0.0000   348.0000 </r>
       <r>     8.0691     0.0000   348.0000 </r>
       <r>     8.0831     0.0000   348.0000 </r>
       <r>     8.0972     0.0000   348.0000 </r>
       <r>     8.1113     0.0000   348.0000 </r>
       <r>     8.1254     0.0000   348.0000 </r>
       <r>     8.1395     0.0000   348.0000 </r>
       <r>     8.1535     0.0000   348.0000 </r>
       <r>     8.1676     0.0000   348.0000 </r>
       <r>     8.1817     0.0000   348.0000 </r>
       <r>     8.1958     0.0000   348.0000 </r>
       <r>     8.2099     0.0000   348.0000 </r>
       <r>     8.2239     0.0000   348.0000 </r>
       <r>     8.2380     0.0000   348.0000 </r>
       <r>     8.2521     0.0000   348.0000 </r>
       <r>     8.2662     0.0000   348.0000 </r>
       <r>     8.2803     0.0000   348.0000 </r>
       <r>     8.2943     0.0000   348.0000 </r>
       <r>     8.3084     0.0000   348.0000 </r>
       <r>     8.3225     0.0000   348.0000 </r>
       <r>     8.3366     0.0000   348.0000 </r>
       <r>     8.3507     0.0000   348.0000 </r>
       <r>     8.3647     0.0000   348.0000 </r>
       <r>     8.3788     0.0000   348.0000 </r>
       <r>     8.3929     0.0000   348.0000 </r>
       <r>     8.4070     0.0000   348.0000 </r>
       <r>     8.4211     0.0000   348.0000 </r>
       <r>     8.4352     0.0000   348.0000 </r>
       <r>     8.4492     0.0000   348.0000 </r>
       <r>     8.4633     0.0000   348.0000 </r>
       <r>     8.4774     0.0000   348.0000 </r>
       <r>     8.4915     0.0000   348.0000 </r>
       <r>     8.5056     0.0000   348.0000 </r>
       <r>     8.5196     0.0000   348.0000 </r>
       <r>     8.5337     0.0000   348.0000 </r>
       <r>     8.5478     0.0000   348.0000 </r>
       <r>     8.5619     0.0000   348.0000 </r>
       <r>     8.5760     0.0000   348.0000 </r>
       <r>     8.5900     0.0000   348.0000 </r>
       <r>     8.6041     0.0000   348.0000 </r>
       <r>     8.6182     0.0000   348.0000 </r>
       <r>     8.6323     0.0000   348.0000 </r>
       <r>     8.6464     0.0000   348.0000 </r>
       <r>     8.6604     0.0000   348.0000 </r>
       <r>     8.6745     0.0000   348.0000 </r>
       <r>     8.6886     0.0000   348.0000 </r>
       <r>     8.7027     0.0000   348.0000 </r>
       <r>     8.7168     0.0000   348.0000 </r>
       <r>     8.7309     0.0000   348.0000 </r>
       <r>     8.7449     0.0000   348.0000 </r>
       <r>     8.7590     0.0000   348.0000 </r>
       <r>     8.7731     0.0000   348.0000 </r>
       <r>     8.7872     0.0000   348.0000 </r>
       <r>     8.8013     0.0000   348.0000 </r>
       <r>     8.8153     0.0000   348.0000 </r>
       <r>     8.8294     0.0000   348.0000 </r>
       <r>     8.8435     0.0000   348.0000 </r>
       <r>     8.8576     0.0000   348.0000 </r>
       <r>     8.8717     0.0000   348.0000 </r>
       <r>     8.8857     0.0000   348.0000 </r>
      </set>
     </set>
    </array>
   </total>
  </dos>
 </calculation>
 <structure name="finalpos" >
  <crystal>
   <varray name="basis" >
    <v>       8.19597172       0.08687475       0.02684671 </v>
    <v>      -1.07767888       7.69236170      -0.09681698 </v>
    <v>       0.23313944      -3.71271844      16.61424604 </v>
   </varray>
   <i name="volume">   1046.13476195 </i>
   <varray name="rec_basis" >
    <v>       0.12182306       0.01709364       0.00211036 </v>
    <v>      -0.00147498       0.13015879       0.02910676 </v>
    <v>      -0.00020545       0.00073086       0.06035551 </v>
   </varray>
  </crystal>
  <varray name="positions" >
   <v>       0.67899767       0.32887647       0.27455248 </v>
   <v>       0.01845032       0.31753242       0.18437121 </v>
   <v>       0.67475394       0.34842508       0.09116212 </v>
   <v>       0.72018715       0.97126636       0.14151502 </v>
   <v>       0.62441504       0.38357854       0.34208670 </v>
   <v>       0.09128918       0.24859460       0.25172012 </v>
   <v>       0.05380836       0.52064705       0.19893472 </v>
   <v>       0.74938734       0.29701282       0.00748618 </v>
   <v>       0.48746572       0.30475563       0.08876618 </v>
   <v>       0.84337863       0.88749760       0.08063559 </v>
   <v>       0.70685976       0.88875376       0.21501054 </v>
   <v>       0.56191804       0.44244075       0.42019052 </v>
   <v>       0.45714649       0.31990757       0.45526223 </v>
   <v>       0.60524072       0.62235920       0.46392574 </v>
   <v>       0.41338848       0.14153871       0.41336956 </v>
   <v>       0.39475928       0.37764080       0.53607426 </v>
   <v>       0.54285351       0.68009243       0.54473777 </v>
   <v>       0.70657991       0.74712476       0.43049809 </v>
   <v>       0.31368713       0.01880457       0.44695845 </v>
   <v>       0.43808196       0.55755925       0.57980948 </v>
   <v>       0.29342009       0.25287524       0.56950191 </v>
   <v>       0.58661152       0.85846129       0.58663044 </v>
   <v>       0.74810108       0.92390933       0.47227512 </v>
   <v>       0.27120759       0.83721671       0.40461896 </v>
   <v>       0.25189892       0.07609067       0.52772488 </v>
   <v>       0.37558496       0.61642146       0.65791330 </v>
   <v>       0.68631287       0.98119543       0.55304155 </v>
   <v>       0.85022359       0.05133735       0.43865987 </v>
   <v>       0.17367626       0.71922841       0.43943123 </v>
   <v>       0.14977641       0.94866265       0.56134013 </v>
   <v>       0.32100233       0.67112353       0.72544752 </v>
   <v>       0.72879241       0.16278329       0.59538104 </v>
   <v>       0.88788745       0.22413255       0.48130730 </v>
   <v>       0.11211255       0.77586745       0.51869270 </v>
   <v>       0.82632374       0.28077159       0.56056877 </v>
   <v>       0.98154968       0.68246758       0.81562879 </v>
   <v>       0.32524606       0.65157492       0.90883788 </v>
   <v>       0.27981285       0.02873364       0.85848498 </v>
   <v>       0.90871082       0.75140540       0.74827988 </v>
   <v>       0.94619164       0.47935295       0.80106528 </v>
   <v>       0.25061266       0.70298718       0.99251382 </v>
   <v>       0.51253428       0.69524437       0.91123382 </v>
   <v>       0.15662137       0.11250240       0.91936441 </v>
   <v>       0.29314024       0.11124624       0.78498946 </v>
   <v>       0.77563219       0.23825893       0.17135061 </v>
   <v>       0.22436781       0.76174107       0.82864939 </v>
   <v>       0.07162349       0.25694210       0.12625823 </v>
   <v>       0.70696809       0.49288308       0.11531704 </v>
   <v>       0.59818162       0.94904924       0.11180538 </v>
   <v>       0.22376572       0.29647304       0.26057755 </v>
   <v>       0.07746382       0.10215798       0.23894141 </v>
   <v>       0.03087360       0.29509474       0.30944206 </v>
   <v>       0.18732340       0.56446935       0.20523286 </v>
   <v>       0.99689203       0.58637656       0.25490969 </v>
   <v>       0.00809079       0.57113631       0.14929074 </v>
   <v>       0.69932702       0.36645295       0.96539067 </v>
   <v>       0.72109540       0.15312017       0.98093871 </v>
   <v>       0.88394456       0.33031412       0.00870983 </v>
   <v>       0.43162478       0.37227303       0.04760163 </v>
   <v>       0.43414406       0.34597712       0.14870543 </v>
   <v>       0.44880836       0.16074633       0.06663699 </v>
   <v>       0.80838072       0.74219386       0.06064328 </v>
   <v>       0.96770207       0.90865649       0.10747376 </v>
   <v>       0.85161560       0.94172975       0.02632028 </v>
   <v>       0.65865192       0.74593117       0.19767248 </v>
   <v>       0.62600516       0.95438774       0.26118175 </v>
   <v>       0.82794985       0.89864971       0.24380887 </v>
   <v>       0.46093226       0.09876848       0.35282433 </v>
   <v>       0.75324240       0.70295004       0.36982489 </v>
   <v>       0.24675760       0.29704996       0.63017511 </v>
   <v>       0.53906774       0.90123152       0.64717567 </v>
   <v>       0.31971679       0.79403346       0.34423724 </v>
   <v>       0.89868342       0.00801615       0.37837620 </v>
   <v>       0.14353478       0.58073109       0.40673115 </v>
   <v>       0.10131658       0.99198385       0.62162380 </v>
   <v>       0.68028321       0.20596654       0.65576276 </v>
   <v>       0.96627384       0.31971985       0.45495236 </v>
   <v>       0.03372616       0.68028015       0.54504764 </v>
   <v>       0.85646522       0.41926891       0.59326885 </v>
   <v>       0.92837651       0.74305790       0.87374177 </v>
   <v>       0.29303191       0.50711692       0.88468296 </v>
   <v>       0.40181838       0.05095076       0.88819462 </v>
   <v>       0.77623428       0.70352696       0.73942245 </v>
   <v>       0.92253618       0.89784202       0.76105859 </v>
   <v>       0.96912640       0.70490526       0.69055794 </v>
   <v>       0.81267660       0.43553065       0.79476714 </v>
   <v>       0.00310797       0.41362344       0.74509031 </v>
   <v>       0.99190921       0.42886369       0.85070926 </v>
   <v>       0.30067298       0.63354705       0.03460933 </v>
   <v>       0.27890460       0.84687983       0.01906129 </v>
   <v>       0.11605544       0.66968588       0.99129017 </v>
   <v>       0.56837522       0.62772697       0.95239837 </v>
   <v>       0.56585594       0.65402288       0.85129457 </v>
   <v>       0.55119164       0.83925367       0.93336301 </v>
   <v>       0.19161928       0.25780614       0.93935672 </v>
   <v>       0.03229793       0.09134351       0.89252624 </v>
   <v>       0.14838440       0.05827025       0.97367972 </v>
   <v>       0.34134808       0.25406883       0.80232752 </v>
   <v>       0.37399484       0.04561226       0.73881825 </v>
   <v>       0.17205015       0.10135029       0.75619113 </v>
  </varray>
 </structure>
</modeling>
